INSANE! Membrane UpperLeaflet>loPI:POPI:DPPI:PYPI:ERGO=180.0:5.0:3.0:2.0:10.0 LowerLeaflet>PSPI:POPI:POPS:YOPS:POPE:YOPE:POPC:YOPC:ERGO=6.0:14.0:21.0:9.0:9.0:21.0:12.0:48.0:60.0
49261
    1loPI    C1    1  16.154   0.002  11.607  0.0444 -0.2692 -0.1227
    1loPI    C2    2  16.349  -0.345  11.640  0.2114 -0.1578  0.0823
    1loPI    C3    3  16.243  -0.143  11.969  0.1028 -0.0207 -0.0358
    1loPI   PO4    4  16.193  -0.029  11.252  0.0749  0.0474  0.1686
    1loPI   GL1    5  16.236   0.107  10.841 -0.0815  0.2905 -0.0168
    1loPI   GL2    6  16.395   0.434  10.866  0.3169 -0.1279 -0.1486
    1loPI   C1A    7  16.153  -0.213  10.534 -0.0579  0.1139 -0.1520
    1loPI   C2A    8  16.050  -0.283  10.093  0.0529  0.0752  0.0600
    1loPI   C3A    9  16.070  -0.323   9.635 -0.2667  0.1415  0.2337
    1loPI   C4A   10  15.967  -0.286   9.306 -0.0710 -0.1620  0.1380
    1loPI   C5A   11  15.880  -0.310   8.921  0.1185  0.0154  0.2431
    1loPI   C6A   12  16.075  -0.080   8.621  0.1189 -0.1738  0.0539
    1loPI   C1B   13  16.317   0.302  10.406 -0.1311 -0.0023 -0.1746
    1loPI   C2B   14  16.305   0.119   9.904  0.0468 -0.1543  0.0225
    1loPI   C3B   15  16.359   0.042   9.510 -0.0542 -0.0172 -0.2948
    1loPI   C4B   16  16.238   0.065   9.079  0.1075 -0.1156  0.1734
    2loPI    C1   17  14.002   2.467  11.041  0.0702  0.0939 -0.3252
    2loPI    C2   18  13.980   2.865  11.074  0.0023  0.0569  0.1335
    2loPI    C3   19  14.237   2.659  11.301 -0.1060 -0.1800  0.0440
    2loPI   PO4   20  13.967   2.428  10.748  0.1727  0.1679 -0.1757
    2loPI   GL1   21  14.165   2.415  10.387 -0.2983 -0.3798  0.2022
    2loPI   GL2   22  14.343   2.094  10.296  0.2351 -0.1260  0.2111
    2loPI   C1A   23  14.104   2.521   9.980  0.1629 -0.3454  0.1682
    2loPI   C2A   24  14.096   2.416   9.551 -0.0082  0.1472  0.2598
    2loPI   C3A   25  14.081   2.461   9.090  0.1315  0.1860  0.0241
    2loPI   C4A   26  14.293   2.577   8.672  0.1178 -0.1182 -0.1649
    2loPI   C5A   27  14.499   2.983   8.557  0.0348  0.1158  0.0128
    2loPI   C6A   28  14.682   3.372   8.453 -0.2694 -0.2312  0.2351
    2loPI   C1B   29  14.232   2.029   9.884 -0.0438 -0.0395 -0.0924
    2loPI   C2B   30  14.284   1.967   9.393 -0.2455 -0.0495  0.1580
    2loPI   C3B   31  14.347   2.092   8.906 -0.1825 -0.2141 -0.1430
    2loPI   C4B   32  14.206   2.028   8.551  0.1447  0.2956  0.0011
    3loPI    C1   33  15.227  16.516  11.239  0.0377 -0.0457 -0.0363
    3loPI    C2   34  15.116  16.135  11.290 -0.1281  0.0243  0.1400
    3loPI    C3   35  14.850  16.430  11.342  0.0139  0.1679  0.0632
    3loPI   PO4   36  15.305  16.548  11.042 -0.0417 -0.0567  0.0146
    3loPI   GL1   37  15.497  16.428  10.608 -0.3804 -0.2022  0.2962
    3loPI   GL2   38  15.821  16.321  10.563  0.0030  0.3596  0.1815
    3loPI   C1A   39  15.452  16.529  10.218 -0.0527  0.1908  0.2842
    3loPI   C2A   40  15.438  16.735   9.857 -0.0122  0.4873 -0.0540
    3loPI   C3A   41  15.505  16.618   9.421  0.2506  0.3440  0.0667
    3loPI   C4A   42  15.555  16.608   8.996 -0.4376 -0.1841 -0.2704
    3loPI   C5A   43  15.233  16.697   8.750 -0.3558  0.1790 -0.1548
    3loPI   C6A   44  14.827  16.641   8.653 -0.0138 -0.0300 -0.1855
    3loPI   C1B   45  15.755  16.127  10.217 -0.1746 -0.0116 -0.3559
    3loPI   C2B   46  15.666  16.161   9.892 -0.1315 -0.1821  0.4885
    3loPI   C3B   47  15.774  16.203   9.503 -0.1986  0.1212 -0.1592
    3loPI   C4B   48  15.706  16.120   9.027  0.0220  0.1573 -0.2204
    4loPI    C1   49   9.905   1.525  11.132 -0.0437  0.1477  0.1032
    4loPI    C2   50   9.618   1.339  11.338  0.2584 -0.1517  0.2640
    4loPI    C3   51   9.787   1.670  11.486  0.1871 -0.1302  0.2984
    4loPI   PO4   52   9.941   1.364  10.936 -0.3588 -0.2590 -0.0508
    4loPI   GL1   53   9.894   1.260  10.520  0.2357 -0.0580  0.2963
    4loPI   GL2   54  10.244   1.168  10.509 -0.1342  0.2693  0.4626
    4loPI   C1A   55   9.853   1.239  10.006 -0.0307 -0.0584  0.0060
    4loPI   C2A   56   9.753   1.353   9.578 -0.3135 -0.0969 -0.0672
    4loPI   C3A   57   9.756   1.254   9.125  0.0884 -0.1786 -0.2043
    4loPI   C4A   58   9.765   1.207   8.681  0.2041  0.1524 -0.2432
    4loPI   C5A   59   9.545   1.197   8.243  0.1463 -0.1595 -0.2501
    4loPI   C6A   60   9.211   1.393   8.061 -0.1424 -0.1011  0.3328
    4loPI   C1B   61  10.326   1.262  10.017 -0.0107  0.0869 -0.1107
    4loPI   C2B   62  10.268   1.248   9.647 -0.2316 -0.0694 -0.1567
    4loPI   C3B   63  10.235   1.274   9.287  0.1373  0.1445  0.1878
    4loPI   C4B   64  10.237   1.235   8.860 -0.1513 -0.1119 -0.3920
    5loPI    C1   65   8.063   5.608  11.313  0.0857 -0.0912  0.1852
    5loPI    C2   66   8.378   5.468  11.515 -0.0688 -0.2945  0.2890
    5loPI    C3   67   8.075   5.639  11.712  0.1638  0.2946  0.1569
    5loPI   PO4   68   8.013   5.500  11.121 -0.1698  0.0825 -0.0668
    5loPI   GL1   69   7.900   5.656  10.626 -0.0020  0.2488 -0.1036
    5loPI   GL2   70   8.105   5.813  10.445 -0.1562  0.0936 -0.1716
    5loPI   C1A   71   7.646   5.624  10.265 -0.1014  0.1920 -0.0190
    5loPI   C2A   72   7.606   5.636   9.787  0.0915 -0.1295 -0.1119
    5loPI   C3A   73   7.559   5.591   9.383  0.0725  0.0397  0.0704
    5loPI   C4A   74   7.546   5.579   8.918 -0.2595 -0.2590  0.1476
    5loPI   C5A   75   7.601   5.718   8.451  0.1802 -0.0765 -0.3914
    5loPI   C6A   76   7.973   5.558   8.237  0.0102  0.0598 -0.0809
    5loPI   C1B   77   8.170   5.782  10.044  0.1381 -0.1021  0.2100
    5loPI   C2B   78   8.064   5.728   9.617  0.1842  0.1899  0.1314
    5loPI   C3B   79   8.083   5.667   9.210  0.0863 -0.2147 -0.2241
    5loPI   C4B   80   8.088   5.662   8.736 -0.1106  0.2994 -0.1141
    6loPI    C1   81   7.232   0.688  10.678  0.0646  0.0552  0.0348
    6loPI    C2   82   7.216   0.326  10.508 -0.0806  0.0836 -0.0134
    6loPI    C3   83   7.176   0.364  10.904 -0.0212  0.0428 -0.0035
    6loPI   PO4   84   7.419   0.770  10.586 -0.1647  0.0714  0.1839
    6loPI   GL1   85   7.659   0.512  10.264 -0.0021 -0.0537 -0.4124
    6loPI   GL2   86   7.497   0.787  10.039 -0.0034 -0.1338  0.0936
    6loPI   C1A   87   7.664   0.300   9.922 -0.0318  0.0200 -0.1416
    6loPI   C2A   88   7.604   0.294   9.439 -0.2060 -0.1620 -0.3572
    6loPI   C3A   89   7.675   0.217   8.982  0.2869 -0.0506  0.1600
    6loPI   C4A   90   7.713   0.129   8.502  0.0935 -0.0461  0.1242
    6loPI   C5A   91   7.458   0.303   8.212 -0.1414  0.0427 -0.0401
    6loPI   C6A   92   7.076   0.415   8.018 -0.0215  0.1463  0.0402
    6loPI   C1B   93   7.405   0.723   9.593 -0.2289 -0.2830  0.2563
    6loPI   C2B   94   7.423   0.649   9.114  0.4796  0.2127  0.0292
    6loPI   C3B   95   7.253   0.413   8.715 -0.2355  0.0359  0.0545
    6loPI   C4B   96   6.808   0.580   8.482 -0.0434 -0.0252  0.2289
    7loPI    C1   97   2.918   7.946  11.096  0.1566  0.0492  0.1309
    7loPI    C2   98   3.054   8.238  11.333  0.0375 -0.0865  0.3706
    7loPI    C3   99   2.685   8.094  11.386 -0.1344  0.1419 -0.1450
    7loPI   PO4  100   3.188   7.786  11.002 -0.0092 -0.0426 -0.0319
    7loPI   GL1  101   3.446   7.924  10.734 -0.1258  0.0236 -0.1979
    7loPI   GL2  102   3.814   7.799  10.523  0.0366 -0.0199 -0.1951
    7loPI   C1A  103   3.144   8.119  10.479  0.1249 -0.0452  0.2273
    7loPI   C2A  104   3.108   8.127   9.969  0.1197 -0.1431 -0.0537
    7loPI   C3A  105   3.226   8.137   9.621  0.0546 -0.1658  0.2315
    7loPI   C4A  106   3.137   8.162   9.225 -0.1326 -0.2143  0.1655
    7loPI   C5A  107   3.092   7.958   8.935  0.1042  0.1672  0.0602
    7loPI   C6A  108   2.932   7.617   8.616  0.0982  0.0438 -0.0809
    7loPI   C1B  109   4.000   7.790  10.113 -0.2815 -0.1451  0.2532
    7loPI   C2B  110   3.969   7.755   9.705  0.1500  0.1512  0.0543
    7loPI   C3B  111   4.059   7.817   9.233  0.2058  0.3584 -0.0127
    7loPI   C4B  112   4.182   7.810   8.795 -0.1757  0.4777 -0.1668
    8loPI    C1  113   0.580  13.201  11.304  0.1232 -0.2093  0.0274
    8loPI    C2  114   0.819  13.353  11.585  0.1324  0.1915 -0.1900
    8loPI    C3  115   0.424  13.347  11.642  0.1692 -0.2503  0.0666
    8loPI   PO4  116   0.746  13.050  11.118  0.0716 -0.3540  0.3678
    8loPI   GL1  117   0.847  12.748  10.696 -0.1938 -0.0050  0.1504
    8loPI   GL2  118   1.196  12.641  10.595  0.0833 -0.1165 -0.0665
    8loPI   C1A  119   0.711  12.599  10.320 -0.0385 -0.1471  0.2617
    8loPI   C2A  120   0.750  12.575   9.848 -0.2137 -0.1068 -0.1937
    8loPI   C3A  121   0.852  12.515   9.394 -0.1218  0.0834 -0.1318
    8loPI   C4A  122   0.938  12.399   8.980  0.0409  0.2155 -0.1825
    8loPI   C5A  123   1.092  12.135   8.739  0.1871 -0.1264 -0.2318
    8loPI   C6A  124   0.969  11.714   8.839 -0.1455 -0.2286 -0.1982
    8loPI   C1B  125   1.229  12.465  10.252 -0.1316 -0.0755 -0.0945
    8loPI   C2B  126   1.236  12.468   9.818  0.0977 -0.1640  0.2130
    8loPI   C3B  127   1.374  12.492   9.453  0.1118 -0.2025 -0.2055
    8loPI   C4B  128   1.465  12.431   9.081  0.4568  0.2607 -0.0694
    9loPI    C1  129   9.013   1.887  11.036 -0.0829  0.1026  0.1145
    9loPI    C2  130   9.389   1.816  11.155 -0.0562 -0.0037 -0.0307
    9loPI    C3  131   9.103   1.544  11.223 -0.0857  0.0317 -0.0131
    9loPI   PO4  132   9.053   1.964  10.740  0.0857  0.1283 -0.1693
    9loPI   GL1  133   9.174   1.703  10.437  0.1299  0.2233 -0.0188
    9loPI   GL2  134   9.216   1.332  10.309 -0.3035 -0.0970 -0.1234
    9loPI   C1A  135   9.446   1.822  10.110  0.2597 -0.1015  0.0448
    9loPI   C2A  136   9.462   1.817   9.595 -0.3908 -0.1904  0.1232
    9loPI   C3A  137   9.453   1.687   9.211 -0.4702 -0.0475  0.0084
    9loPI   C4A  138   9.403   1.748   8.790  0.3977 -0.0041 -0.0840
    9loPI   C5A  139   9.419   1.718   8.375 -0.0750 -0.0902  0.0888
    9loPI   C6A  140   9.269   1.853   7.897  0.0655  0.1871  0.1888
    9loPI   C1B  141   9.268   1.381   9.945  0.0782  0.3898  0.1407
    9loPI   C2B  142   9.230   1.373   9.523  0.2755  0.0549  0.0786
    9loPI   C3B  143   9.251   1.229   9.058  0.1391  0.0174  0.1278
    9loPI   C4B  144   9.163   1.285   8.587 -0.1465  0.1086  0.3250
   10loPI    C1  145  10.717  15.602  10.586 -0.0292 -0.1539  0.0704
   10loPI    C2  146  11.089  15.633  10.728 -0.0159 -0.1077  0.0260
   10loPI    C3  147  10.800  15.480  10.958 -0.0518  0.2115  0.1988
   10loPI   PO4  148  10.607  15.832  10.542 -0.2642  0.0832  0.2222
   10loPI   GL1  149  10.317  15.974  10.240 -0.0440  0.1598 -0.0063
   10loPI   GL2  150  10.057  16.175  10.187  0.1050 -0.0517 -0.2966
   10loPI   C1A  151  10.540  16.094   9.968  0.2697  0.2668  0.0914
   10loPI   C2A  152  10.578  16.208   9.493 -0.1444  0.0555  0.3084
   10loPI   C3A  153  10.534  16.114   9.096 -0.0893 -0.1612  0.0440
   10loPI   C4A  154  10.568  16.084   8.719 -0.1226 -0.3768  0.0858
   10loPI   C5A  155  10.655  16.076   8.308  0.1021 -0.3850 -0.1601
   10loPI   C6A  156  10.528  16.285   7.983 -0.0605  0.0210 -0.0488
   10loPI   C1B  157  10.100  16.019   9.734 -0.0531 -0.0813 -0.2545
   10loPI   C2B  158  10.076  16.034   9.399 -0.1433  0.1729 -0.3192
   10loPI   C3B  159  10.024  16.065   8.904  0.1110 -0.0604 -0.0568
   10loPI   C4B  160  10.158  16.103   8.445  0.1754 -0.0339 -0.1166
   11loPI    C1  161  11.333  16.152  10.903 -0.0087  0.0571 -0.2390
   11loPI    C2  162  11.255  16.333  11.251  0.1851  0.0206 -0.1753
   11loPI    C3  163  11.206  16.531  10.907  0.1501  0.1100 -0.1191
   11loPI   PO4  164  11.504  15.955  10.951 -0.1876 -0.2111 -0.1429
   11loPI   GL1  165  11.633  15.778  10.697 -0.0536  0.0208 -0.1169
   11loPI   GL2  166  11.752  16.015  10.519 -0.0175  0.1245 -0.0594
   11loPI   C1A  167  11.851  15.527  10.320 -0.0321  0.0602 -0.2000
   11loPI   C2A  168  11.821  15.363   9.838 -0.1792  0.0701 -0.1237
   11loPI   C3A  169  11.657  15.475   9.359 -0.0424 -0.2402 -0.0894
   11loPI   C4A  170  11.888  15.655   8.919  0.4446  0.1844  0.1008
   11loPI   C5A  171  12.304  15.534   8.667 -0.0937 -0.2210  0.1148
   11loPI   C6A  172  12.660  15.390   8.436 -0.0979  0.1417 -0.0227
   11loPI   C1B  173  11.843  16.176  10.182  0.3510  0.0852  0.0694
   11loPI   C2B  174  11.699  16.331   9.805 -0.3415 -0.1072  0.3107
   11loPI   C3B  175  11.559  16.379   9.375  0.0262 -0.0461  0.2344
   11loPI   C4B  176  11.326  16.534   9.071  0.1823  0.1810 -0.0510
   12loPI    C1  177  11.581   1.788  11.179  0.0512  0.1388  0.0762
   12loPI    C2  178  11.886   1.838  11.433 -0.0175  0.1000  0.1670
   12loPI    C3  179  11.534   1.704  11.568  0.0334 -0.2073  0.0022
   12loPI   PO4  180  11.638   1.647  10.929  0.1213 -0.0826 -0.0367
   12loPI   GL1  181  11.581   1.373  10.570  0.1552 -0.2344  0.1455
   12loPI   GL2  182  11.287   1.263  10.552  0.0046 -0.3765  0.1714
   12loPI   C1A  183  11.773   1.231  10.230  0.0922  0.0301  0.0510
   12loPI   C2A  184  11.735   1.259   9.759 -0.2750 -0.2360  0.1248
   12loPI   C3A  185  11.753   1.171   9.295 -0.3616  0.2794  0.0862
   12loPI   C4A  186  11.717   1.335   8.887  0.1382  0.1001  0.0023
   12loPI   C5A  187  11.625   1.290   8.519  0.0513  0.1133  0.0898
   12loPI   C6A  188  11.581   1.284   8.138 -0.0902 -0.1423  0.2417
   12loPI   C1B  189  11.262   1.367  10.170 -0.1374 -0.1478  0.0958
   12loPI   C2B  190  11.232   1.307   9.655 -0.0224  0.0538  0.0914
   12loPI   C3B  191  11.270   1.244   9.188  0.2528 -0.0045 -0.2892
   12loPI   C4B  192  11.185   1.381   8.779  0.0577  0.0465  0.0283
   13loPI    C1  193  14.157  16.115  11.621 -0.0326  0.2339  0.0770
   13loPI    C2  194  14.524  16.209  11.752 -0.0505  0.1881  0.1603
   13loPI    C3  195  14.322  15.907  11.921  0.0495 -0.0732 -0.1747
   13loPI   PO4  196  14.194  16.091  11.344 -0.2928  0.0272  0.1663
   13loPI   GL1  197  14.436  16.221  11.050  0.0013 -0.1181 -0.0099
   13loPI   GL2  198  14.272  16.037  10.830 -0.3051  0.0256 -0.1227
   13loPI   C1A  199  14.486  16.427  10.693  0.0661 -0.0828 -0.0313
   13loPI   C2A  200  14.523  16.615  10.290 -0.0228  0.3814  0.0235
   13loPI   C3A  201  14.506  16.657   9.842  0.0692 -0.2004 -0.1564
   13loPI   C4A  202  14.500  16.839   9.395 -0.1943 -0.3183 -0.0249
   13loPI   C5A  203  14.401  16.776   8.912 -0.3411  0.0681 -0.0235
   13loPI   C6A  204  14.334  16.865   8.495 -0.1301 -0.0893 -0.0536
   13loPI   C1B  205  14.214  16.166  10.358  0.0723  0.1104  0.2704
   13loPI   C2B  206  14.140  16.223   9.933  0.0602 -0.0055  0.0312
   13loPI   C3B  207  14.173  16.336   9.549  0.1776 -0.0788 -0.0813
   13loPI   C4B  208  14.168  16.359   9.112  0.0045 -0.0992 -0.0764
   14loPI    C1  209  17.484   2.605  11.340 -0.1166 -0.1222  0.0920
   14loPI    C2  210  17.355   2.229  11.301  0.1708 -0.2172  0.0331
   14loPI    C3  211  17.460   2.367  11.661 -0.2305 -0.0908  0.1074
   14loPI   PO4  212  17.595   2.621  11.083 -0.0531 -0.2003  0.0263
   14loPI   GL1  213  17.833   2.798  10.643 -0.1679  0.0099  0.0448
   14loPI   GL2  214  18.162   2.822  10.439 -0.0262 -0.2812 -0.1784
   14loPI   C1A  215  17.730   2.778  10.166 -0.0133  0.1244  0.1938
   14loPI   C2A  216  17.683   2.660   9.806  0.2930 -0.0903 -0.1903
   14loPI   C3A  217  17.527   2.704   9.344  0.1291 -0.0538 -0.3240
   14loPI   C4A  218  17.480   2.618   8.913  0.1255 -0.0501 -0.2576
   14loPI   C5A  219  17.493   2.715   8.625  0.1293  0.1664 -0.0133
   14loPI   C6A  220  17.318   2.948   8.260  0.0932  0.1514  0.2404
   14loPI   C1B  221  18.232   2.654  10.153  0.0534  0.3773  0.0440
   14loPI   C2B  222  18.229   2.650   9.716  0.1751  0.2165 -0.0687
   14loPI   C3B  223  18.035   2.635   9.317 -0.1470  0.1765 -0.4262
   14loPI   C4B  224  18.007   2.594   8.847  0.1836  0.0540  0.0283
   15loPI    C1  225   5.231  14.736  10.957 -0.0869  0.1956 -0.0599
   15loPI    C2  226   5.177  14.942  11.295 -0.4749 -0.1066  0.0694
   15loPI    C3  227   5.252  14.549  11.310 -0.0007 -0.0326 -0.1835
   15loPI   PO4  228   5.030  14.829  10.698 -0.1136 -0.2327 -0.1137
   15loPI   GL1  229   4.810  14.835  10.189  0.0802 -0.1872 -0.2550
   15loPI   GL2  230   5.138  14.847  10.176  0.1240  0.1427 -0.3892
   15loPI   C1A  231   4.725  14.761   9.813 -0.0842 -0.0597  0.0625
   15loPI   C2A  232   4.757  14.810   9.394 -0.0217  0.0343  0.2149
   15loPI   C3A  233   4.715  14.851   8.978  0.1235 -0.2683  0.2606
   15loPI   C4A  234   4.717  14.974   8.484 -0.0244  0.0056  0.3186
   15loPI   C5A  235   4.882  14.852   8.085 -0.2367  0.0456 -0.1302
   15loPI   C6A  236   4.943  14.716   7.713  0.1092 -0.0782 -0.1598
   15loPI   C1B  237   5.212  14.833   9.719 -0.4464  0.0212 -0.0401
   15loPI   C2B  238   5.266  14.956   9.248  0.3364 -0.5267 -0.3675
   15loPI   C3B  239   5.323  14.974   8.821  0.0765  0.0441  0.2629
   15loPI   C4B  240   5.422  15.032   8.425 -0.2312 -0.4238  0.0857
   16loPI    C1  241  11.316   5.859  10.957  0.0789  0.0331  0.1078
   16loPI    C2  242  11.637   6.032  11.122 -0.0272 -0.1526  0.5207
   16loPI    C3  243  11.270   6.157  11.220 -0.0870  0.1256 -0.0245
   16loPI   PO4  244  11.355   5.854  10.703 -0.0691 -0.0318  0.1346
   16loPI   GL1  245  11.381   5.828  10.323 -0.1015 -0.5777  0.2664
   16loPI   GL2  246  11.699   5.631  10.396  0.2399 -0.0400 -0.1653
   16loPI   C1A  247  11.416   5.773   9.896 -0.0627  0.0760  0.4260
   16loPI   C2A  248  11.111   5.616   9.603 -0.0568  0.0519 -0.1098
   16loPI   C3A  249  11.152   5.273   9.357 -0.0231 -0.1067 -0.0458
   16loPI   C4A  250  11.260   5.298   8.902 -0.1941 -0.0502  0.0646
   16loPI   C5A  251  11.188   5.470   8.452 -0.2050  0.1289 -0.1850
   16loPI   C6A  252  11.516   5.640   8.135  0.0482  0.0627 -0.2778
   16loPI   C1B  253  11.895   5.864  10.123 -0.0479 -0.0041 -0.0330
   16loPI   C2B  254  11.881   5.749   9.696  0.2695  0.2179  0.0179
   16loPI   C3B  255  11.993   5.732   9.218 -0.1802  0.2981  0.0502
   16loPI   C4B  256  12.091   5.577   8.852  0.1332 -0.1911  0.0098
   17loPI    C1  257  13.455   3.790  11.671 -0.1017  0.1589 -0.2195
   17loPI    C2  258  13.404   3.606  12.023  0.1507 -0.1611 -0.3445
   17loPI    C3  259  13.406   4.006  12.004 -0.0683 -0.1409 -0.0160
   17loPI   PO4  260  13.338   3.723  11.464  0.0310 -0.1218  0.0973
   17loPI   GL1  261  13.330   3.652  11.025 -0.1674 -0.2535 -0.1194
   17loPI   GL2  262  13.226   3.483  10.739 -0.1393 -0.3628 -0.1134
   17loPI   C1A  263  13.632   3.501  10.455 -0.1552 -0.2201  0.0155
   17loPI   C2A  264  13.637   3.323  10.048  0.1011 -0.2485  0.2259
   17loPI   C3A  265  13.655   3.399   9.581  0.1519  0.0374  0.3171
   17loPI   C4A  266  13.688   3.382   9.118  0.0448 -0.0662  0.0754
   17loPI   C5A  267  13.686   3.247   8.634 -0.0192 -0.1744  0.1455
   17loPI   C6A  268  13.993   3.038   8.392  0.0503  0.2484  0.0419
   17loPI   C1B  269  13.096   3.434  10.299  0.0666  0.0086 -0.1987
   17loPI   C2B  270  13.207   3.434   9.811  0.1920 -0.0017  0.3909
   17loPI   C3B  271  13.123   3.474   9.370  0.0223  0.0959  0.0049
   17loPI   C4B  272  13.114   3.431   8.937 -0.1850 -0.2853  0.1086
   18loPI    C1  273   8.396   5.176  11.088  0.2157 -0.0348 -0.0595
   18loPI    C2  274   8.579   4.969  11.377  0.1829  0.1275  0.0792
   18loPI    C3  275   8.181   5.010  11.381  0.1562 -0.0899 -0.1343
   18loPI   PO4  276   8.461   5.121  10.853  0.2229  0.0207 -0.0045
   18loPI   GL1  277   8.307   5.372  10.471 -0.1855 -0.1312  0.0148
   18loPI   GL2  278   8.038   5.295  10.270  0.0721  0.1048  0.3818
   18loPI   C1A  279   8.478   5.264  10.072  0.1944  0.0507  0.0041
   18loPI   C2A  280   8.380   5.355   9.783  0.0191 -0.0342 -0.0841
   18loPI   C3A  281   8.376   5.276   9.364 -0.2070  0.2636  0.0520
   18loPI   C4A  282   8.398   5.280   8.979 -0.0516  0.0431 -0.5181
   18loPI   C5A  283   8.395   5.276   8.630  0.0505  0.0577  0.1300
   18loPI   C6A  284   8.380   5.260   8.261 -0.2376 -0.0944 -0.0440
   18loPI   C1B  285   7.928   5.268   9.855  0.1294 -0.2619  0.0049
   18loPI   C2B  286   7.873   5.237   9.479 -0.0533 -0.0179 -0.4057
   18loPI   C3B  287   7.959   5.097   9.103 -0.3595 -0.0374 -0.4310
   18loPI   C4B  288   7.872   5.227   8.652 -0.0725  0.1031 -0.0695
   19loPI    C1  289  11.834  11.795  11.067 -0.1618  0.0998  0.0963
   19loPI    C2  290  11.780  11.439  11.242 -0.0253 -0.1070 -0.2700
   19loPI    C3  291  11.467  11.680  11.176 -0.0644  0.0291  0.3551
   19loPI   PO4  292  12.029  11.736  10.831  0.0956  0.1450 -0.3253
   19loPI   GL1  293  11.916  11.772  10.438  0.0444 -0.2015  0.3008
   19loPI   GL2  294  12.073  11.467  10.434 -0.1288  0.0526 -0.0942
   19loPI   C1A  295  11.794  11.753  10.051 -0.1116 -0.0280  0.4279
   19loPI   C2A  296  11.793  11.735   9.546  0.1567  0.1082  0.2298
   19loPI   C3A  297  11.867  11.653   9.162 -0.0119 -0.0573 -0.0739
   19loPI   C4A  298  11.720  11.642   8.741  0.1066 -0.3112 -0.2440
   19loPI   C5A  299  11.552  11.862   8.443 -0.1606  0.0616  0.0122
   19loPI   C6A  300  11.468  12.329   8.392 -0.1730  0.0454  0.2011
   19loPI   C1B  301  12.120  11.340  10.029 -0.2702 -0.0279  0.4018
   19loPI   C2B  302  12.140  11.312   9.570  0.0827  0.1328 -0.0147
   19loPI   C3B  303  12.197  11.173   9.142  0.1029  0.1142 -0.0530
   19loPI   C4B  304  12.160  11.449   8.832 -0.0446  0.0017 -0.0845
   20loPI    C1  305   9.569  17.397  11.084  0.1174 -0.1838 -0.1655
   20loPI    C2  306   9.746  17.748  11.156 -0.0522 -0.1510  0.1058
   20loPI    C3  307   9.807  17.439  11.402 -0.2486 -0.1838  0.1148
   20loPI   PO4  308   9.511  17.358  10.816 -0.0599 -0.0055  0.3164
   20loPI   GL1  309   9.747  17.357  10.444  0.2050 -0.0974 -0.1469
   20loPI   GL2  310   9.531  17.611  10.353 -0.0743 -0.1461 -0.1186
   20loPI   C1A  311   9.717  17.346   9.953 -0.0150 -0.3478 -0.3188
   20loPI   C2A  312   9.806  17.344   9.461 -0.0583  0.4128 -0.0781
   20loPI   C3A  313   9.719  17.372   9.075 -0.2625 -0.0372 -0.3319
   20loPI   C4A  314   9.704  17.270   8.620 -0.1446  0.0686 -0.2180
   20loPI   C5A  315   9.746  17.423   8.210  0.2591 -0.4026  0.1362
   20loPI   C6A  316   9.755  17.619   7.824  0.3800  0.0743 -0.1162
   20loPI   C1B  317   9.427  17.786   9.981  0.1143 -0.4667  0.2464
   20loPI   C2B  318   9.517  17.792   9.526  0.1023 -0.0954 -0.0499
   20loPI   C3B  319   9.441  17.814   9.009  0.1068  0.3525 -0.1393
   20loPI   C4B  320   9.271  17.678   8.570  0.0251 -0.0009  0.1595
   21loPI    C1  321   2.285  14.763  10.539 -0.0345  0.1261  0.1504
   21loPI    C2  322   1.967  14.658  10.758 -0.2052  0.0209 -0.1432
   21loPI    C3  323   2.334  14.632  10.914 -0.3006 -0.3393  0.0304
   21loPI   PO4  324   2.179  15.000  10.426  0.0497  0.3674  0.2535
   21loPI   GL1  325   1.974  15.072  10.026  0.0407 -0.0121  0.1465
   21loPI   GL2  326   2.271  15.269  10.037 -0.4795  0.3425  0.2147
   21loPI   C1A  327   2.141  14.895   9.669 -0.2362  0.3060 -0.0246
   21loPI   C2A  328   2.184  14.675   9.327 -0.1537  0.1695 -0.0636
   21loPI   C3A  329   2.159  14.584   8.880  0.0184  0.1677  0.2350
   21loPI   C4A  330   2.109  14.529   8.462  0.1860  0.1556 -0.0293
   21loPI   C5A  331   2.029  14.332   8.024  0.2306  0.0926  0.1251
   21loPI   C6A  332   2.321  14.201   7.762 -0.1554  0.0692  0.2285
   21loPI   C1B  333   2.435  15.537   9.720 -0.1049 -0.3072 -0.1762
   21loPI   C2B  334   2.582  15.833   9.421 -0.1572  0.0099 -0.2884
   21loPI   C3B  335   2.492  15.891   9.004 -0.3522 -0.0154  0.2288
   21loPI   C4B  336   2.586  15.826   8.575  0.1273  0.2151 -0.0794
   22loPI    C1  337   1.210  17.393  10.784  0.0292 -0.0468 -0.1076
   22loPI    C2  338   1.361  17.606  11.087  0.0566 -0.0638 -0.1094
   22loPI    C3  339   1.009  17.421  11.129  0.0063  0.0274 -0.1270
   22loPI   PO4  340   1.311  17.476  10.610 -0.2459 -0.2380 -0.1205
   22loPI   GL1  341   1.470  17.252  10.339  0.0628 -0.1223  0.1356
   22loPI   GL2  342   1.752  17.132  10.377 -0.0637  0.0650  0.1851
   22loPI   C1A  343   1.281  17.345   9.951  0.3152 -0.0986  0.0528
   22loPI   C2A  344   1.298  17.284   9.495  0.0811  0.2461 -0.0733
   22loPI   C3A  345   1.433  17.191   9.132 -0.1293  0.1953  0.0641
   22loPI   C4A  346   1.445  17.319   8.615  0.0883  0.2396 -0.2368
   22loPI   C5A  347   1.328  17.534   8.352 -0.1810  0.1863 -0.0539
   22loPI   C6A  348   1.075  17.734   8.217  0.1605  0.1408  0.0305
   22loPI   C1B  349   1.622  16.949   9.987  0.0757  0.0585  0.1457
   22loPI   C2B  350   1.582  16.866   9.580  0.1932  0.1247  0.0790
   22loPI   C3B  351   1.702  16.797   9.210  0.0276 -0.0345  0.3281
   22loPI   C4B  352   1.575  16.800   8.717 -0.4019 -0.3313  0.2377
   23loPI    C1  353   8.111   8.245  11.055 -0.1961 -0.0383  0.1135
   23loPI    C2  354   7.861   7.979  10.893 -0.0527 -0.1168  0.0195
   23loPI    C3  355   7.906   7.995  11.290 -0.1188 -0.1817  0.0298
   23loPI   PO4  356   8.120   8.408  10.799  0.5044 -0.1519  0.6717
   23loPI   GL1  357   8.188   8.466  10.399 -0.1351  0.3285  0.3554
   23loPI   GL2  358   7.882   8.367  10.307  0.1298  0.4095 -0.1730
   23loPI   C1A  359   8.240   8.439   9.915  0.0188 -0.0523 -0.1771
   23loPI   C2A  360   8.233   8.398   9.526 -0.0887 -0.2127 -0.0250
   23loPI   C3A  361   8.086   8.394   9.073 -0.3612  0.0326 -0.2704
   23loPI   C4A  362   8.190   8.458   8.594  0.1248 -0.0993 -0.1628
   23loPI   C5A  363   8.446   8.156   8.445  0.1770 -0.3718 -0.4363
   23loPI   C6A  364   8.813   8.073   8.176 -0.1694  0.5055  0.1782
   23loPI   C1B  365   7.700   8.306   9.936 -0.1054 -0.1212 -0.2012
   23loPI   C2B  366   7.646   8.321   9.565 -0.2386  0.1738  0.1223
   23loPI   C3B  367   7.563   8.267   9.101 -0.0426 -0.0097  0.0766
   23loPI   C4B  368   7.692   8.372   8.692 -0.0307  0.3259  0.0328
   24loPI    C1  369   9.062   4.275  11.102  0.0207 -0.0575  0.0602
   24loPI    C2  370   9.372   4.375  11.334 -0.0046 -0.0775  0.1030
   24loPI    C3  371   9.015   4.305  11.498 -0.0593  0.0554  0.0425
   24loPI   PO4  372   9.103   4.419  10.882 -0.0073 -0.1478 -0.0321
   24loPI   GL1  373   9.053   4.396  10.472  0.0148  0.2848 -0.2199
   24loPI   GL2  374   9.324   4.273  10.358  0.0174  0.0287 -0.4237
   24loPI   C1A  375   8.982   4.554  10.160 -0.1696 -0.0519 -0.0951
   24loPI   C2A  376   8.746   4.849   9.981 -0.1613  0.2535 -0.0935
   24loPI   C3A  377   8.755   4.910   9.552  0.1498 -0.0059 -0.2153
   24loPI   C4A  378   8.701   4.857   9.113  0.2516  0.0254  0.1468
   24loPI   C5A  379   8.692   4.836   8.697  0.1005  0.0040  0.0520
   24loPI   C6A  380   8.736   4.460   8.537  0.0177  0.1296 -0.0150
   24loPI   C1B  381   9.226   4.209   9.919 -0.1065 -0.1423 -0.0460
   24loPI   C2B  382   9.049   4.523   9.657  0.1549 -0.1958 -0.1635
   24loPI   C3B  383   9.029   4.517   9.218 -0.5176 -0.2527 -0.0306
   24loPI   C4B  384   9.090   4.488   8.835 -0.1315  0.0706  0.1746
   25loPI    C1  385  16.757   0.328  11.298  0.1568  0.0208 -0.0500
   25loPI    C2  386  17.006   0.229  11.595 -0.0641 -0.0146  0.1261
   25loPI    C3  387  16.614   0.153  11.628 -0.1034  0.0618 -0.1380
   25loPI   PO4  388  16.758   0.161  11.112 -0.1452 -0.2136  0.0718
   25loPI   GL1  389  16.703   0.104  10.647  0.1267  0.1046 -0.1023
   25loPI   GL2  390  16.704  -0.175  10.729  0.2732 -0.2099 -0.1577
   25loPI   C1A  391  16.858   0.093  10.205 -0.0529 -0.1982 -0.0968
   25loPI   C2A  392  16.895   0.144   9.670  0.3262 -0.1649 -0.1567
   25loPI   C3A  393  16.809  -0.022   9.217 -0.3086 -0.1744 -0.0272
   25loPI   C4A  394  16.798   0.064   8.847  0.0951 -0.1738  0.1031
   25loPI   C5A  395  16.842   0.099   8.546 -0.3205  0.0118  0.1602
   25loPI   C6A  396  16.932   0.094   8.147  0.1962 -0.0021  0.1867
   25loPI   C1B  397  16.607  -0.335  10.359 -0.0173 -0.0697  0.1273
   25loPI   C2B  398  16.557  -0.435   9.908  0.1179 -0.1062 -0.1632
   25loPI   C3B  399  16.611  -0.406   9.469  0.1656 -0.1470  0.1038
   25loPI   C4B  400  16.441  -0.372   8.969 -0.0535  0.0647 -0.1450
   26loPI    C1  401  16.687   7.091  11.166  0.2527 -0.1806 -0.0153
   26loPI    C2  402  16.536   6.803  11.399 -0.2020 -0.0919 -0.1906
   26loPI    C3  403  16.603   7.167  11.549 -0.0420 -0.1656 -0.0806
   26loPI   PO4  404  16.547   7.133  10.933 -0.0359 -0.0370  0.1559
   26loPI   GL1  405  16.714   7.038  10.519  0.1325  0.0617 -0.0992
   26loPI   GL2  406  16.819   6.722  10.452  0.1261  0.1373 -0.0355
   26loPI   C1A  407  16.758   7.227  10.147 -0.4064  0.1330  0.3075
   26loPI   C2A  408  16.762   7.144   9.672 -0.0721 -0.0037 -0.1604
   26loPI   C3A  409  16.701   7.151   9.275  0.0659 -0.1641 -0.0517
   26loPI   C4A  410  16.681   7.191   8.855  0.0085 -0.0896 -0.0414
   26loPI   C5A  411  16.746   7.226   8.447  0.0024 -0.0103 -0.0972
   26loPI   C6A  412  16.602   7.028   8.090  0.0572  0.1689  0.1546
   26loPI   C1B  413  17.015   6.761   9.988 -0.4093 -0.1311  0.1853
   26loPI   C2B  414  17.037   6.771   9.489  0.2257 -0.2288  0.1432
   26loPI   C3B  415  16.939   6.726   9.051 -0.2560  0.1271 -0.3631
   26loPI   C4B  416  17.083   6.896   8.714  0.1706  0.1401  0.1555
   27loPI    C1  417  14.574   6.628  11.113  0.1939  0.1184  0.1261
   27loPI    C2  418  14.811   6.328  10.995  0.0192 -0.0853  0.2837
   27loPI    C3  419  14.787   6.424  11.383  0.1289  0.1831  0.2269
   27loPI   PO4  420  14.565   6.839  10.870 -0.2815 -0.0860  0.3933
   27loPI   GL1  421  14.436   6.879  10.509  0.1936 -0.0428  0.2096
   27loPI   GL2  422  14.753   6.992  10.327 -0.3875  0.3800  0.0084
   27loPI   C1A  423  14.302   6.970  10.074  0.1045 -0.0779 -0.1514
   27loPI   C2A  424  14.464   6.960   9.729 -0.0720  0.0078 -0.3416
   27loPI   C3A  425  14.443   6.902   9.278  0.0087 -0.2244 -0.1989
   27loPI   C4A  426  14.373   6.842   8.847  0.2880 -0.2303 -0.0973
   27loPI   C5A  427  14.270   6.962   8.400  0.1720 -0.2460  0.0305
   27loPI   C6A  428  14.409   6.860   8.070 -0.0451 -0.2576  0.1438
   27loPI   C1B  429  14.854   6.883   9.971  0.2409  0.1276  0.0673
   27loPI   C2B  430  14.912   6.818   9.467 -0.1117  0.2234  0.0502
   27loPI   C3B  431  14.899   6.791   8.903 -0.2897  0.2076  0.1735
   27loPI   C4B  432  14.726   6.775   8.436  0.0917 -0.0192 -0.2428
   28loPI    C1  433   9.007  13.347  10.844 -0.0482 -0.1661 -0.1519
   28loPI    C2  434   9.296  13.175  10.627  0.0488  0.2570 -0.3691
   28loPI    C3  435   9.382  13.334  10.984 -0.0110 -0.0063 -0.2346
   28loPI   PO4  436   8.749  13.187  10.814 -0.2214 -0.0189 -0.1458
   28loPI   GL1  437   8.642  13.060  10.482  0.1282  0.1366  0.3550
   28loPI   GL2  438   8.860  13.193  10.329  0.0109  0.0304  0.0542
   28loPI   C1A  439   8.417  13.094  10.027  0.0503  0.1024  0.3674
   28loPI   C2A  440   8.516  13.110   9.581 -0.2930 -0.2040 -0.0321
   28loPI   C3A  441   8.535  13.107   9.094 -0.0395  0.2690  0.1363
   28loPI   C4A  442   8.443  13.052   8.632 -0.1762 -0.1737  0.1356
   28loPI   C5A  443   8.280  13.031   8.352 -0.1123  0.5063  0.2942
   28loPI   C6A  444   8.253  12.655   8.228  0.1964 -0.0013 -0.0201
   28loPI   C1B  445   8.996  13.192   9.889  0.5742 -0.0695 -0.0496
   28loPI   C2B  446   9.020  13.186   9.478  0.2498 -0.1195  0.0854
   28loPI   C3B  447   9.001  13.207   9.025 -0.1613 -0.0104  0.2679
   28loPI   C4B  448   8.983  13.205   8.560  0.3940  0.1461 -0.1581
   29loPI    C1  449  10.092   0.258  11.026 -0.0209 -0.1523 -0.0367
   29loPI    C2  450  10.346   0.496  10.829 -0.1257 -0.1148 -0.1276
   29loPI    C3  451  10.230   0.591  11.200  0.0187 -0.1498 -0.0726
   29loPI   PO4  452   9.901   0.224  10.794  0.0532 -0.1241 -0.0398
   29loPI   GL1  453   9.943   0.073  10.328  0.0547  0.1406 -0.2064
   29loPI   GL2  454  10.115   0.301  10.362 -0.0228 -0.1127  0.2106
   29loPI   C1A  455   9.969  -0.028   9.862  0.1031  0.0534 -0.3757
   29loPI   C2A  456  10.041  -0.084   9.404 -0.1674  0.1983  0.4673
   29loPI   C3A  457   9.910  -0.044   9.042 -0.1772 -0.0656 -0.1620
   29loPI   C4A  458   9.750  -0.086   8.644  0.1780  0.0034 -0.0572
   29loPI   C5A  459   9.679   0.081   8.222 -0.2863 -0.0677 -0.3797
   29loPI   C6A  460   9.344   0.366   8.062 -0.2474  0.1341 -0.0196
   29loPI   C1B  461  10.188   0.385   9.894 -0.1198 -0.1241 -0.0579
   29loPI   C2B  462  10.255   0.412   9.385 -0.1865 -0.0027  0.3006
   29loPI   C3B  463  10.193   0.332   8.908 -0.1226  0.4532  0.0704
   29loPI   C4B  464  10.143   0.332   8.478  0.2555 -0.0143 -0.1160
   30loPI    C1  465   0.160   9.272  11.630  0.0557 -0.1805  0.0113
   30loPI    C2  466   0.161   9.607  11.849 -0.0279 -0.1419 -0.0468
   30loPI    C3  467  -0.058   9.293  11.965 -0.0527 -0.1303 -0.0618
   30loPI   PO4  468   0.045   9.317  11.393  0.3595 -0.1852  0.0622
   30loPI   GL1  469   0.059   9.269  10.919 -0.0544 -0.1226  0.0769
   30loPI   GL2  470   0.195   9.392  10.519  0.1740 -0.1167  0.3694
   30loPI   C1A  471  -0.299   9.180  10.520  0.0952  0.0630  0.0517
   30loPI   C2A  472  -0.331   9.365  10.101 -0.0944  0.2407 -0.1503
   30loPI   C3A  473  -0.230   9.387   9.687  0.1577  0.3977 -0.2154
   30loPI   C4A  474  -0.213   9.319   9.272  0.0082  0.0509  0.1020
   30loPI   C5A  475  -0.175   9.466   8.846 -0.1622 -0.0204 -0.1628
   30loPI   C6A  476  -0.370   9.786   8.585  0.2589  0.3461  0.1606
   30loPI   C1B  477   0.175   9.339  10.010  0.0471 -0.0098 -0.4527
   30loPI   C2B  478   0.273   9.362   9.591  0.2947 -0.2877  0.0260
   30loPI   C3B  479   0.327   9.362   9.152  0.0975 -0.0018 -0.0964
   30loPI   C4B  480   0.343   9.501   8.825  0.1065 -0.0895  0.0523
   31loPI    C1  481  13.098  13.816  11.234 -0.1437  0.0465 -0.1571
   31loPI    C2  482  13.314  13.522  11.398 -0.0398  0.0523 -0.2821
   31loPI    C3  483  12.928  13.564  11.494  0.0857  0.2257  0.1744
   31loPI   PO4  484  13.196  13.738  10.928 -0.1340  0.0849 -0.2308
   31loPI   GL1  485  13.429  13.866  10.581  0.1994  0.0120  0.1408
   31loPI   GL2  486  13.142  14.004  10.409 -0.1700 -0.1039  0.2873
   31loPI   C1A  487  13.460  13.549  10.320 -0.1648 -0.4325  0.1326
   31loPI   C2A  488  13.525  13.587   9.920  0.1422  0.1088 -0.0654
   31loPI   C3A  489  13.535  13.687   9.439 -0.1552  0.0653  0.1115
   31loPI   C4A  490  13.527  13.702   9.036 -0.0659 -0.1493 -0.0070
   31loPI   C5A  491  13.614  13.762   8.549  0.0397 -0.1301 -0.1371
   31loPI   C6A  492  13.793  14.175   8.409  0.1342 -0.3545  0.0241
   31loPI   C1B  493  13.198  14.154  10.028  0.2710 -0.7709  0.2121
   31loPI   C2B  494  13.299  14.068   9.630 -0.0830 -0.1069 -0.1288
   31loPI   C3B  495  13.309  14.211   9.234  0.0071 -0.1204 -0.2459
   31loPI   C4B  496  13.388  14.209   8.820 -0.2571  0.0591 -0.0267
   32loPI    C1  497   1.200   1.006  11.007 -0.2501  0.2180  0.0408
   32loPI    C2  498   1.533   1.131  11.188 -0.0139 -0.1271 -0.1439
   32loPI    C3  499   1.287   0.878  11.375 -0.1330  0.0630 -0.0398
   32loPI   PO4  500   1.239   0.961  10.742 -0.0956  0.0448 -0.2687
   32loPI   GL1  501   1.074   0.956  10.452  0.2314 -0.1977 -0.2696
   32loPI   GL2  502   0.827   1.113  10.388  0.1278  0.1288 -0.2240
   32loPI   C1A  503   1.172   0.902  10.034 -0.3591  0.3483 -0.1242
   32loPI   C2A  504   1.127   0.781   9.607  0.2444 -0.2684 -0.2853
   32loPI   C3A  505   1.218   0.803   9.189  0.0045 -0.0883 -0.0049
   32loPI   C4A  506   1.257   0.837   8.804 -0.3375  0.2242 -0.0477
   32loPI   C5A  507   0.934   0.638   8.497  0.0668  0.2763 -0.2430
   32loPI   C6A  508   1.021   0.562   8.048  0.2520  0.0975 -0.2091
   32loPI   C1B  509   0.921   1.334  10.051 -0.1598  0.0315  0.0006
   32loPI   C2B  510   0.866   1.239   9.621  0.1010 -0.0213 -0.0056
   32loPI   C3B  511   0.929   1.266   9.176  0.2897 -0.2076 -0.0673
   32loPI   C4B  512   0.972   1.266   8.707  0.2960 -0.1456 -0.0872
   33loPI    C1  513   6.119  10.778  11.296 -0.2094  0.1629 -0.2597
   33loPI    C2  514   6.013  10.826  11.679 -0.1581 -0.0864 -0.2126
   33loPI    C3  515   6.289  11.065  11.516 -0.0177 -0.1214 -0.0294
   33loPI   PO4  516   5.929  10.793  11.168 -0.2405 -0.0211  0.0543
   33loPI   GL1  517   5.899  10.678  10.782 -0.0467  0.0821  0.1960
   33loPI   GL2  518   6.238  10.696  10.750 -0.1243 -0.1221  0.0075
   33loPI   C1A  519   5.900  10.469  10.365  0.0617 -0.0625 -0.0207
   33loPI   C2A  520   5.985  10.360   9.854  0.0314 -0.1678  0.0813
   33loPI   C3A  521   6.041  10.368   9.439 -0.3097 -0.0063 -0.1723
   33loPI   C4A  522   6.051  10.374   8.923 -0.0525  0.1366  0.0302
   33loPI   C5A  523   5.964  10.422   8.481 -0.0741 -0.0370 -0.1119
   33loPI   C6A  524   5.693  10.365   8.196 -0.2185 -0.0682 -0.1340
   33loPI   C1B  525   6.172  10.862  10.276 -0.1018  0.0387  0.3138
   33loPI   C2B  526   6.157  10.914   9.905  0.0056  0.1921 -0.0855
   33loPI   C3B  527   6.200  10.838   9.466 -0.1049  0.0375 -0.0351
   33loPI   C4B  528   6.276  10.808   9.089  0.0722  0.0777 -0.3261
   34loPI    C1  529   8.637   7.436  11.008 -0.0529 -0.0558 -0.0737
   34loPI    C2  530   9.022   7.349  11.071  0.0720  0.2758 -0.3491
   34loPI    C3  531   8.782   7.428  11.381  0.1823 -0.0934 -0.1641
   34loPI   PO4  532   8.659   7.609  10.782 -0.1278 -0.3559  0.1512
   34loPI   GL1  533   8.625   7.557  10.311  0.0084 -0.0513 -0.0207
   34loPI   GL2  534   8.294   7.446  10.174  0.0260  0.0162 -0.2924
   34loPI   C1A  535   8.794   7.608   9.905  0.1334  0.0319  0.1146
   34loPI   C2A  536   8.805   7.627   9.426  0.0635 -0.0330 -0.2572
   34loPI   C3A  537   8.748   7.656   9.015  0.1032 -0.0030  0.1220
   34loPI   C4A  538   8.929   7.579   8.589  0.1147 -0.0214 -0.1016
   34loPI   C5A  539   9.150   7.686   8.268 -0.2779 -0.0451  0.0658
   34loPI   C6A  540   9.336   7.578   7.954  0.2697  0.0326  0.1956
   34loPI   C1B  541   8.289   7.481   9.773  0.0265 -0.3318  0.0570
   34loPI   C2B  542   8.259   7.582   9.372 -0.1998 -0.0593 -0.0951
   34loPI   C3B  543   8.259   7.541   8.859  0.0383 -0.0937 -0.2588
   34loPI   C4B  544   8.469   7.683   8.512 -0.2388  0.1875 -0.2352
   35loPI    C1  545  17.540   8.930  11.496  0.1963 -0.2621 -0.0896
   35loPI    C2  546  17.174   9.055  11.395  0.1892 -0.2597 -0.0604
   35loPI    C3  547  17.401   9.278  11.638  0.2184 -0.2507 -0.0957
   35loPI   PO4  548  17.662   8.868  11.161  0.2870 -0.2606 -0.1863
   35loPI   GL1  549  17.765   8.826  10.771  0.4746  0.0338  0.0894
   35loPI   GL2  550  18.005   8.751  10.653  0.0939 -0.0115 -0.1028
   35loPI   C1A  551  17.690   8.446  10.427  0.2746  0.1691 -0.2934
   35loPI   C2A  552  17.564   8.477   9.985  0.0171  0.0983  0.2781
   35loPI   C3A  553  17.623   8.456   9.566  0.2648 -0.2596 -0.1930
   35loPI   C4A  554  17.547   8.460   9.112 -0.4428 -0.2029 -0.0544
   35loPI   C5A  555  17.416   8.446   8.719 -0.0072 -0.0349  0.1127
   35loPI   C6A  556  17.268   8.526   8.255 -0.2897  0.2510  0.3815
   35loPI   C1B  557  17.861   8.828  10.143 -0.1411  0.0681 -0.1164
   35loPI   C2B  558  17.842   8.909   9.714  0.1635 -0.2874  0.1419
   35loPI   C3B  559  17.880   8.886   9.353  0.4040  0.2486  0.0101
   35loPI   C4B  560  17.857   9.042   8.909 -0.1217 -0.4084 -0.3747
   36loPI    C1  561   7.909  15.233  11.093 -0.1968  0.3772  0.0916
   36loPI    C2  562   7.990  15.304  11.478 -0.0840 -0.1564  0.1747
   36loPI    C3  563   7.742  15.006  11.377 -0.0189 -0.0981 -0.1709
   36loPI   PO4  564   8.128  15.199  10.853 -0.1864  0.1086  0.1892
   36loPI   GL1  565   8.425  15.108  10.494 -0.2840  0.0453 -0.0284
   36loPI   GL2  566   8.157  14.877  10.440 -0.1564 -0.1185  0.1168
   36loPI   C1A  567   8.630  14.955  10.085  0.2520 -0.1792 -0.1917
   36loPI   C2A  568   8.653  15.035   9.593  0.1628 -0.1778  0.2310
   36loPI   C3A  569   8.722  14.980   9.177 -0.0681  0.5210 -0.2124
   36loPI   C4A  570   8.854  14.812   8.749  0.0474 -0.1423  0.1515
   36loPI   C5A  571   8.976  15.045   8.321  0.1710 -0.1687  0.3630
   36loPI   C6A  572   8.970  15.447   8.123 -0.0588  0.1255  0.1300
   36loPI   C1B  573   8.107  14.821  10.011  0.2985  0.0337 -0.0042
   36loPI   C2B  574   8.117  14.918   9.622  0.4827 -0.1535  0.1075
   36loPI   C3B  575   8.237  14.981   9.275  0.1963  0.2122 -0.2005
   36loPI   C4B  576   8.338  14.787   8.869  0.2741  0.1851 -0.1251
   37loPI    C1  577  12.268   2.298  10.953 -0.2574 -0.0262  0.0074
   37loPI    C2  578  11.942   2.268  11.183 -0.2771 -0.0362 -0.0217
   37loPI    C3  579  12.263   2.468  11.315 -0.2779 -0.0662  0.0260
   37loPI   PO4  580  12.179   2.350  10.729 -0.3271  0.0266  0.1941
   37loPI   GL1  581  12.214   2.181  10.333  0.0178  0.1237  0.0358
   37loPI   GL2  582  12.648   2.243  10.331 -0.1223  0.3214 -0.1203
   37loPI   C1A  583  12.252   2.135   9.877 -0.3568  0.4379 -0.2410
   37loPI   C2A  584  12.256   2.069   9.426 -0.1368  0.3150  0.1875
   37loPI   C3A  585  12.237   2.206   8.923 -0.2674 -0.0975  0.3050
   37loPI   C4A  586  12.164   2.176   8.467  0.1046  0.1869 -0.0411
   37loPI   C5A  587  12.189   2.258   7.928 -0.3509 -0.0765 -0.1616
   37loPI   C6A  588  12.480   2.242   7.611  0.3163  0.1125  0.0591
   37loPI   C1B  589  12.790   2.071   9.989 -0.0322  0.3501 -0.3605
   37loPI   C2B  590  12.800   2.114   9.582  0.0232 -0.0395  0.1027
   37loPI   C3B  591  12.673   2.066   9.159 -0.0080 -0.1232 -0.2047
   37loPI   C4B  592  12.845   2.090   8.701  0.5083 -0.0489  0.2006
   38loPI    C1  593  17.311   5.158  11.165  0.0216  0.1508 -0.0122
   38loPI    C2  594  17.634   5.209  10.934 -0.0487  0.0946 -0.1238
   38loPI    C3  595  17.677   5.140  11.326  0.0676  0.3132 -0.0967
   38loPI   PO4  596  17.114   5.201  10.936  0.0150 -0.0256 -0.0679
   38loPI   GL1  597  16.947   5.026  10.625  0.1234  0.0364 -0.0154
   38loPI   GL2  598  16.719   5.333  10.653  0.3051 -0.0216  0.0037
   38loPI   C1A  599  17.026   4.963  10.247 -0.1095  0.2588 -0.4506
   38loPI   C2A  600  16.983   4.932   9.896  0.2339 -0.0307 -0.0299
   38loPI   C3A  601  16.968   4.968   9.426 -0.0357  0.1492  0.0429
   38loPI   C4A  602  16.937   4.975   8.947 -0.2598  0.0580  0.0889
   38loPI   C5A  603  16.900   5.005   8.374  0.0793 -0.0220  0.1678
   38loPI   C6A  604  17.035   4.724   8.003  0.0577  0.1989  0.1655
   38loPI   C1B  605  16.719   5.338  10.130  0.1430  0.0771 -0.0118
   38loPI   C2B  606  16.818   5.392   9.639  0.0281  0.3759  0.2545
   38loPI   C3B  607  16.742   5.386   9.298 -0.0514  0.0317  0.0172
   38loPI   C4B  608  16.661   5.356   8.899 -0.0141 -0.1470  0.1590
   39loPI    C1  609  14.541  10.850  11.016 -0.1289 -0.1123 -0.1056
   39loPI    C2  610  14.355  11.200  11.074  0.0216 -0.0450 -0.0251
   39loPI    C3  611  14.553  11.025  11.375 -0.2212 -0.3002 -0.0091
   39loPI   PO4  612  14.424  10.731  10.901 -0.0410  0.0829  0.0547
   39loPI   GL1  613  14.267  10.782  10.510  0.0530  0.3516  0.2555
   39loPI   GL2  614  14.106  10.945  10.521 -0.0552 -0.0369 -0.1917
   39loPI   C1A  615  14.310  10.851  10.035  0.2033  0.1401  0.0050
   39loPI   C2A  616  14.345  10.877   9.596 -0.1932 -0.2250  0.1478
   39loPI   C3A  617  14.378  10.944   9.189 -0.0708  0.0912 -0.1501
   39loPI   C4A  618  14.379  10.939   8.722 -0.2205 -0.1026 -0.2107
   39loPI   C5A  619  14.593  10.922   8.341  0.1283  0.2042  0.0381
   39loPI   C6A  620  14.529  11.100   7.889 -0.0064  0.3440 -0.0089
   39loPI   C1B  621  13.993  11.183  10.196  0.0443 -0.0530  0.2257
   39loPI   C2B  622  14.166  11.341   9.741  0.3617  0.3118 -0.0193
   39loPI   C3B  623  14.145  11.386   9.284 -0.1181 -0.0320 -0.0510
   39loPI   C4B  624  14.128  11.324   8.834  0.3740  0.0491 -0.2050
   40loPI    C1  625   8.571   1.652  10.887 -0.0767  0.0092  0.0236
   40loPI    C2  626   8.573   1.289  11.053 -0.0202  0.0317  0.0723
   40loPI    C3  627   8.583   1.615  11.285 -0.0781  0.0643  0.0290
   40loPI   PO4  628   8.620   1.597  10.631  0.0396  0.1218  0.3930
   40loPI   GL1  629   8.733   1.857  10.311  0.1907  0.0371  0.0025
   40loPI   GL2  630   8.633   2.178  10.095  0.0402  0.2109  0.0836
   40loPI   C1A  631   8.946   1.771   9.976  0.0625 -0.2191 -0.0223
   40loPI   C2A  632   8.913   1.768   9.560 -0.1978 -0.0358 -0.0766
   40loPI   C3A  633   8.879   1.732   9.154 -0.1122 -0.2011 -0.2229
   40loPI   C4A  634   8.902   1.718   8.767 -0.1445  0.3337  0.3941
   40loPI   C5A  635   8.912   1.704   8.379  0.1947  0.2900 -0.3747
   40loPI   C6A  636   8.644   1.668   8.046 -0.0374  0.0967 -0.1004
   40loPI   C1B  637   8.524   2.138   9.582 -0.2477  0.0612  0.0562
   40loPI   C2B  638   8.646   2.157   9.125  0.0012 -0.0487 -0.1509
   40loPI   C3B  639   8.648   2.148   8.655  0.2877 -0.1037  0.3092
   40loPI   C4B  640   8.834   2.220   8.149  0.3479  0.0180 -0.0063
   41loPI    C1  641  17.540   1.759  11.273 -0.1724  0.0077  0.0789
   41loPI    C2  642  17.318   1.472  11.443 -0.0262 -0.2322 -0.1295
   41loPI    C3  643  17.510   1.738  11.672 -0.0853 -0.3590  0.0700
   41loPI   PO4  644  17.358   1.833  10.992  0.2729 -0.1512  0.1859
   41loPI   GL1  645  17.111   1.898  10.562 -0.1610 -0.0120 -0.1222
   41loPI   GL2  646  17.210   1.603  10.564 -0.2597 -0.0596  0.1497
   41loPI   C1A  647  17.044   1.974  10.071  0.1187  0.2177  0.1913
   41loPI   C2A  648  16.987   1.942   9.671 -0.0170 -0.0976 -0.0590
   41loPI   C3A  649  17.075   1.861   9.260  0.0140 -0.3528 -0.2118
   41loPI   C4A  650  16.970   1.811   8.821  0.1312 -0.1436  0.0309
   41loPI   C5A  651  16.732   2.047   8.456  0.0103  0.0810  0.1545
   41loPI   C6A  652  16.393   1.929   8.261 -0.1362  0.0700  0.0852
   41loPI   C1B  653  17.204   1.471  10.076 -0.0871  0.3298  0.0076
   41loPI   C2B  654  17.219   1.357   9.605 -0.1472  0.0987 -0.0187
   41loPI   C3B  655  17.228   1.372   9.202 -0.1372 -0.3429 -0.2779
   41loPI   C4B  656  17.170   1.357   8.766  0.0547  0.0574  0.0763
   42loPI    C1  657  10.045  17.594  10.764 -0.1245  0.0892  0.2332
   42loPI    C2  658  10.234  17.644  11.113  0.1260  0.0118  0.1107
   42loPI    C3  659  10.069  17.291  11.024 -0.1262  0.0945  0.2397
   42loPI   PO4  660  10.202  17.633  10.609  0.0538  0.0483 -0.0085
   42loPI   GL1  661  10.157  17.495  10.195  0.0757  0.1142  0.0218
   42loPI   GL2  662  10.443  17.721  10.113 -0.2691  0.0129 -0.1255
   42loPI   C1A  663  10.168  17.403   9.794 -0.2711 -0.3284 -0.2485
   42loPI   C2A  664  10.250  17.357   9.259 -0.1640 -0.1228  0.0212
   42loPI   C3A  665  10.255  17.406   8.840 -0.1821 -0.1971  0.3936
   42loPI   C4A  666  10.192  17.593   8.403  0.1420 -0.2612 -0.0639
   42loPI   C5A  667  10.210  17.775   8.027  0.0092 -0.4429 -0.0750
   42loPI   C6A  668  10.150  18.209   7.909 -0.0793 -0.0279 -0.1205
   42loPI   C1B  669  10.454  17.837   9.680  0.2022  0.0274 -0.0714
   42loPI   C2B  670  10.516  17.816   9.238 -0.0556 -0.1259  0.1140
   42loPI   C3B  671  10.503  17.810   8.743  0.0010 -0.1465  0.0944
   42loPI   C4B  672  10.592  17.896   8.281 -0.1096 -0.3144  0.0972
   43loPI    C1  673   2.223  10.375  10.676 -0.0902 -0.0120 -0.0451
   43loPI    C2  674   1.866  10.440  10.845 -0.0934 -0.0533 -0.0359
   43loPI    C3  675   2.159  10.269  11.057 -0.0934 -0.0932 -0.0680
   43loPI   PO4  676   2.267  10.552  10.559  0.4294  0.1846  0.2394
   43loPI   GL1  677   2.206  10.931  10.314 -0.3535  0.1315 -0.1115
   43loPI   GL2  678   2.214  11.231  10.341 -0.2329  0.3220 -0.2984
   43loPI   C1A  679   2.310  10.762   9.892 -0.0103 -0.1353 -0.3570
   43loPI   C2A  680   2.311  10.746   9.464  0.0380 -0.0127 -0.1904
   43loPI   C3A  681   2.242  10.691   9.079  0.0761  0.1719  0.0696
   43loPI   C4A  682   2.387  10.764   8.719  0.0561 -0.0144 -0.0319
   43loPI   C5A  683   2.388  10.989   8.382 -0.0263  0.1961  0.0652
   43loPI   C6A  684   2.405  10.872   7.952 -0.1288 -0.0524 -0.1061
   43loPI   C1B  685   2.301  11.271   9.901 -0.1683 -0.0901 -0.1494
   43loPI   C2B  686   2.432  11.231   9.542 -0.1127  0.1562  0.2654
   43loPI   C3B  687   2.466  11.206   9.196 -0.0475 -0.3622  0.0463
   43loPI   C4B  688   2.568  11.255   8.863  0.0378 -0.3421 -0.2578
   44loPI    C1  689   1.595  10.926  11.025  0.3521  0.2297  0.1937
   44loPI    C2  690   1.746  10.630  11.247  0.0296 -0.0970 -0.0113
   44loPI    C3  691   1.454  10.860  11.393  0.0933 -0.0535  0.0482
   44loPI   PO4  692   1.538  10.860  10.844  0.3583  0.0186  0.0619
   44loPI   GL1  693   1.485  10.875  10.490  0.0096  0.0673 -0.1459
   44loPI   GL2  694   1.713  10.713  10.293 -0.0005 -0.0468  0.1512
   44loPI   C1A  695   1.279  10.934  10.058  0.0116 -0.0467  0.0775
   44loPI   C2A  696   1.404  10.999   9.613  0.2563  0.4392 -0.1141
   44loPI   C3A  697   1.513  10.992   9.166 -0.4632  0.1481  0.1114
   44loPI   C4A  698   1.360  10.953   8.681 -0.1447  0.2117  0.4652
   44loPI   C5A  699   1.035  10.909   8.330  0.1042  0.2441  0.0208
   44loPI   C6A  700   1.017  10.550   8.083 -0.0096  0.1100  0.0595
   44loPI   C1B  701   1.714  10.647   9.856 -0.2295 -0.4020 -0.2273
   44loPI   C2B  702   1.737  10.614   9.389  0.3349  0.1618  0.0550
   44loPI   C3B  703   1.755  10.650   8.913  0.3654 -0.1765 -0.2249
   44loPI   C4B  704   1.893  10.931   8.546  0.0965  0.1614 -0.1500
   45loPI    C1  705  16.730   2.951  11.489  0.1587  0.0616  0.1575
   45loPI    C2  706  16.398   2.896  11.704  0.0752  0.1241  0.0452
   45loPI    C3  707  16.704   3.102  11.858  0.0750  0.0385  0.1612
   45loPI   PO4  708  16.632   2.971  11.225 -0.0553  0.0396  0.2014
   45loPI   GL1  709  16.769   3.131  10.851 -0.1169 -0.0672  0.4362
   45loPI   GL2  710  16.757   2.819  10.706  0.0203 -0.2905 -0.0444
   45loPI   C1A  711  17.146   3.385  10.620 -0.1115  0.2840  0.1214
   45loPI   C2A  712  17.137   3.589  10.167 -0.4503 -0.2333  0.2108
   45loPI   C3A  713  17.101   3.669   9.727  0.1232 -0.0171 -0.0532
   45loPI   C4A  714  17.063   3.641   9.346 -0.1101  0.3071 -0.1895
   45loPI   C5A  715  17.037   3.658   8.952 -0.1026  0.2583  0.2255
   45loPI   C6A  716  17.037   4.011   8.611  0.2932 -0.1959 -0.1322
   45loPI   C1B  717  16.630   2.941  10.352  0.2469  0.3825  0.1569
   45loPI   C2B  718  16.567   2.889   9.881  0.0016  0.3079 -0.0262
   45loPI   C3B  719  16.470   2.727   9.459  0.1649 -0.3437 -0.2020
   45loPI   C4B  720  16.424   2.739   9.113 -0.1257  0.6087  0.4021
   46loPI    C1  721  16.152   4.309  11.396  0.0052  0.0971  0.0951
   46loPI    C2  722  15.981   4.647  11.525  0.3137  0.1947  0.2599
   46loPI    C3  723  16.377   4.600  11.555  0.3002 -0.0919  0.0316
   46loPI   PO4  724  16.077   4.241  11.111  0.0275 -0.2368  0.0955
   46loPI   GL1  725  15.845   4.313  10.766 -0.0664 -0.2769 -0.1226
   46loPI   GL2  726  15.942   4.561  10.586 -0.0584 -0.0662 -0.4539
   46loPI   C1A  727  15.932   4.122  10.332 -0.0029  0.1054 -0.0610
   46loPI   C2A  728  15.796   4.150   9.913  0.0486  0.1367  0.0926
   46loPI   C3A  729  15.847   4.214   9.451  0.3178  0.1238  0.0638
   46loPI   C4A  730  15.797   4.187   8.998  0.0058  0.4900  0.1203
   46loPI   C5A  731  15.771   4.321   8.562  0.0586 -0.2577 -0.1469
   46loPI   C6A  732  15.788   4.065   8.105  0.3467 -0.0804  0.3056
   46loPI   C1B  733  16.082   4.569  10.148  0.1328 -0.1302  0.1221
   46loPI   C2B  734  16.125   4.562   9.721 -0.1313  0.0066 -0.0499
   46loPI   C3B  735  16.106   4.593   9.236 -0.0165 -0.2500 -0.1440
   46loPI   C4B  736  16.163   4.533   8.755 -0.0732 -0.1149 -0.3118
   47loPI    C1  737  10.926  11.386  11.303 -0.0951  0.1636  0.0058
   47loPI    C2  738  10.946  11.730  11.506 -0.3467  0.1484  0.0602
   47loPI    C3  739  10.637  11.483  11.563 -0.1052 -0.1473  0.1142
   47loPI   PO4  740  11.001  11.466  11.033  0.2214  0.1658 -0.3110
   47loPI   GL1  741  10.929  11.460  10.593 -0.0591  0.1191 -0.1338
   47loPI   GL2  742  11.064  11.235  10.474 -0.2406 -0.1768 -0.0357
   47loPI   C1A  743  10.813  11.528  10.221 -0.0896 -0.1302  0.0611
   47loPI   C2A  744  10.821  11.534   9.693  0.3144 -0.0265 -0.1670
   47loPI   C3A  745  10.863  11.548   9.269 -0.1019  0.0301 -0.0796
   47loPI   C4A  746  10.845  11.618   8.808 -0.2831 -0.3075  0.0126
   47loPI   C5A  747  10.968  11.496   8.420 -0.2362  0.2300  0.1421
   47loPI   C6A  748  10.872  11.144   8.161  0.0217  0.0766 -0.2036
   47loPI   C1B  749  11.060  11.131  10.067 -0.0681 -0.2165 -0.2612
   47loPI   C2B  750  11.208  11.174   9.691 -0.0608  0.1282 -0.0988
   47loPI   C3B  751  11.144  11.112   9.204  0.1984 -0.0720  0.0135
   47loPI   C4B  752  11.199  11.263   8.797 -0.3038  0.2085  0.3448
   48loPI    C1  753  14.763  13.615  11.341  0.3177 -0.1243  0.1828
   48loPI    C2  754  14.558  13.357  11.568  0.2285  0.0697  0.3253
   48loPI    C3  755  14.713  13.687  11.731  0.2702  0.1491  0.1280
   48loPI   PO4  756  14.576  13.648  11.094  0.0383 -0.1131 -0.1461
   48loPI   GL1  757  14.635  13.749  10.694  0.0353  0.0749  0.1493
   48loPI   GL2  758  14.489  14.044  10.822 -0.0022  0.0671  0.0852
   48loPI   C1A  759  14.503  13.502  10.375 -0.1916 -0.1689  0.0610
   48loPI   C2A  760  14.524  13.554   9.932  0.0326 -0.1347 -0.0174
   48loPI   C3A  761  14.515  13.643   9.504 -0.2653  0.0278  0.3733
   48loPI   C4A  762  14.549  13.594   9.114  0.0614  0.2090  0.0287
   48loPI   C5A  763  14.605  13.706   8.733  0.0459  0.0096  0.0473
   48loPI   C6A  764  14.867  14.047   8.514 -0.0496  0.0506 -0.1320
   48loPI   C1B  765  14.497  14.239  10.496  0.3444  0.1702  0.3331
   48loPI   C2B  766  14.545  14.390  10.102  0.1069 -0.2444 -0.1695
   48loPI   C3B  767  14.549  14.443   9.598  0.0658 -0.1334 -0.1276
   48loPI   C4B  768  14.511  14.551   9.158  0.1577 -0.0405  0.1343
   49loPI    C1  769   3.268  16.365  10.789 -0.0047  0.2017 -0.0201
   49loPI    C2  770   3.465  16.088  11.000  0.0099  0.1803 -0.0618
   49loPI    C3  771   3.127  16.247  11.145  0.0572  0.2165  0.0096
   49loPI   PO4  772   3.290  16.287  10.536 -0.0209 -0.0038 -0.2354
   49loPI   GL1  773   3.340  15.995  10.228 -0.0300  0.0606  0.0475
   49loPI   GL2  774   3.424  15.958   9.953 -0.1644  0.2414  0.0500
   49loPI   C1A  775   3.261  16.416   9.854 -0.0101  0.2275 -0.1630
   49loPI   C2A  776   2.984  16.405   9.444 -0.1309  0.1100 -0.1802
   49loPI   C3A  777   2.814  16.248   9.062 -0.2138  0.1722  0.0549
   49loPI   C4A  778   2.867  16.224   8.682  0.0259 -0.3185 -0.1278
   49loPI   C5A  779   3.028  16.410   8.319 -0.3081 -0.1480  0.0163
   49loPI   C6A  780   3.177  16.865   8.237  0.1990 -0.0002  0.1361
   49loPI   C1B  781   3.499  15.651   9.613  0.4190 -0.2777  0.0826
   49loPI   C2B  782   3.311  15.455   9.321  0.0418  0.0390  0.4130
   49loPI   C3B  783   2.941  15.287   9.015  0.2236  0.0603 -0.0783
   49loPI   C4B  784   2.770  15.380   8.625 -0.2758 -0.1535  0.2185
   50loPI    C1  785   3.724   1.917  10.597  0.0233  0.2447 -0.0982
   50loPI    C2  786   3.565   1.886  10.231 -0.0603 -0.2602 -0.0259
   50loPI    C3  787   3.398   1.693  10.539  0.1478 -0.0312  0.2362
   50loPI   PO4  788   3.996   1.862  10.503  0.0275  0.1830 -0.1958
   50loPI   GL1  789   4.152   1.801  10.159  0.3700  0.0421  0.0345
   50loPI   GL2  790   4.385   1.535  10.010  0.0882  0.0773 -0.0938
   50loPI   C1A  791   3.919   1.919   9.799  0.1159 -0.0790  0.0246
   50loPI   C2A  792   4.065   1.880   9.363 -0.1488  0.1457 -0.1397
   50loPI   C3A  793   4.118   2.003   9.006  0.2439  0.0033 -0.4893
   50loPI   C4A  794   4.028   2.200   8.618  0.0628 -0.0351  0.0106
   50loPI   C5A  795   3.804   2.584   8.382  0.0418 -0.2766  0.0642
   50loPI   C6A  796   3.527   2.832   8.387  0.2128  0.1849  0.1782
   50loPI   C1B  797   4.382   1.482   9.585 -0.2465 -0.0432  0.1429
   50loPI   C2B  798   4.407   1.493   9.089  0.2849  0.0647  0.0793
   50loPI   C3B  799   4.287   1.683   8.624  0.2507  0.0442 -0.0816
   50loPI   C4B  800   4.135   1.841   8.273  0.1866  0.0390 -0.1279
   51loPI    C1  801  16.435  16.419  11.318  0.0315 -0.0116  0.0370
   51loPI    C2  802  16.073  16.357  11.475 -0.0826 -0.1566 -0.2749
   51loPI    C3  803  16.371  16.100  11.551  0.0170  0.0751  0.1529
   51loPI   PO4  804  16.336  16.567  11.093 -0.1367 -0.0425 -0.0300
   51loPI   GL1  805  16.522  16.750  10.770 -0.3098  0.0939  0.0021
   51loPI   GL2  806  16.431  17.057  10.620 -0.0281  0.1503  0.2223
   51loPI   C1A  807  16.578  16.637  10.406  0.0404  0.3671 -0.1901
   51loPI   C2A  808  16.583  16.574  10.010 -0.1326  0.0583  0.0369
   51loPI   C3A  809  16.549  16.540   9.658  0.0070  0.3009  0.1708
   51loPI   C4A  810  16.488  16.628   9.162 -0.1804 -0.2053  0.1167
   51loPI   C5A  811  16.544  16.705   8.682 -0.1933 -0.2500 -0.1227
   51loPI   C6A  812  17.014  16.816   8.527  0.0280 -0.2099 -0.1467
   51loPI   C1B  813  16.271  17.067  10.221  0.0258  0.0951 -0.2692
   51loPI   C2B  814  16.351  17.011   9.756 -0.1874  0.0696  0.0045
   51loPI   C3B  815  16.252  17.137   9.300  0.1348  0.0563 -0.0574
   51loPI   C4B  816  16.128  17.179   8.767 -0.1272 -0.1748 -0.0658
   52loPI    C1  817   7.921   6.956  11.014 -0.0823 -0.0112 -0.2157
   52loPI    C2  818   7.562   7.114  11.091  0.0687  0.1889  0.0958
   52loPI    C3  819   7.834   7.084  11.382  0.3860  0.2478 -0.1876
   52loPI   PO4  820   7.928   7.010  10.752  0.1224 -0.2317  0.0827
   52loPI   GL1  821   7.905   7.305  10.418  0.5661  0.1885 -0.1774
   52loPI   GL2  822   8.010   6.968  10.254 -0.1024  0.1227 -0.1260
   52loPI   C1A  823   7.754   7.452  10.074 -0.2920  0.2681  0.0247
   52loPI   C2A  824   7.755   7.498   9.659 -0.1520  0.1167 -0.1000
   52loPI   C3A  825   7.819   7.432   9.115 -0.2051 -0.0697 -0.1231
   52loPI   C4A  826   7.847   7.480   8.602 -0.4298  0.0394  0.0210
   52loPI   C5A  827   7.872   7.487   8.094 -0.2624  0.0416  0.1352
   52loPI   C6A  828   7.966   7.378   7.649  0.1636  0.2399  0.3334
   52loPI   C1B  829   8.041   7.076   9.867  0.0441 -0.0232 -0.0328
   52loPI   C2B  830   8.053   7.121   9.447  0.2368  0.4295  0.2925
   52loPI   C3B  831   8.135   7.013   9.009  0.0215  0.2020  0.0585
   52loPI   C4B  832   8.116   7.029   8.607 -0.2451  0.2349  0.1007
   53loPI    C1  833   3.488   6.995  11.114  0.1371 -0.0598 -0.0079
   53loPI    C2  834   3.476   6.629  11.276 -0.2939 -0.0205  0.0606
   53loPI    C3  835   3.639   6.933  11.479 -0.1508 -0.1244  0.1029
   53loPI   PO4  836   3.531   7.076  10.922 -0.1120  0.0043  0.0043
   53loPI   GL1  837   3.366   7.461  10.619 -0.1106  0.0833 -0.2222
   53loPI   GL2  838   3.185   7.126  10.560 -0.1282  0.1192  0.0397
   53loPI   C1A  839   3.368   7.662  10.305  0.0937 -0.3474  0.2256
   53loPI   C2A  840   3.477   7.731   9.889  0.0792 -0.2316 -0.4933
   53loPI   C3A  841   3.477   7.717   9.463 -0.3202 -0.2175  0.1379
   53loPI   C4A  842   3.414   7.605   8.968 -0.0892  0.2794 -0.1635
   53loPI   C5A  843   3.537   7.528   8.553 -0.1759 -0.2912 -0.2142
   53loPI   C6A  844   3.882   7.771   8.424  0.1399 -0.2206  0.0458
   53loPI   C1B  845   3.116   7.243  10.188 -0.2383 -0.3022 -0.0166
   53loPI   C2B  846   3.216   7.329   9.768 -0.0071  0.2052 -0.2460
   53loPI   C3B  847   3.299   7.269   9.352 -0.1164  0.2449 -0.1429
   53loPI   C4B  848   3.290   7.157   8.916 -0.1374  0.4703 -0.0122
   54loPI    C1  849   5.788   1.375  10.839 -0.0626 -0.2990  0.0094
   54loPI    C2  850   5.433   1.308  11.011 -0.1518 -0.1525 -0.1146
   54loPI    C3  851   5.747   1.077  11.103 -0.0928  0.1695  0.5533
   54loPI   PO4  852   5.659   1.424  10.553  0.0973 -0.0315  0.1923
   54loPI   GL1  853   5.734   1.350  10.084  0.0310 -0.2233  0.1299
   54loPI   GL2  854   5.818   1.023  10.221  0.0529  0.0307  0.0728
   54loPI   C1A  855   5.731   1.246   9.708 -0.1536  0.1069  0.0126
   54loPI   C2A  856   5.697   1.170   9.304  0.0087  0.0993  0.1982
   54loPI   C3A  857   5.687   1.239   8.892 -0.0736 -0.0384  0.0283
   54loPI   C4A  858   5.666   1.409   8.493 -0.1242 -0.0388 -0.1402
   54loPI   C5A  859   5.660   1.590   8.104  0.3044 -0.1130  0.1554
   54loPI   C6A  860   5.733   1.956   7.937  0.0714  0.1504  0.0430
   54loPI   C1B  861   6.059   0.885   9.882  0.3404  0.1615 -0.0009
   54loPI   C2B  862   6.074   0.840   9.439  0.0162  0.1966  0.1860
   54loPI   C3B  863   6.002   0.796   9.013 -0.1158 -0.0148  0.0350
   54loPI   C4B  864   5.952   0.908   8.538  0.0750 -0.4277 -0.0122
   55loPI    C1  865   4.032  14.883  10.778 -0.2850  0.0265  0.0466
   55loPI    C2  866   4.360  14.943  11.000 -0.1825 -0.0012 -0.0959
   55loPI    C3  867   4.062  14.714  11.139 -0.1452  0.0312  0.0377
   55loPI   PO4  868   4.114  14.797  10.520  0.0199 -0.2581 -0.2353
   55loPI   GL1  869   4.296  14.485  10.221 -0.1787  0.0002 -0.0621
   55loPI   GL2  870   3.973  14.411  10.214  0.1123 -0.1294  0.4033
   55loPI   C1A  871   4.468  14.298   9.814 -0.4290 -0.3200  0.0590
   55loPI   C2A  872   4.506  14.324   9.421 -0.3805  0.0056  0.2750
   55loPI   C3A  873   4.609  14.405   8.978  0.2251  0.4560  0.1644
   55loPI   C4A  874   4.804  14.478   8.531 -0.1782 -0.1311 -0.2807
   55loPI   C5A  875   4.735  14.293   8.120 -0.0859 -0.0350  0.0309
   55loPI   C6A  876   4.534  13.987   7.793 -0.0004 -0.2624  0.0492
   55loPI   C1B  877   3.954  14.291   9.758 -0.2694 -0.1998 -0.3640
   55loPI   C2B  878   4.025  14.224   9.297 -0.0502  0.1500  0.0557
   55loPI   C3B  879   4.066  14.422   8.916 -0.2559  0.1897 -0.2054
   55loPI   C4B  880   4.214  14.448   8.602  0.0811 -0.1185 -0.1183
   56loPI    C1  881  15.965   3.805  11.456  0.1950  0.0021 -0.0262
   56loPI    C2  882  16.284   3.839  11.695  0.0882 -0.2818  0.1612
   56loPI    C3  883  15.953   3.656  11.827 -0.1761  0.0594 -0.0111
   56loPI   PO4  884  16.026   3.746  11.140  0.5456  0.1381  0.2737
   56loPI   GL1  885  16.116   3.862  10.770  0.0470 -0.0607  0.1774
   56loPI   GL2  886  15.885   3.694  10.628 -0.0299 -0.0858 -0.0285
   56loPI   C1A  887  16.372   3.831  10.412  0.0785  0.1331 -0.0478
   56loPI   C2A  888  16.605   3.753  10.033  0.0312  0.0011  0.0215
   56loPI   C3A  889  16.625   3.690   9.569  0.1162  0.0103  0.0191
   56loPI   C4A  890  16.556   3.635   9.183  0.2374 -0.1266 -0.1664
   56loPI   C5A  891  16.650   3.632   8.693 -0.0543 -0.0460  0.2015
   56loPI   C6A  892  16.621   3.859   8.279 -0.0845  0.3855  0.1020
   56loPI   C1B  893  15.955   3.635  10.189  0.1320 -0.5026  0.1379
   56loPI   C2B  894  16.164   3.748   9.814  0.0647 -0.1616 -0.5769
   56loPI   C3B  895  16.107   3.638   9.358  0.2134  0.0010  0.0025
   56loPI   C4B  896  16.202   3.563   8.866  0.2890  0.0053  0.0187
   57loPI    C1  897   8.894  16.756  10.988 -0.1521  0.1129  0.1279
   57loPI    C2  898   8.697  16.604  11.302 -0.2190 -0.0905 -0.0108
   57loPI    C3  899   9.020  16.833  11.360 -0.2900 -0.0439  0.2081
   57loPI   PO4  900   8.661  16.721  10.779 -0.1835 -0.2344  0.2053
   57loPI   GL1  901   8.568  16.614  10.349 -0.2145 -0.1893 -0.0887
   57loPI   GL2  902   8.663  16.322  10.437 -0.2237 -0.0359  0.0235
   57loPI   C1A  903   8.322  16.943  10.126 -0.2712 -0.1863  0.2040
   57loPI   C2A  904   8.391  16.935   9.729  0.0614 -0.0069  0.3278
   57loPI   C3A  905   8.466  16.866   9.345 -0.2999 -0.0284  0.0767
   57loPI   C4A  906   8.442  16.874   8.936 -0.1090  0.0621  0.0633
   57loPI   C5A  907   8.571  17.123   8.411 -0.2565  0.1419  0.0900
   57loPI   C6A  908   8.851  17.393   8.163 -0.0093  0.1413  0.0285
   57loPI   C1B  909   8.830  16.435  10.028 -0.0412 -0.2753  0.2753
   57loPI   C2B  910   8.771  16.438   9.633  0.0239 -0.0112  0.0397
   57loPI   C3B  911   8.840  16.413   9.169  0.1476 -0.1446 -0.1063
   57loPI   C4B  912   8.763  16.326   8.751  0.2451 -0.0906  0.1527
   58loPI    C1  913  10.042  16.003  10.642 -0.1370  0.0280  0.0598
   58loPI    C2  914   9.906  15.947  11.014 -0.2005 -0.0691  0.0222
   58loPI    C3  915  10.300  15.961  10.945 -0.1885 -0.0720  0.0899
   58loPI   PO4  916   9.893  15.872  10.546 -0.0901 -0.1838  0.2375
   58loPI   GL1  917   9.864  15.718  10.209 -0.1721 -0.1261 -0.2410
   58loPI   GL2  918   9.625  15.971  10.121  0.1958  0.0195 -0.0437
   58loPI   C1A  919   9.844  15.599   9.893 -0.1459  0.0212  0.1431
   58loPI   C2A  920   9.991  15.522   9.552  0.0015 -0.0194 -0.1395
   58loPI   C3A  921   9.983  15.614   9.128 -0.0274  0.2967  0.0438
   58loPI   C4A  922   9.870  15.552   8.787 -0.0648 -0.2240  0.1283
   58loPI   C5A  923   9.863  15.660   8.326  0.1852 -0.0720 -0.0604
   58loPI   C6A  924  10.265  15.701   8.147 -0.0324  0.2226  0.0735
   58loPI   C1B  925   9.570  15.947   9.654 -0.1133 -0.2301 -0.0355
   58loPI   C2B  926   9.613  15.947   9.246  0.2856  0.2001 -0.4061
   58loPI   C3B  927   9.582  15.956   8.841 -0.2759 -0.0131  0.4035
   58loPI   C4B  928   9.441  15.958   8.330 -0.0732  0.0363 -0.1152
   59loPI    C1  929   4.409  13.907  10.729 -0.1106 -0.0380  0.1427
   59loPI    C2  930   4.645  13.842  11.046 -0.1591 -0.1431  0.1578
   59loPI    C3  931   4.248  13.827  11.087 -0.1633 -0.3800  0.0462
   59loPI   PO4  932   4.522  14.076  10.571  0.0242  0.3090 -0.0809
   59loPI   GL1  933   4.853  14.285  10.352  0.1642  0.0994 -0.0151
   59loPI   GL2  934   4.739  14.049  10.115 -0.2391  0.0221 -0.1839
   59loPI   C1A  935   5.019  14.395   9.973  0.1862  0.2278  0.1439
   59loPI   C2A  936   5.043  14.373   9.516 -0.0792  0.3197  0.1959
   59loPI   C3A  937   5.093  14.514   9.017  0.3494 -0.0257 -0.0996
   59loPI   C4A  938   5.308  14.453   8.644  0.2056  0.0719 -0.1884
   59loPI   C5A  939   5.576  14.085   8.502 -0.0863  0.1398  0.1449
   59loPI   C6A  940   6.021  13.919   8.300  0.3773  0.0449 -0.0559
   59loPI   C1B  941   4.793  13.891   9.706  0.0129  0.1671 -0.0367
   59loPI   C2B  942   5.005  13.873   9.291 -0.1002  0.1897 -0.2440
   59loPI   C3B  943   5.016  14.006   8.868  0.1643 -0.0853 -0.2165
   59loPI   C4B  944   5.077  13.913   8.429  0.0907 -0.0515  0.0760
   60loPI    C1  945   7.312  12.347  11.308 -0.0695  0.0514  0.1726
   60loPI    C2  946   7.319  11.995  11.499  0.0763 -0.0264  0.0264
   60loPI    C3  947   7.446  12.326  11.684 -0.3421  0.0048  0.2695
   60loPI   PO4  948   7.344  12.259  11.027 -0.1209 -0.0371 -0.0600
   60loPI   GL1  949   7.389  12.005  10.702 -0.3856 -0.0055  0.0773
   60loPI   GL2  950   7.317  11.716  10.537  0.2621 -0.3515 -0.2037
   60loPI   C1A  951   7.569  12.056  10.298  0.3003  0.2263 -0.2098
   60loPI   C2A  952   7.573  12.002   9.808 -0.2007 -0.0828 -0.2547
   60loPI   C3A  953   7.646  12.128   9.384  0.1875  0.1822  0.0706
   60loPI   C4A  954   7.623  12.151   8.914  0.1963 -0.1017  0.2690
   60loPI   C5A  955   7.811  12.053   8.568  0.0200  0.0094 -0.3183
   60loPI   C6A  956   8.262  12.059   8.414  0.0343  0.0560 -0.0225
   60loPI   C1B  957   7.379  11.649  10.132  0.0933 -0.0023 -0.3766
   60loPI   C2B  958   7.444  11.551   9.761  0.2426 -0.0320 -0.1329
   60loPI   C3B  959   7.449  11.610   9.320 -0.2076  0.3078  0.1362
   60loPI   C4B  960   7.512  11.673   8.877 -0.2308 -0.0775  0.0355
   61loPI    C1  961   0.297   2.501  11.229 -0.0892 -0.0193  0.1905
   61loPI    C2  962   0.085   2.288  11.493  0.0013 -0.0107  0.2705
   61loPI    C3  963   0.151   2.677  11.556  0.0590 -0.0180  0.2569
   61loPI   PO4  964   0.289   2.555  10.978 -0.0011 -0.1410  0.0420
   61loPI   GL1  965   0.289   2.314  10.614  0.1785 -0.2167 -0.1241
   61loPI   GL2  966   0.012   2.360  10.494 -0.0110  0.1072 -0.0372
   61loPI   C1A  967   0.562   2.224  10.282  0.1569  0.1141 -0.0426
   61loPI   C2A  968   0.546   2.234   9.909  0.1404  0.0483 -0.1047
   61loPI   C3A  969   0.542   2.182   9.458 -0.2768  0.1705 -0.1421
   61loPI   C4A  970   0.462   2.151   9.008  0.3622  0.1551 -0.1463
   61loPI   C5A  971   0.386   2.199   8.560 -0.1369  0.1725  0.3424
   61loPI   C6A  972   0.154   2.526   8.358 -0.0215 -0.0956 -0.1458
   61loPI   C1B  973   0.050   2.256  10.064  0.1698  0.0381 -0.3215
   61loPI   C2B  974  -0.098   2.261   9.604  0.0015  0.1340  0.1580
   61loPI   C3B  975  -0.049   2.232   9.183  0.3194  0.0665 -0.0777
   61loPI   C4B  976  -0.134   2.207   8.666  0.2009 -0.0089 -0.3761
   62loPI    C1  977  14.939   4.877  11.495  0.2839 -0.0606  0.1037
   62loPI    C2  978  14.681   4.578  11.430  0.1471  0.0809 -0.0119
   62loPI    C3  979  14.899   4.584  11.765 -0.1858  0.0911  0.2096
   62loPI   PO4  980  15.157   4.871  11.224 -0.3521 -0.1349  0.1053
   62loPI   GL1  981  15.334   4.972  10.799 -0.1106  0.1278  0.0932
   62loPI   GL2  982  15.060   4.867  10.631 -0.3851  0.1608  0.1419
   62loPI   C1A  983  15.548   5.080  10.471 -0.0059 -0.0753 -0.2168
   62loPI   C2A  984  15.666   5.343  10.141 -0.0910  0.1282  0.0447
   62loPI   C3A  985  15.439   5.489   9.811 -0.1584  0.2207  0.0042
   62loPI   C4A  986  15.573   5.481   9.323 -0.1094  0.4182 -0.2071
   62loPI   C5A  987  15.683   5.430   8.913 -0.4052  0.1063 -0.0010
   62loPI   C6A  988  15.570   5.110   8.610  0.3031  0.0902 -0.0771
   62loPI   C1B  989  15.056   4.757  10.250  0.2191 -0.1035  0.0525
   62loPI   C2B  990  15.072   4.583   9.782 -0.1211  0.1251  0.3272
   62loPI   C3B  991  14.984   4.639   9.406 -0.1556 -0.0920  0.1404
   62loPI   C4B  992  15.043   4.677   9.015  0.0041  0.1280 -0.0116
   63loPI    C1  993  11.856  14.189  11.002  0.1058 -0.2422  0.1493
   63loPI    C2  994  11.871  14.384  11.350 -0.1423 -0.0444  0.0523
   63loPI    C3  995  11.880  13.985  11.345  0.0796 -0.0448  0.2701
   63loPI   PO4  996  12.034  14.349  10.864 -0.0115  0.0703 -0.0966
   63loPI   GL1  997  11.916  14.557  10.547 -0.4020  0.1338 -0.1059
   63loPI   GL2  998  12.239  14.647  10.478 -0.0914  0.2478  0.0689
   63loPI   C1A  999  11.912  14.539  10.127  0.0948  0.1631  0.1270
   63loPI   C2A 1000  11.960  14.519   9.681 -0.1385  0.2723  0.0400
   63loPI   C3A 1001  11.925  14.471   9.305 -0.0673  0.0143  0.2433
   63loPI   C4A 1002  11.995  14.418   8.865  0.3100  0.2538  0.1181
   63loPI   C5A 1003  12.123  14.466   8.529  0.1558 -0.0737  0.1816
   63loPI   C6A 1004  12.208  14.660   8.136  0.0359 -0.0245  0.1286
   63loPI   C1B 1005  12.385  14.590  10.107  0.1821 -0.2222  0.0255
   63loPI   C2B 1006  12.457  14.553   9.748 -0.2330  0.3146 -0.0989
   63loPI   C3B 1007  12.496  14.500   9.357 -0.0832 -0.2543 -0.2456
   63loPI   C4B 1008  12.481  14.573   8.922  0.2842  0.0727  0.0186
   64loPI    C1 1009  10.025  10.365  11.270 -0.0090 -0.1509 -0.0953
   64loPI    C2 1010   9.768  10.430  11.570  0.0101 -0.1730 -0.0740
   64loPI    C3 1011  10.132  10.283  11.647  0.0943  0.0264 -0.0846
   64loPI   PO4 1012   9.843  10.234  11.091 -0.5217  0.0048  0.0277
   64loPI   GL1 1013   9.698  10.276  10.696 -0.1492 -0.0525 -0.2683
   64loPI   GL2 1014   9.794   9.981  10.661  0.0399 -0.3891 -0.1200
   64loPI   C1A 1015   9.462  10.467  10.307  0.1368  0.1042 -0.4335
   64loPI   C2A 1016   9.389  10.510   9.904 -0.0717  0.1228 -0.1502
   64loPI   C3A 1017   9.382  10.548   9.529 -0.1146 -0.1023  0.1990
   64loPI   C4A 1018   9.480  10.503   9.010 -0.0034  0.2264 -0.6657
   64loPI   C5A 1019   9.383  10.695   8.698  0.2421 -0.1698 -0.1288
   64loPI   C6A 1020   9.109  11.096   8.567 -0.0146  0.0889  0.0782
   64loPI   C1B 1021   9.701  10.016  10.235 -0.0431 -0.1792  0.1548
   64loPI   C2B 1022   9.702  10.085   9.870  0.0111  0.2557  0.3157
   64loPI   C3B 1023   9.592  10.090   9.420  0.0061  0.0325  0.0377
   64loPI   C4B 1024   9.815  10.057   9.001  0.0806  0.1288 -0.0187
   65loPI    C1 1025   7.387  14.689  11.319  0.1345  0.0903  0.0033
   65loPI    C2 1026   7.297  14.301  11.287 -0.0357  0.1350 -0.0760
   65loPI    C3 1027   7.470  14.439  11.620 -0.0263  0.0016 -0.0247
   65loPI   PO4 1028   7.480  14.707  11.047  0.0919 -0.2551  0.2383
   65loPI   GL1 1029   7.516  14.979  10.700 -0.0043 -0.0697  0.2042
   65loPI   GL2 1030   7.754  15.161  10.570 -0.3243  0.1269 -0.0357
   65loPI   C1A 1031   7.248  14.759  10.435  0.1037 -0.0767  0.0454
   65loPI   C2A 1032   7.037  14.757  10.048 -0.1827  0.1052  0.1307
   65loPI   C3A 1033   7.178  14.811   9.566 -0.6408 -0.0791 -0.3637
   65loPI   C4A 1034   7.236  14.730   9.093  0.0449 -0.2020  0.3826
   65loPI   C5A 1035   7.215  14.691   8.651  0.1615  0.1135  0.2016
   65loPI   C6A 1036   7.229  14.634   8.180 -0.1400 -0.0169 -0.0242
   65loPI   C1B 1037   7.642  15.015  10.200 -0.0850 -0.1055  0.0948
   65loPI   C2B 1038   7.631  14.844   9.809 -0.1570  0.0469 -0.1098
   65loPI   C3B 1039   7.713  14.863   9.379  0.2983  0.1996 -0.1470
   65loPI   C4B 1040   7.784  14.704   9.029  0.0625  0.1111 -0.1376
   66loPI    C1 1041   9.396   0.987  11.092 -0.0048  0.1224  0.2411
   66loPI    C2 1042   9.088   0.760  10.976  0.0492  0.3340 -0.3552
   66loPI    C3 1043   9.033   1.050  11.247 -0.1608  0.0499 -0.0864
   66loPI   PO4 1044   9.514   1.069  10.879 -0.0830  0.0942  0.0306
   66loPI   GL1 1045   9.362   0.913  10.568 -0.0136 -0.2006 -0.0845
   66loPI   GL2 1046   9.073   0.719  10.401  0.0932  0.2318  0.0311
   66loPI   C1A 1047   9.444   0.891  10.064 -0.1601  0.0080 -0.2139
   66loPI   C2A 1048   9.439   0.958   9.695  0.0124  0.1440 -0.3098
   66loPI   C3A 1049   9.501   0.778   9.295 -0.0910  0.0989  0.1723
   66loPI   C4A 1050   9.429   0.777   8.954 -0.2362  0.2840 -0.0259
   66loPI   C5A 1051   9.408   0.792   8.488  0.4170 -0.0483 -0.0752
   66loPI   C6A 1052   9.131   0.950   8.170 -0.0531  0.0357 -0.0730
   66loPI   C1B 1053   8.980   0.926  10.008  0.2960  0.2745  0.1027
   66loPI   C2B 1054   8.896   0.825   9.557 -0.0479 -0.0113  0.4461
   66loPI   C3B 1055   8.901   0.794   9.054 -0.1491  0.2060 -0.3124
   66loPI   C4B 1056   8.797   0.753   8.559  0.1777  0.0132  0.0847
   67loPI    C1 1057   1.788  16.862  10.807 -0.2136 -0.0278  0.2024
   67loPI    C2 1058   1.397  16.930  10.754 -0.2002 -0.0168  0.1156
   67loPI    C3 1059   1.519  16.673  11.036 -0.2782 -0.1606  0.0191
   67loPI   PO4 1060   1.887  16.708  10.542  0.0001  0.0122 -0.2833
   67loPI   GL1 1061   1.830  16.448  10.238 -0.1288 -0.0793  0.4401
   67loPI   GL2 1062   1.458  16.480  10.321  0.3365 -0.3965  0.0036
   67loPI   C1A 1063   1.806  16.472   9.751 -0.1106  0.1465 -0.0132
   67loPI   C2A 1064   1.875  16.337   9.369  0.3445 -0.2670  0.0265
   67loPI   C3A 1065   1.862  16.393   8.906 -0.1642 -0.1888 -0.1612
   67loPI   C4A 1066   1.937  16.368   8.486 -0.0226 -0.0595 -0.0243
   67loPI   C5A 1067   1.729  16.350   8.000 -0.3047 -0.2328 -0.1852
   67loPI   C6A 1068   1.791  16.258   7.519 -0.0142  0.1327 -0.6116
   67loPI   C1B 1069   1.301  16.500   9.868  0.0136  0.0231  0.1759
   67loPI   C2B 1070   1.285  16.403   9.467  0.2233  0.0857 -0.2876
   67loPI   C3B 1071   1.333  16.448   9.118 -0.0951 -0.2849 -0.0160
   67loPI   C4B 1072   1.235  16.366   8.739  0.2425  0.1387 -0.1813
   68loPI    C1 1073   2.807   7.506  11.388  0.1466  0.0252 -0.0534
   68loPI    C2 1074   2.690   7.725  11.701 -0.1219 -0.1597 -0.0204
   68loPI    C3 1075   3.061   7.763  11.558 -0.0559  0.0614  0.2017
   68loPI   PO4 1076   2.676   7.524  11.248 -0.1698  0.3428 -0.2287
   68loPI   GL1 1077   2.568   7.442  10.812  0.3095  0.0393 -0.3709
   68loPI   GL2 1078   2.719   7.633  10.718 -0.1689 -0.1276  0.1295
   68loPI   C1A 1079   2.687   7.169  10.482 -0.0622  0.0647  0.1217
   68loPI   C2A 1080   2.577   7.189  10.001 -0.2137  0.2060 -0.0618
   68loPI   C3A 1081   2.708   7.249   9.523  0.0317 -0.2271  0.0778
   68loPI   C4A 1082   2.807   7.094   9.091  0.0417 -0.0073 -0.1717
   68loPI   C5A 1083   2.836   6.945   8.660 -0.1110  0.0330 -0.2673
   68loPI   C6A 1084   3.350   6.810   8.528  0.0745  0.0387 -0.3631
   68loPI   C1B 1085   2.856   7.679  10.380  0.0994  0.0833  0.1263
   68loPI   C2B 1086   2.851   7.596   9.930 -0.1836 -0.0278 -0.3295
   68loPI   C3B 1087   2.940   7.719   9.538 -0.2767  0.2589  0.2233
   68loPI   C4B 1088   2.949   7.571   9.162 -0.0819 -0.0332  0.2776
   69loPI    C1 1089   4.943   4.403  11.033 -0.0254 -0.0382 -0.0159
   69loPI    C2 1090   4.592   4.582  11.101  0.0364  0.0718  0.0166
   69loPI    C3 1091   4.699   4.263  11.317  0.0958  0.2313  0.2265
   69loPI   PO4 1092   5.189   4.665  10.957  0.1971 -0.1634 -0.0363
   69loPI   GL1 1093   5.302   4.858  10.580 -0.2013  0.1414 -0.1628
   69loPI   GL2 1094   5.582   4.776  10.686  0.4436  0.0534 -0.0591
   69loPI   C1A 1095   5.226   4.798  10.162  0.0223 -0.0553 -0.0139
   69loPI   C2A 1096   5.176   4.828   9.737 -0.0613  0.0825 -0.1041
   69loPI   C3A 1097   5.273   4.774   9.337 -0.3308  0.1468  0.2604
   69loPI   C4A 1098   5.249   4.627   8.862 -0.1389 -0.0181 -0.0125
   69loPI   C5A 1099   5.479   4.350   8.640  0.2959  0.3244 -0.0157
   69loPI   C6A 1100   5.616   4.342   8.286 -0.0695  0.3419  0.1546
   69loPI   C1B 1101   5.730   4.859  10.262  0.3077 -0.0301  0.0267
   69loPI   C2B 1102   5.750   4.946   9.834  0.2997  0.0153  0.1312
   69loPI   C3B 1103   5.827   4.968   9.456  0.1880  0.1902 -0.3127
   69loPI   C4B 1104   5.689   4.807   9.046  0.1133 -0.1617  0.0565
   70loPI    C1 1105   4.621  11.553  11.012  0.0878 -0.0843  0.0189
   70loPI    C2 1106   4.607  11.295  11.317 -0.0444 -0.0880  0.0102
   70loPI    C3 1107   4.307  11.553  11.259  0.0844  0.0649  0.0157
   70loPI   PO4 1108   4.716  11.504  10.762 -0.1452  0.0391  0.1900
   70loPI   GL1 1109   4.652  11.675  10.396 -0.0047  0.0203  0.2060
   70loPI   GL2 1110   4.403  11.397  10.353  0.0936  0.0754 -0.0063
   70loPI   C1A 1111   4.524  11.561   9.860  0.0761 -0.0551  0.0757
   70loPI   C2A 1112   4.513  11.465   9.410 -0.0182 -0.0776 -0.0193
   70loPI   C3A 1113   4.517  11.420   9.017  0.1314  0.2243  0.1177
   70loPI   C4A 1114   4.750  11.480   8.701  0.0862 -0.1242 -0.0068
   70loPI   C5A 1115   4.831  11.540   8.285 -0.0419 -0.1702  0.0064
   70loPI   C6A 1116   4.643  11.267   7.949 -0.2875  0.0735  0.4488
   70loPI   C1B 1117   4.364  11.075  10.062 -0.4071 -0.2921  0.0265
   70loPI   C2B 1118   4.309  11.085   9.681 -0.0317  0.0020  0.0330
   70loPI   C3B 1119   4.256  11.071   9.239 -0.0005 -0.1685 -0.0704
   70loPI   C4B 1120   4.412  11.008   8.782  0.1250  0.0151 -0.1595
   71loPI    C1 1121   0.016  14.613  11.101  0.1358 -0.1457 -0.0866
   71loPI    C2 1122   0.112  14.337  11.375 -0.0402 -0.0276  0.0973
   71loPI    C3 1123  -0.219  14.557  11.421  0.0792  0.1896 -0.0665
   71loPI   PO4 1124   0.000  14.534  10.892 -0.0332  0.0730 -0.1480
   71loPI   GL1 1125  -0.089  14.379  10.523 -0.0086  0.0714 -0.0777
   71loPI   GL2 1126   0.177  14.201  10.543  0.1147  0.1999  0.0871
   71loPI   C1A 1127  -0.176  14.307  10.048  0.1405  0.0049 -0.0024
   71loPI   C2A 1128  -0.213  14.291   9.580  0.1592 -0.0050 -0.1193
   71loPI   C3A 1129  -0.210  14.244   9.170  0.3559  0.1813  0.1376
   71loPI   C4A 1130  -0.125  14.314   8.824 -0.1478 -0.2576  0.0137
   71loPI   C5A 1131   0.146  14.316   8.395  0.0577 -0.1933  0.2027
   71loPI   C6A 1132   0.117  14.315   7.945 -0.1260  0.0925 -0.1548
   71loPI   C1B 1133   0.296  14.326  10.176 -0.4270  0.0892 -0.0250
   71loPI   C2B 1134   0.244  14.252   9.799  0.0293 -0.0381 -0.0557
   71loPI   C3B 1135   0.274  14.322   9.320  0.0925  0.0728  0.2055
   71loPI   C4B 1136   0.391  14.346   8.926 -0.3769  0.1074 -0.1040
   72loPI    C1 1137  12.731   3.769  11.571  0.2712 -0.0993  0.0133
   72loPI    C2 1138  12.893   4.133  11.610 -0.0867  0.0686 -0.0244
   72loPI    C3 1139  12.960   3.853  11.888 -0.1140  0.2821  0.2001
   72loPI   PO4 1140  12.833   3.684  11.343  0.1138 -0.0402 -0.2332
   72loPI   GL1 1141  12.862   3.803  10.906 -0.2373 -0.0794 -0.2025
   72loPI   GL2 1142  12.684   3.586  10.678 -0.1240  0.1439 -0.0102
   72loPI   C1A 1143  13.209   3.907  10.514  0.1651  0.2898 -0.4081
   72loPI   C2A 1144  13.370   3.803  10.102 -0.2994 -0.1072 -0.2018
   72loPI   C3A 1145  13.440   3.852   9.644  0.3838  0.0091 -0.1034
   72loPI   C4A 1146  13.427   3.848   9.240  0.3100  0.2146 -0.2746
   72loPI   C5A 1147  13.508   3.798   8.788 -0.0748  0.0116 -0.1755
   72loPI   C6A 1148  13.839   3.736   8.482 -0.0329 -0.0175  0.0240
   72loPI   C1B 1149  12.582   3.561  10.277 -0.0720 -0.0994  0.0722
   72loPI   C2B 1150  12.615   3.512   9.889  0.2413 -0.0103 -0.0775
   72loPI   C3B 1151  12.675   3.411   9.591  0.2326  0.0846  0.2549
   72loPI   C4B 1152  12.601   3.453   9.244  0.2807  0.3744 -0.0862
   73loPI    C1 1153  11.893  12.599  11.193 -0.0913 -0.0221  0.1516
   73loPI    C2 1154  11.907  12.219  11.316 -0.0791 -0.0102  0.1874
   73loPI    C3 1155  12.037  12.511  11.556  0.1084 -0.0023  0.0787
   73loPI   PO4 1156  12.036  12.641  10.976 -0.2686  0.3090  0.1198
   73loPI   GL1 1157  12.197  12.745  10.601 -0.3136 -0.2057 -0.0563
   73loPI   GL2 1158  11.916  12.715  10.444  0.2418 -0.0561  0.4307
   73loPI   C1A 1159  12.336  12.753  10.161 -0.1261  0.1479 -0.0424
   73loPI   C2A 1160  12.211  12.656   9.796 -0.1087 -0.1561  0.1869
   73loPI   C3A 1161  12.158  12.617   9.350 -0.0734 -0.3726 -0.1358
   73loPI   C4A 1162  12.141  12.503   8.943 -0.2890 -0.2916 -0.1642
   73loPI   C5A 1163  12.188  12.670   8.587  0.1426 -0.1887 -0.2700
   73loPI   C6A 1164  12.366  13.156   8.443  0.0979 -0.0666  0.0611
   73loPI   C1B 1165  11.815  12.780  10.163 -0.1059  0.0251  0.1194
   73loPI   C2B 1166  11.712  12.656   9.790  0.2427  0.0902 -0.2067
   73loPI   C3B 1167  11.694  12.529   9.285 -0.1026  0.1176 -0.0511
   73loPI   C4B 1168  11.702  12.625   8.844 -0.1601 -0.0926  0.1908
   74loPI    C1 1169   3.718  13.384  11.055 -0.1966  0.1028 -0.0657
   74loPI    C2 1170   3.503  13.709  11.146 -0.1887  0.0586  0.1150
   74loPI    C3 1171   3.595  13.444  11.431 -0.0649 -0.0250 -0.0013
   74loPI   PO4 1172   3.630  13.244  10.835  0.2925  0.2242 -0.0681
   74loPI   GL1 1173   3.607  13.153  10.530 -0.0158 -0.0306 -0.0100
   74loPI   GL2 1174   3.983  13.137  10.387 -0.0879  0.1827  0.0775
   74loPI   C1A 1175   3.587  13.380  10.076  0.2129  0.2140 -0.0302
   74loPI   C2A 1176   3.677  13.330   9.653  0.0956  0.3238 -0.2440
   74loPI   C3A 1177   3.668  13.188   9.242 -0.0098  0.2605 -0.2032
   74loPI   C4A 1178   3.732  13.118   8.825 -0.1035  0.0789 -0.1555
   74loPI   C5A 1179   3.514  13.123   8.402  0.0408 -0.0624 -0.0863
   74loPI   C6A 1180   3.111  12.945   8.204  0.1126  0.1521  0.2103
   74loPI   C1B 1181   3.917  12.934   9.963  0.0607 -0.1747  0.2367
   74loPI   C2B 1182   3.983  12.865   9.509  0.2154 -0.0772  0.3979
   74loPI   C3B 1183   4.091  12.760   9.079  0.2115  0.5365  0.0750
   74loPI   C4B 1184   4.139  12.845   8.663 -0.0437  0.1955 -0.0180
   75loPI    C1 1185   6.202   3.484  11.191  0.0534  0.0843 -0.1433
   75loPI    C2 1186   6.199   3.152  11.414  0.2223  0.0636 -0.1706
   75loPI    C3 1187   5.908   3.423  11.455  0.1889  0.0043 -0.0092
   75loPI   PO4 1188   6.118   3.442  10.927  0.2243 -0.0992  0.0451
   75loPI   GL1 1189   6.084   3.599  10.485  0.1573 -0.0205 -0.3528
   75loPI   GL2 1190   5.804   3.556  10.459  0.2444  0.2383 -0.0237
   75loPI   C1A 1191   6.251   3.587  10.061 -0.2265 -0.1668 -0.1186
   75loPI   C2A 1192   6.165   3.632   9.614 -0.3024  0.4591  0.1555
   75loPI   C3A 1193   6.318   3.522   9.163  0.0208  0.2630 -0.0183
   75loPI   C4A 1194   6.316   3.527   8.722  0.0706 -0.4222  0.0235
   75loPI   C5A 1195   6.371   3.586   8.301  0.1966  0.0673  0.0366
   75loPI   C6A 1196   6.651   3.679   7.995 -0.0385 -0.0937  0.3885
   75loPI   C1B 1197   5.645   3.625  10.031  0.0869  0.0484  0.4124
   75loPI   C2B 1198   5.710   3.488   9.616  0.0970 -0.0705 -0.3480
   75loPI   C3B 1199   5.773   3.537   9.205  0.2579  0.0992  0.0979
   75loPI   C4B 1200   5.823   3.450   8.818  0.0171  0.0431 -0.0094
   76loPI    C1 1201  11.745   2.778  11.012  0.0663 -0.0856  0.0859
   76loPI    C2 1202  11.543   2.719  11.353  0.3079 -0.2026  0.2118
   76loPI    C3 1203  11.908   2.883  11.362  0.2343 -0.0196 -0.0109
   76loPI   PO4 1204  11.740   2.594  10.883 -0.0213 -0.1915  0.1428
   76loPI   GL1 1205  11.651   2.547  10.470  0.3182  0.0449  0.2186
   76loPI   GL2 1206  11.390   2.733  10.383  0.1244 -0.1532  0.2943
   76loPI   C1A 1207  11.725   2.207  10.091  0.1306  0.3270 -0.2643
   76loPI   C2A 1208  11.740   2.171   9.663 -0.4408  0.0548 -0.0865
   76loPI   C3A 1209  11.661   2.129   9.228 -0.0109  0.0306  0.0832
   76loPI   C4A 1210  11.740   2.138   8.786  0.1623 -0.0683  0.0330
   76loPI   C5A 1211  11.660   2.235   8.391 -0.1586  0.0882  0.2518
   76loPI   C6A 1212  11.617   2.404   7.971  0.0446 -0.1015  0.0788
   76loPI   C1B 1213  11.472   2.664   9.930 -0.1275  0.2146  0.0780
   76loPI   C2B 1214  11.476   2.557   9.426  0.0294  0.0905 -0.1138
   76loPI   C3B 1215  11.442   2.591   9.042  0.2539  0.3250 -0.1280
   76loPI   C4B 1216  11.499   2.596   8.612  0.1801  0.0228  0.0108
   77loPI    C1 1217   4.785  16.201  10.848 -0.0620 -0.2403 -0.2109
   77loPI    C2 1218   5.079  15.968  10.987 -0.0311 -0.0981 -0.0329
   77loPI    C3 1219   4.698  15.876  11.064 -0.0162 -0.0527  0.0972
   77loPI   PO4 1220   4.851  16.236  10.595 -0.5104  0.0561  0.1384
   77loPI   GL1 1221   4.641  16.339  10.231  0.1278 -0.1364 -0.0685
   77loPI   GL2 1222   4.580  16.647  10.129  0.1664 -0.1862  0.0929
   77loPI   C1A 1223   4.753  16.201   9.798 -0.1633 -0.1317  0.0077
   77loPI   C2A 1224   4.524  16.134   9.443  0.1149  0.3066  0.1430
   77loPI   C3A 1225   4.150  15.846   9.506 -0.0015  0.0660 -0.1917
   77loPI   C4A 1226   3.921  15.460   9.471  0.0757  0.0299  0.2083
   77loPI   C5A 1227   3.924  15.310   9.099  0.2260 -0.1525 -0.2680
   77loPI   C6A 1228   3.954  15.362   8.658  0.0202 -0.1792 -0.1032
   77loPI   C1B 1229   4.387  16.549   9.749 -0.3186 -0.2016 -0.0142
   77loPI   C2B 1230   4.172  16.448   9.275  0.3078  0.0740 -0.1281
   77loPI   C3B 1231   4.137  16.084   9.063 -0.2316  0.0771  0.0531
   77loPI   C4B 1232   4.217  15.737   8.914  0.4095  0.0465 -0.1946
   78loPI    C1 1233   6.486  12.008  11.006  0.2008 -0.0757 -0.0444
   78loPI    C2 1234   6.452  12.397  11.094  0.0818 -0.0386 -0.2493
   78loPI    C3 1235   6.297  12.122  11.340  0.0879  0.0471 -0.1491
   78loPI   PO4 1236   6.449  12.071  10.749  0.1197 -0.2069 -0.0208
   78loPI   GL1 1237   6.442  12.471  10.530 -0.1157  0.2856 -0.1027
   78loPI   GL2 1238   6.131  12.395  10.362 -0.1026 -0.0614  0.2573
   78loPI   C1A 1239   6.654  12.307  10.129 -0.0867  0.1701 -0.0588
   78loPI   C2A 1240   6.747  12.452   9.720 -0.0576  0.0922  0.2462
   78loPI   C3A 1241   6.828  12.357   9.300  0.0408 -0.3335 -0.2691
   78loPI   C4A 1242   6.806  12.449   8.967  0.0574  0.1802  0.3249
   78loPI   C5A 1243   6.760  12.281   8.570  0.3041  0.0653  0.0115
   78loPI   C6A 1244   6.957  12.340   8.154 -0.0079 -0.0695 -0.2024
   78loPI   C1B 1245   6.126  12.290   9.965 -0.2398 -0.0709 -0.0199
   78loPI   C2B 1246   6.292  12.266   9.553  0.0485 -0.1795 -0.4274
   78loPI   C3B 1247   6.369  12.304   9.150 -0.0233  0.0676  0.2794
   78loPI   C4B 1248   6.260  12.191   8.784 -0.1613  0.1885 -0.2759
   79loPI    C1 1249  11.699  10.718  10.997 -0.0150 -0.0695 -0.0616
   79loPI    C2 1250  11.345  10.582  11.121 -0.1061 -0.0682 -0.3131
   79loPI    C3 1251  11.676  10.369  11.191 -0.1044  0.0984  0.2359
   79loPI   PO4 1252  11.729  10.767  10.769  0.3190 -0.2491 -0.0969
   79loPI   GL1 1253  11.609  10.675  10.305  0.2993  0.2753 -0.0194
   79loPI   GL2 1254  11.797  10.507  10.197  0.1392  0.0258  0.1790
   79loPI   C1A 1255  11.455  10.840   9.982 -0.1592 -0.1343  0.0622
   79loPI   C2A 1256  11.371  10.775   9.533 -0.2422  0.3420  0.3066
   79loPI   C3A 1257  11.516  10.713   9.048 -0.1411  0.1033  0.0249
   79loPI   C4A 1258  11.288  10.468   8.751  0.1415  0.2186 -0.0325
   79loPI   C5A 1259  11.109  10.196   8.380 -0.0384 -0.2039 -0.1605
   79loPI   C6A 1260  10.986  10.165   7.947 -0.0578  0.4002 -0.2058
   79loPI   C1B 1261  11.772  10.469   9.735 -0.2140  0.2720 -0.1683
   79loPI   C2B 1262  11.934  10.318   9.302  0.0867  0.0763  0.1061
   79loPI   C3B 1263  12.214  10.185   9.038 -0.0086 -0.0376 -0.1832
   79loPI   C4B 1264  12.229  10.089   8.586  0.0603  0.2552  0.1141
   80loPI    C1 1265   3.565   5.189  11.023  0.2286 -0.2504 -0.0366
   80loPI    C2 1266   3.799   5.104  11.337  0.2166  0.1562  0.0894
   80loPI    C3 1267   3.587   5.443  11.332  0.2189  0.1572 -0.3624
   80loPI   PO4 1268   3.620   5.238  10.773  0.0209 -0.0089  0.0959
   80loPI   GL1 1269   3.528   5.509  10.435  0.0750 -0.0314 -0.0259
   80loPI   GL2 1270   3.902   5.537  10.336  0.1694  0.1548 -0.0072
   80loPI   C1A 1271   3.531   5.407   9.988 -0.1855  0.5117 -0.0361
   80loPI   C2A 1272   3.597   5.533   9.666 -0.1590  0.2757 -0.0532
   80loPI   C3A 1273   3.672   5.441   9.270 -0.0961 -0.0816 -0.0278
   80loPI   C4A 1274   3.527   5.510   8.837  0.1096 -0.0019 -0.0212
   80loPI   C5A 1275   3.159   5.521   8.527 -0.1168 -0.2864  0.0937
   80loPI   C6A 1276   2.851   5.682   8.226  0.1512 -0.2284 -0.0673
   80loPI   C1B 1277   4.021   5.537   9.987  0.0416 -0.0007  0.0749
   80loPI   C2B 1278   4.102   5.537   9.530 -0.1716  0.0316  0.0153
   80loPI   C3B 1279   4.122   5.610   9.112  0.0195 -0.0325 -0.3581
   80loPI   C4B 1280   4.004   5.551   8.667  0.0196  0.0497  0.0351
   81loPI    C1 1281   2.614   1.592  11.002 -0.1841  0.1852 -0.1371
   81loPI    C2 1282   2.798   1.385  11.291 -0.2167  0.1663 -0.1300
   81loPI    C3 1283   2.788   1.784  11.306 -0.4378  0.1565  0.0283
   81loPI   PO4 1284   2.731   1.430  10.796  0.0847 -0.3289  0.1734
   81loPI   GL1 1285   2.723   1.232  10.441  0.1181  0.2837  0.1092
   81loPI   GL2 1286   2.971   1.404  10.294 -0.0466 -0.0877  0.4439
   81loPI   C1A 1287   2.503   1.091  10.019 -0.2211 -0.0469 -0.0210
   81loPI   C2A 1288   2.584   1.190   9.548  0.1417 -0.1156  0.2886
   81loPI   C3A 1289   2.436   1.227   9.139 -0.0064 -0.2195  0.3869
   81loPI   C4A 1290   2.562   1.244   8.784  0.2467  0.1112 -0.1026
   81loPI   C5A 1291   2.525   1.195   8.429 -0.0196  0.0097  0.0078
   81loPI   C6A 1292   2.853   1.174   8.090 -0.0290 -0.0294 -0.1186
   81loPI   C1B 1293   2.853   1.446   9.932  0.1421 -0.0416  0.1091
   81loPI   C2B 1294   2.916   1.551   9.443 -0.1368  0.3294 -0.0239
   81loPI   C3B 1295   2.755   1.640   9.056 -0.0637 -0.0816  0.0993
   81loPI   C4B 1296   2.832   1.636   8.587 -0.0709 -0.1121 -0.0680
   82loPI    C1 1297  12.427   5.442  11.555  0.1420 -0.1073  0.2028
   82loPI    C2 1298  12.159   5.394  11.848  0.1096  0.0973  0.2083
   82loPI    C3 1299  12.369   5.733  11.823  0.0725  0.1036 -0.0377
   82loPI   PO4 1300  12.318   5.443  11.258 -0.1292 -0.1983  0.0217
   82loPI   GL1 1301  12.433   5.410  10.855  0.0700  0.3016  0.1003
   82loPI   GL2 1302  12.559   5.702  10.818 -0.2429 -0.0526  0.2753
   82loPI   C1A 1303  12.101   5.318  10.505 -0.0461 -0.0959  0.0170
   82loPI   C2A 1304  11.930   5.358  10.050  0.3650 -0.0071 -0.2116
   82loPI   C3A 1305  12.025   5.228   9.684 -0.1869  0.0031 -0.1757
   82loPI   C4A 1306  12.187   5.187   9.155  0.0867 -0.0969 -0.1444
   82loPI   C5A 1307  12.344   5.116   8.729  0.2298 -0.1868  0.1394
   82loPI   C6A 1308  12.163   4.999   8.355 -0.1821 -0.2467 -0.0884
   82loPI   C1B 1309  12.345   5.768  10.501  0.2977 -0.1821  0.0497
   82loPI   C2B 1310  12.385   5.626  10.054 -0.1495 -0.1349 -0.0727
   82loPI   C3B 1311  12.359   5.652   9.582  0.1223 -0.1489 -0.0928
   82loPI   C4B 1312  12.539   5.591   9.123 -0.4990  0.1606  0.1112
   83loPI    C1 1313   5.423   2.713  11.119 -0.1277  0.1264  0.1105
   83loPI    C2 1314   5.789   2.795  10.982 -0.1224 -0.2007 -0.0800
   83loPI    C3 1315   5.663   2.959  11.324  0.1885 -0.0594 -0.0293
   83loPI   PO4 1316   5.276   2.753  10.845  0.2133  0.1853 -0.2832
   83loPI   GL1 1317   5.346   2.843  10.473 -0.0450  0.1130 -0.2408
   83loPI   GL2 1318   5.355   3.157  10.433  0.1506 -0.0337 -0.0912
   83loPI   C1A 1319   5.228   2.603  10.118  0.1907  0.1235 -0.0081
   83loPI   C2A 1320   5.237   2.671   9.695  0.4161 -0.1088 -0.0885
   83loPI   C3A 1321   5.290   2.467   9.241 -0.1533 -0.2352  0.1645
   83loPI   C4A 1322   5.423   2.484   8.791  0.0155  0.3732 -0.2482
   83loPI   C5A 1323   5.474   2.310   8.302 -0.1728 -0.0009  0.0677
   83loPI   C6A 1324   5.204   2.100   8.007 -0.3098  0.0629 -0.0914
   83loPI   C1B 1325   5.418   3.142  10.038 -0.0225 -0.3829 -0.0479
   83loPI   C2B 1326   5.620   2.973   9.664  0.0562  0.4187 -0.1550
   83loPI   C3B 1327   5.541   2.907   9.255  0.1930  0.2289  0.1883
   83loPI   C4B 1328   5.643   2.919   8.901  0.1602  0.1877  0.1265
   84loPI    C1 1329  16.639  10.510  11.365 -0.0033  0.0324 -0.2152
   84loPI    C2 1330  17.011  10.643  11.430 -0.0456  0.1156 -0.1402
   84loPI    C3 1331  16.714  10.753  11.674 -0.1487  0.1766 -0.2916
   84loPI   PO4 1332  16.622  10.490  11.050  0.0618  0.1913 -0.0267
   84loPI   GL1 1333  16.598  10.649  10.658 -0.2049  0.0924 -0.0867
   84loPI   GL2 1334  16.836  10.685  10.536 -0.0730  0.1388 -0.0867
   84loPI   C1A 1335  16.331  10.629  10.447 -0.1682 -0.0326  0.0831
   84loPI   C2A 1336  16.378  10.771  10.128  0.0192 -0.1406 -0.3894
   84loPI   C3A 1337  16.388  10.851   9.652  0.1019  0.2627 -0.2778
   84loPI   C4A 1338  16.566  10.790   9.304  0.0850  0.3605  0.2308
   84loPI   C5A 1339  16.579  10.833   8.838  0.1700 -0.1153 -0.0215
   84loPI   C6A 1340  16.293  10.877   8.414  0.0512  0.1750  0.3684
   84loPI   C1B 1341  16.968  10.748  10.107  0.1869 -0.1231 -0.1069
   84loPI   C2B 1342  16.926  10.846   9.687  0.0150  0.1318  0.3057
   84loPI   C3B 1343  17.058  10.767   9.263 -0.1916  0.1178  0.4336
   84loPI   C4B 1344  17.237  10.688   8.904  0.3593 -0.1110  0.2413
   85loPI    C1 1345   3.813  14.049  10.739  0.2821 -0.0400  0.0057
   85loPI    C2 1346   4.113  14.313  10.725  0.1279  0.1522  0.2491
   85loPI    C3 1347   3.903  14.266  11.063 -0.1014  0.0036  0.0886
   85loPI   PO4 1348   3.831  13.799  10.726 -0.1527  0.2074  0.2636
   85loPI   GL1 1349   4.045  13.624  10.457  0.0105 -0.1801 -0.0994
   85loPI   GL2 1350   4.153  13.941  10.295 -0.0546 -0.1293  0.0580
   85loPI   C1A 1351   4.209  13.422  10.032 -0.2587 -0.0687  0.0271
   85loPI   C2A 1352   4.225  13.330   9.626  0.0053  0.0131  0.1543
   85loPI   C3A 1353   4.207  13.201   9.206  0.0311 -0.0631 -0.1359
   85loPI   C4A 1354   4.195  13.335   8.852 -0.3438 -0.2033 -0.2812
   85loPI   C5A 1355   4.351  13.633   8.440 -0.3630  0.0263  0.2258
   85loPI   C6A 1356   4.668  13.760   8.197 -0.0601 -0.0470 -0.0629
   85loPI   C1B 1357   4.279  13.887   9.822  0.0216  0.2608  0.2424
   85loPI   C2B 1358   4.313  13.784   9.457  0.2057  0.0278 -0.1555
   85loPI   C3B 1359   4.524  13.863   9.050 -0.1738 -0.4476 -0.2423
   85loPI   C4B 1360   4.585  14.034   8.624 -0.1467  0.0645  0.0957
   86loPI    C1 1361  12.163  16.958  11.513  0.0873 -0.0589 -0.1089
   86loPI    C2 1362  12.333  17.270  11.696 -0.1357  0.0554 -0.0921
   86loPI    C3 1363  12.127  17.002  11.909  0.1685 -0.1808 -0.0874
   86loPI   PO4 1364  12.187  17.093  11.240 -0.2616  0.1490 -0.1685
   86loPI   GL1 1365  12.373  17.180  10.848 -0.1955  0.2200 -0.3467
   86loPI   GL2 1366  12.535  16.914  10.789  0.2632  0.0398  0.1064
   86loPI   C1A 1367  12.213  17.270  10.455 -0.0984 -0.3828  0.3078
   86loPI   C2A 1368  12.241  17.250  10.086  0.2873 -0.0761 -0.2477
   86loPI   C3A 1369  12.169  17.269   9.528  0.4727 -0.0039 -0.0587
   86loPI   C4A 1370  12.176  17.322   9.085 -0.1625 -0.3419  0.0182
   86loPI   C5A 1371  12.019  17.073   8.812 -0.1512 -0.0409  0.1444
   86loPI   C6A 1372  11.571  17.185   8.720  0.0483  0.0858  0.2209
   86loPI   C1B 1373  12.482  16.843  10.288 -0.0895 -0.1844  0.3170
   86loPI   C2B 1374  12.466  16.864   9.857  0.4052 -0.0352  0.1513
   86loPI   C3B 1375  12.432  16.869   9.462  0.0339 -0.0193 -0.1132
   86loPI   C4B 1376  12.385  16.876   9.005 -0.1155  0.0909 -0.1760
   87loPI    C1 1377   1.904   4.270  11.294  0.0472 -0.0221 -0.0986
   87loPI    C2 1378   2.116   3.967  11.446  0.1433  0.1365  0.0874
   87loPI    C3 1379   1.784   4.091  11.632 -0.0528 -0.0366 -0.1413
   87loPI   PO4 1380   1.937   4.190  11.018  0.1936 -0.1875  0.1809
   87loPI   GL1 1381   1.936   4.425  10.559 -0.0736 -0.4331 -0.0500
   87loPI   GL2 1382   1.808   4.152  10.533  0.2691 -0.0580 -0.0349
   87loPI   C1A 1383   2.069   4.455  10.131  0.0253  0.0602  0.0925
   87loPI   C2A 1384   2.017   4.351   9.692  0.2500  0.0768 -0.0527
   87loPI   C3A 1385   2.050   4.390   9.180 -0.0482 -0.0481 -0.0957
   87loPI   C4A 1386   1.805   4.280   8.804  0.1948  0.0157 -0.0478
   87loPI   C5A 1387   1.607   4.000   8.419 -0.1792 -0.0204 -0.1240
   87loPI   C6A 1388   1.517   3.866   8.098  0.3799  0.1981 -0.0119
   87loPI   C1B 1389   1.784   3.915  10.196 -0.1056  0.0931  0.3916
   87loPI   C2B 1390   1.721   3.828   9.786 -0.0064 -0.0397 -0.0639
   87loPI   C3B 1391   1.722   3.858   9.345 -0.0193  0.1180  0.0136
   87loPI   C4B 1392   1.566   3.850   8.938 -0.1783 -0.0157  0.1470
   88loPI    C1 1393   9.570   9.044  11.160 -0.3533 -0.3274  0.0652
   88loPI    C2 1394   9.410   9.342  11.373 -0.1744 -0.0694 -0.1536
   88loPI    C3 1395   9.676   9.096  11.542 -0.1604  0.0284 -0.0314
   88loPI   PO4 1396   9.554   9.215  10.927  0.0706 -0.0728 -0.1433
   88loPI   GL1 1397   9.523   9.151  10.494 -0.0390 -0.1215 -0.3008
   88loPI   GL2 1398   9.232   9.078  10.340  0.2024 -0.2848  0.3635
   88loPI   C1A 1399   9.804   9.117  10.212 -0.0488  0.0168 -0.0597
   88loPI   C2A 1400   9.814   9.149   9.768 -0.3360 -0.1651  0.2190
   88loPI   C3A 1401   9.767   9.210   9.322  0.2353 -0.2848 -0.1216
   88loPI   C4A 1402   9.875   9.190   8.967 -0.2584  0.1366  0.1235
   88loPI   C5A 1403   9.949   9.100   8.567 -0.1522  0.0976  0.0827
   88loPI   C6A 1404   9.991   9.121   8.103  0.0945  0.3180  0.0447
   88loPI   C1B 1405   9.341   9.098   9.930 -0.2714 -0.0237 -0.2617
   88loPI   C2B 1406   9.336   9.110   9.444 -0.0953 -0.1792  0.0308
   88loPI   C3B 1407   9.389   9.040   9.044 -0.5623 -0.0097 -0.0887
   88loPI   C4B 1408   9.483   9.122   8.624 -0.1053  0.0831  0.0252
   89loPI    C1 1409   5.549  15.703  11.004  0.1443  0.0901  0.0603
   89loPI    C2 1410   5.788  15.932  11.228  0.2571 -0.0805  0.1162
   89loPI    C3 1411   5.427  15.827  11.364  0.1108  0.2522 -0.0062
   89loPI   PO4 1412   5.565  15.837  10.750 -0.0425 -0.2298 -0.1097
   89loPI   GL1 1413   5.586  15.476  10.406  0.4529 -0.2525  0.1943
   89loPI   GL2 1414   5.367  15.234  10.364  0.1673 -0.0542 -0.0678
   89loPI   C1A 1415   5.775  15.472  10.019  0.1155  0.2452  0.0248
   89loPI   C2A 1416   5.964  15.399   9.564 -0.1756 -0.1140 -0.2172
   89loPI   C3A 1417   6.037  15.449   9.145  0.1586  0.0872 -0.2979
   89loPI   C4A 1418   6.104  15.693   8.799  0.0402  0.2369  0.1055
   89loPI   C5A 1419   6.280  15.527   8.401  0.1215  0.4801 -0.0735
   89loPI   C6A 1420   6.352  15.244   8.069 -0.2056 -0.1862 -0.0469
   89loPI   C1B 1421   5.247  15.394   9.982  0.0067  0.0285  0.1354
   89loPI   C2B 1422   5.365  15.418   9.504 -0.1843  0.3833  0.0126
   89loPI   C3B 1423   5.503  15.516   9.124  0.1318 -0.0133  0.0112
   89loPI   C4B 1424   5.579  15.451   8.716  0.0282 -0.4892  0.0539
   90loPI    C1 1425  17.200  15.807  11.221  0.0021  0.0857  0.1171
   90loPI    C2 1426  17.583  15.756  11.325  0.0383 -0.2496 -0.1639
   90loPI    C3 1427  17.295  15.727  11.601  0.2077 -0.0766  0.0334
   90loPI   PO4 1428  17.160  15.961  11.075  0.2424 -0.2839  0.3215
   90loPI   GL1 1429  16.919  15.921  10.717 -0.0860 -0.2421 -0.2807
   90loPI   GL2 1430  17.136  15.727  10.511 -0.3011 -0.0401  0.0353
   90loPI   C1A 1431  16.798  16.106  10.297  0.1398 -0.0249 -0.0403
   90loPI   C2A 1432  16.819  16.190   9.892  0.0043  0.1852  0.0290
   90loPI   C3A 1433  16.713  16.058   9.496 -0.0850 -0.0679  0.0304
   90loPI   C4A 1434  16.701  16.129   9.068  0.0688 -0.1631 -0.0937
   90loPI   C5A 1435  16.593  16.254   8.586 -0.2020 -0.0237 -0.0901
   90loPI   C6A 1436  16.544  16.356   8.222  0.2509 -0.0569 -0.0341
   90loPI   C1B 1437  17.011  15.666   9.982 -0.0551 -0.0477  0.2087
   90loPI   C2B 1438  17.009  15.578   9.532  0.1019  0.1111  0.0390
   90loPI   C3B 1439  16.961  15.706   9.184  0.3127  0.1219  0.0074
   90loPI   C4B 1440  16.874  15.704   8.725 -0.2318 -0.4732  0.4131
   91loPI    C1 1441  17.795   9.979  11.257 -0.0819 -0.1151 -0.3106
   91loPI    C2 1442  17.657   9.713  11.522  0.1077 -0.0693 -0.1635
   91loPI    C3 1443  17.479  10.069  11.486  0.0625 -0.0874 -0.1196
   91loPI   PO4 1444  17.819   9.795  10.997  0.1639  0.0612 -0.1541
   91loPI   GL1 1445  17.670  10.081  10.660 -0.0722  0.4115 -0.2843
   91loPI   GL2 1446  17.676  10.249  10.471 -0.1085 -0.2399 -0.1243
   91loPI   C1A 1447  17.833   9.809  10.341 -0.2552 -0.0130 -0.0401
   91loPI   C2A 1448  17.878   9.808   9.974 -0.3393  0.0755 -0.0747
   91loPI   C3A 1449  17.875   9.771   9.485  0.3157 -0.1726  0.3354
   91loPI   C4A 1450  18.005   9.859   9.086 -0.0337  0.2376  0.3714
   91loPI   C5A 1451  17.917   9.970   8.733  0.1876 -0.0002 -0.2975
   91loPI   C6A 1452  17.973   9.778   8.408  0.1410  0.2674  0.1945
   91loPI   C1B 1453  17.679  10.221  10.072 -0.0418  0.1185 -0.0252
   91loPI   C2B 1454  17.690  10.219   9.624 -0.0852 -0.2153  0.1366
   91loPI   C3B 1455  17.679  10.300   9.198  0.1706 -0.1412 -0.1110
   91loPI   C4B 1456  17.497  10.262   8.743 -0.0411 -0.0244  0.2830
   92loPI    C1 1457  13.671   9.952  11.128  0.3300  0.0542  0.0422
   92loPI    C2 1458  13.779   9.615  10.940 -0.2355 -0.1170  0.0044
   92loPI    C3 1459  13.750   9.621  11.339  0.1134 -0.0052  0.0323
   92loPI   PO4 1460  13.753  10.173  10.940  0.1406  0.2645 -0.0833
   92loPI   GL1 1461  13.694  10.236  10.476  0.0574  0.2796  0.0048
   92loPI   GL2 1462  13.762   9.891  10.509  0.3264  0.0098 -0.0805
   92loPI   C1A 1463  14.040  10.357  10.207 -0.0603 -0.2592 -0.0338
   92loPI   C2A 1464  14.007  10.467   9.690  0.1398  0.1208  0.3312
   92loPI   C3A 1465  14.127  10.545   9.261  0.0976  0.1440  0.0740
   92loPI   C4A 1466  14.143  10.463   8.769 -0.1905 -0.2221 -0.0787
   92loPI   C5A 1467  14.062  10.367   8.447 -0.0346 -0.1696  0.2121
   92loPI   C6A 1468  13.984  10.368   8.063 -0.2302 -0.0519  0.1357
   92loPI   C1B 1469  13.725  10.022  10.022 -0.0555  0.0244 -0.1867
   92loPI   C2B 1470  13.762  10.058   9.571 -0.1918 -0.0866  0.1056
   92loPI   C3B 1471  13.856  10.031   9.143 -0.2665  0.4162 -0.1127
   92loPI   C4B 1472  13.832  10.075   8.768  0.1855 -0.0729 -0.0236
   93loPI    C1 1473   0.012  10.596  11.403  0.1706 -0.0570  0.1114
   93loPI    C2 1474  -0.366  10.563  11.531  0.0854  0.0186 -0.1168
   93loPI    C3 1475  -0.065  10.573  11.795 -0.0714 -0.0426  0.0659
   93loPI   PO4 1476   0.104  10.458  11.199  0.3815 -0.1349 -0.1646
   93loPI   GL1 1477   0.097  10.616  10.860  0.3425 -0.1460 -0.3057
   93loPI   GL2 1478   0.279  10.292  10.697 -0.1651 -0.2740  0.2245
   93loPI   C1A 1479   0.050  10.676  10.418  0.1849 -0.3740 -0.0279
   93loPI   C2A 1480   0.047  10.643   9.895 -0.1933  0.1087  0.0965
   93loPI   C3A 1481   0.181  10.633   9.494  0.1804 -0.0888 -0.0059
   93loPI   C4A 1482   0.401  10.844   9.114 -0.2420 -0.2572 -0.1792
   93loPI   C5A 1483   0.449  10.864   8.727 -0.1509  0.4788  0.0219
   93loPI   C6A 1484   0.141  11.074   8.463 -0.0787  0.0206  0.2345
   93loPI   C1B 1485   0.308  10.281  10.217  0.0782 -0.0938  0.0124
   93loPI   C2B 1486   0.320  10.240   9.795  0.0773 -0.3746  0.1627
   93loPI   C3B 1487   0.338  10.199   9.373  0.0670 -0.1328  0.0119
   93loPI   C4B 1488   0.274  10.378   8.934 -0.0260 -0.4448  0.0719
   94loPI    C1 1489   8.646   9.677  11.277  0.2635  0.0089 -0.1970
   94loPI    C2 1490   8.893   9.373  11.358  0.2433  0.0453  0.0065
   94loPI    C3 1491   8.505   9.345  11.449  0.1739 -0.0037 -0.2937
   94loPI   PO4 1492   8.658   9.679  10.993  0.3755  0.0092  0.1769
   94loPI   GL1 1493   8.801   9.768  10.618  0.0395  0.2464 -0.2283
   94loPI   GL2 1494   8.585   9.926  10.449  0.1487  0.0473 -0.0194
   94loPI   C1A 1495   8.998   9.488  10.225 -0.1063  0.1627 -0.0027
   94loPI   C2A 1496   8.976   9.444   9.795  0.0707  0.2545  0.0068
   94loPI   C3A 1497   8.941   9.556   9.369  0.0347  0.0591 -0.2625
   94loPI   C4A 1498   9.157   9.430   8.921  0.4312 -0.1333  0.0439
   94loPI   C5A 1499   9.249   9.560   8.595 -0.0637 -0.1302  0.1203
   94loPI   C6A 1500   9.580   9.516   8.282  0.3359 -0.1176 -0.2389
   94loPI   C1B 1501   8.644   9.942   9.959  0.0546 -0.1766 -0.2243
   94loPI   C2B 1502   8.600   9.868   9.572 -0.0392  0.2278 -0.0956
   94loPI   C3B 1503   8.697   9.920   9.163 -0.0984 -0.0631  0.1608
   94loPI   C4B 1504   8.652   9.990   8.643  0.0595  0.0179  0.0903
   95loPI    C1 1505   9.084  14.073  11.113 -0.1209  0.0898  0.0233
   95loPI    C2 1506   8.870  14.001  11.443  0.2851 -0.0679  0.2588
   95loPI    C3 1507   9.270  14.013  11.462  0.3078  0.0751 -0.2007
   95loPI   PO4 1508   9.058  13.859  10.941 -0.0933  0.2896 -0.0200
   95loPI   GL1 1509   9.202  13.614  10.500  0.2087 -0.0901 -0.0374
   95loPI   GL2 1510   9.236  13.866  10.458 -0.0966 -0.3729  0.4253
   95loPI   C1A 1511   8.980  13.697  10.090 -0.1656 -0.2566 -0.1786
   95loPI   C2A 1512   9.101  13.665   9.686  0.2577  0.1118 -0.2691
   95loPI   C3A 1513   9.211  13.566   9.270 -0.1579  0.1905 -0.0026
   95loPI   C4A 1514   9.226  13.639   8.824  0.2561  0.3520  0.1106
   95loPI   C5A 1515   9.115  13.767   8.397 -0.0254  0.0431  0.2265
   95loPI   C6A 1516   9.163  13.756   7.903  0.0659  0.0263 -0.1805
   95loPI   C1B 1517   9.498  13.845   9.999  0.0633 -0.0738  0.2304
   95loPI   C2B 1518   9.645  13.714   9.662 -0.3820  0.0322  0.1873
   95loPI   C3B 1519   9.775  13.741   9.191  0.2003 -0.4377 -0.0517
   95loPI   C4B 1520   9.787  13.711   8.714  0.3176 -0.1346  0.0921
   96loPI    C1 1521   8.010   3.111  10.888  0.0743  0.0387  0.0091
   96loPI    C2 1522   8.084   2.878  11.204 -0.1935 -0.2144 -0.1101
   96loPI    C3 1523   7.970   3.258  11.258  0.0820 -0.1569  0.0888
   96loPI   PO4 1524   7.799   3.119  10.681 -0.1371  0.1029 -0.1823
   96loPI   GL1 1525   7.744   2.838  10.500 -0.0179  0.6118 -0.2351
   96loPI   GL2 1526   7.709   2.596  10.388  0.0943  0.1384  0.0258
   96loPI   C1A 1527   7.902   2.880  10.076 -0.1586 -0.1118  0.2876
   96loPI   C2A 1528   7.887   2.858   9.628  0.1155 -0.0094  0.2215
   96loPI   C3A 1529   7.953   3.009   9.129  0.4295 -0.2224 -0.0312
   96loPI   C4A 1530   8.099   3.101   8.694 -0.0785  0.1056 -0.1608
   96loPI   C5A 1531   8.134   3.299   8.241  0.2362 -0.3526  0.0879
   96loPI   C6A 1532   8.214   3.319   7.721 -0.0780  0.0294  0.0289
   96loPI   C1B 1533   7.590   2.525   9.934 -0.3650  0.1099  0.1004
   96loPI   C2B 1534   7.391   2.684   9.507 -0.1962  0.1224  0.3961
   96loPI   C3B 1535   7.484   2.880   9.074  0.2841 -0.0700 -0.0618
   96loPI   C4B 1536   7.448   2.992   8.537 -0.2003 -0.3079 -0.0364
   97loPI    C1 1537   5.635  17.129  11.080 -0.0460 -0.1378  0.0469
   97loPI    C2 1538   5.328  17.103  10.824 -0.1821  0.1729  0.1730
   97loPI    C3 1539   5.263  17.205  11.206  0.0430 -0.0852  0.2840
   97loPI   PO4 1540   5.850  17.118  10.879  0.2558  0.0578 -0.0097
   97loPI   GL1 1541   5.835  16.951  10.392  0.3346  0.0110 -0.3640
   97loPI   GL2 1542   5.388  16.990  10.317 -0.2893  0.4611  0.0469
   97loPI   C1A 1543   5.935  16.880   9.997 -0.0521  0.1682 -0.0274
   97loPI   C2A 1544   5.838  16.852   9.640 -0.0722 -0.0281 -0.1684
   97loPI   C3A 1545   5.754  16.861   9.221 -0.2011  0.1193 -0.1360
   97loPI   C4A 1546   5.680  16.810   8.822  0.5722 -0.1922 -0.3632
   97loPI   C5A 1547   5.606  16.704   8.555 -0.0248 -0.3807 -0.0843
   97loPI   C6A 1548   5.472  16.325   8.341 -0.0136  0.0599  0.4357
   97loPI   C1B 1549   5.400  16.911   9.835  0.1429 -0.0771 -0.1708
   97loPI   C2B 1550   5.289  16.812   9.393  0.0297  0.0972 -0.1280
   97loPI   C3B 1551   5.209  16.686   9.013  0.1023  0.2576  0.0592
   97loPI   C4B 1552   4.813  16.747   8.838  0.2096 -0.1767 -0.1243
   98loPI    C1 1553  10.590   9.106  11.177 -0.3216  0.2354 -0.1050
   98loPI    C2 1554  10.504   8.792  11.409 -0.1078  0.0231 -0.3090
   98loPI    C3 1555  10.345   9.149  11.491 -0.3484 -0.1347 -0.0708
   98loPI   PO4 1556  10.586   9.010  10.894  0.1678 -0.0209  0.1106
   98loPI   GL1 1557  10.645   8.840  10.516  0.0717  0.1246  0.1790
   98loPI   GL2 1558  10.690   8.590  10.515  0.0691  0.0477 -0.1888
   98loPI   C1A 1559  10.795   8.860  10.061 -0.3565  0.1595  0.0112
   98loPI   C2A 1560  10.570   8.889   9.605 -0.0256 -0.2994 -0.2517
   98loPI   C3A 1561  10.761   8.869   9.189 -0.1853  0.1513  0.2126
   98loPI   C4A 1562  10.703   8.582   8.823  0.1387 -0.3315 -0.2229
   98loPI   C5A 1563  10.576   8.354   8.438 -0.3671  0.0735 -0.1108
   98loPI   C6A 1564  10.595   8.256   8.056  0.0232 -0.0427  0.1688
   98loPI   C1B 1565  10.546   8.434  10.197 -0.0489 -0.2124 -0.1176
   98loPI   C2B 1566  10.530   8.386   9.816 -0.2780 -0.0726 -0.0737
   98loPI   C3B 1567  10.562   8.014   9.528  0.1200 -0.0398 -0.0318
   98loPI   C4B 1568  10.292   7.807   9.238  0.1194 -0.3712  0.0262
   99loPI    C1 1569   3.401  11.302  11.349 -0.0126  0.0193 -0.2631
   99loPI    C2 1570   3.765  11.339  11.511 -0.1046 -0.2668  0.0210
   99loPI    C3 1571   3.463  11.564  11.645 -0.0191  0.0327 -0.2735
   99loPI   PO4 1572   3.525  11.052  11.136 -0.0679  0.2699  0.1971
   99loPI   GL1 1573   3.663  10.997  10.636  0.0760 -0.1369 -0.2208
   99loPI   GL2 1574   3.959  11.114  10.469 -0.3650  0.2462 -0.1255
   99loPI   C1A 1575   3.615  10.656  10.257 -0.1731 -0.1159 -0.2012
   99loPI   C2A 1576   3.721  10.538   9.878  0.0714 -0.0743 -0.1486
   99loPI   C3A 1577   3.586  10.574   9.564 -0.1725 -0.2433 -0.2361
   99loPI   C4A 1578   3.544  10.510   9.135 -0.1525  0.1507 -0.0546
   99loPI   C5A 1579   3.758  10.478   8.689 -0.1910  0.1656  0.2431
   99loPI   C6A 1580   4.132  10.605   8.358  0.0677 -0.0215  0.2687
   99loPI   C1B 1581   3.888  11.088  10.030  0.1606  0.1447 -0.0059
   99loPI   C2B 1582   3.778  11.068   9.574 -0.0048 -0.1309  0.0775
   99loPI   C3B 1583   3.691  11.015   9.171 -0.1454 -0.1548 -0.0996
   99loPI   C4B 1584   3.887  10.934   8.789  0.0776 -0.1187  0.2680
  100loPI    C1 1585   9.261  12.808  11.096  0.4171 -0.1611 -0.0518
  100loPI    C2 1586   9.161  12.624  11.437  0.0154 -0.0348 -0.0965
  100loPI    C3 1587   9.305  12.997  11.445 -0.0765  0.0004 -0.0692
  100loPI   PO4 1588   9.102  12.789  10.888  0.0586  0.0642 -0.1986
  100loPI   GL1 1589   9.016  12.730  10.473  0.2983  0.1972 -0.1854
  100loPI   GL2 1590   9.371  12.712  10.409 -0.1253  0.0236 -0.1296
  100loPI   C1A 1591   8.768  12.692  10.199 -0.0821 -0.2523  0.0761
  100loPI   C2A 1592   8.816  12.757   9.735  0.1550  0.0352  0.2955
  100loPI   C3A 1593   8.845  12.769   9.285  0.0136 -0.0025  0.1106
  100loPI   C4A 1594   8.852  12.753   8.836  0.1444  0.2238  0.1857
  100loPI   C5A 1595   9.039  12.718   8.378  0.1148 -0.1663 -0.0347
  100loPI   C6A 1596   9.092  12.658   7.913 -0.0040  0.0512 -0.1758
  100loPI   C1B 1597   9.314  12.751  10.031  0.1155  0.4213 -0.1367
  100loPI   C2B 1598   9.350  12.790   9.617  0.1126 -0.1285 -0.1722
  100loPI   C3B 1599   9.356  12.780   9.131  0.1586 -0.1882 -0.1043
  100loPI   C4B 1600   9.354  12.919   8.705  0.0512  0.1781  0.1625
  101loPI    C1 1601  13.602   7.825  11.341 -0.2270 -0.1362 -0.1783
  101loPI    C2 1602  13.448   7.671  11.677  0.0565 -0.0712 -0.0152
  101loPI    C3 1603  13.610   8.037  11.680 -0.0283 -0.0297 -0.2481
  101loPI   PO4 1604  13.497   7.761  11.136 -0.1386 -0.3718 -0.4047
  101loPI   GL1 1605  13.712   7.631  10.693 -0.1758 -0.0364 -0.2041
  101loPI   GL2 1606  13.447   7.895  10.552 -0.0924 -0.0175 -0.0978
  101loPI   C1A 1607  13.841   7.718  10.277 -0.2703 -0.0274  0.1462
  101loPI   C2A 1608  13.851   7.785   9.858 -0.2958  0.2104 -0.2867
  101loPI   C3A 1609  13.924   7.849   9.376  0.2130 -0.1179  0.1501
  101loPI   C4A 1610  13.923   7.721   8.925  0.0779  0.1217 -0.1039
  101loPI   C5A 1611  13.655   7.635   8.469 -0.0380  0.1919 -0.0386
  101loPI   C6A 1612  13.964   7.815   8.149 -0.1667  0.4035  0.2376
  101loPI   C1B 1613  13.366   7.843  10.135 -0.1484 -0.0371 -0.1544
  101loPI   C2B 1614  13.399   7.851   9.690 -0.1480 -0.0047 -0.3981
  101loPI   C3B 1615  13.415   7.817   9.272 -0.0574  0.1727 -0.1195
  101loPI   C4B 1616  13.404   7.862   8.846 -0.0995 -0.0898  0.2013
  102loPI    C1 1617  16.877   9.570  11.325  0.0298  0.0624  0.1399
  102loPI    C2 1618  17.170   9.715  11.557 -0.0118  0.0031  0.2299
  102loPI    C3 1619  16.909   9.451  11.705  0.0374 -0.1319  0.0792
  102loPI   PO4 1620  17.004   9.461  11.083  0.2262  0.2360 -0.1444
  102loPI   GL1 1621  17.063   9.565  10.670 -0.0229 -0.2702 -0.2709
  102loPI   GL2 1622  17.420   9.650  10.680 -0.1396  0.1954  0.1564
  102loPI   C1A 1623  17.082   9.315  10.340  0.1904 -0.5321  0.0773
  102loPI   C2A 1624  17.143   9.441   9.829  0.1889  0.3532 -0.1747
  102loPI   C3A 1625  17.105   9.362   9.416 -0.3133  0.0586 -0.0911
  102loPI   C4A 1626  17.187   9.417   9.092  0.1960 -0.1964 -0.1380
  102loPI   C5A 1627  17.107   9.350   8.696  0.2740  0.1879  0.0737
  102loPI   C6A 1628  17.404   9.293   8.308  0.1397 -0.2358  0.2333
  102loPI   C1B 1629  17.351   9.797  10.258  0.0793 -0.0587 -0.0692
  102loPI   C2B 1630  17.394   9.823   9.826 -0.1561 -0.1318 -0.2448
  102loPI   C3B 1631  17.374   9.844   9.439  0.1773  0.0983  0.1062
  102loPI   C4B 1632  17.477   9.855   9.073 -0.0382 -0.0721 -0.2287
  103loPI    C1 1633   7.606   6.167  11.032  0.1734  0.1916  0.0695
  103loPI    C2 1634   7.547   5.780  11.114  0.2430  0.1657 -0.0013
  103loPI    C3 1635   7.750   6.011  11.371 -0.0664  0.2297  0.1911
  103loPI   PO4 1636   7.364   6.261  11.004 -0.1049 -0.3006  0.0678
  103loPI   GL1 1637   7.036   6.446  10.672 -0.2260 -0.0353 -0.3586
  103loPI   GL2 1638   7.320   6.509  10.457 -0.2478 -0.0757 -0.1526
  103loPI   C1A 1639   6.929   6.350  10.271  0.2686  0.1761  0.0849
  103loPI   C2A 1640   6.910   6.463   9.868  0.3008  0.0326  0.1012
  103loPI   C3A 1641   6.871   6.456   9.412 -0.1517 -0.3712  0.0916
  103loPI   C4A 1642   6.867   6.401   8.963 -0.0212 -0.1224 -0.0426
  103loPI   C5A 1643   6.938   6.393   8.510  0.2404  0.0377  0.0331
  103loPI   C6A 1644   7.164   6.327   8.070 -0.2401  0.0526  0.0154
  103loPI   C1B 1645   7.426   6.470  10.078 -0.2567 -0.1198 -0.0838
  103loPI   C2B 1646   7.455   6.495   9.750 -0.0690  0.2921 -0.1137
  103loPI   C3B 1647   7.411   6.516   9.322  0.2412  0.0466 -0.4493
  103loPI   C4B 1648   7.357   6.503   8.857 -0.0941 -0.2254  0.2573
  104loPI    C1 1649  10.410  12.786  10.968 -0.0876 -0.1351 -0.2422
  104loPI    C2 1650  10.497  12.546  11.276 -0.1293  0.0969 -0.0463
  104loPI    C3 1651  10.748  12.841  11.176 -0.0272 -0.0888 -0.3517
  104loPI   PO4 1652  10.408  12.623  10.757  0.1119  0.0212  0.3364
  104loPI   GL1 1653  10.510  12.665  10.411  0.1731  0.1540  0.2429
  104loPI   GL2 1654  10.830  12.603  10.397 -0.3283  0.0842 -0.2051
  104loPI   C1A 1655  10.420  12.902  10.047  0.0163 -0.1218  0.5546
  104loPI   C2A 1656  10.424  12.954   9.654  0.4288 -0.2777  0.1194
  104loPI   C3A 1657  10.443  12.881   9.252  0.2301  0.0096  0.0776
  104loPI   C4A 1658  10.332  12.950   8.812  0.3749  0.0163 -0.1204
  104loPI   C5A 1659  10.182  12.774   8.429  0.0986 -0.2165 -0.2468
  104loPI   C6A 1660   9.828  12.854   8.248  0.1595 -0.0187  0.0916
  104loPI   C1B 1661  10.692  12.522   9.926  0.0984  0.0789  0.1027
  104loPI   C2B 1662  10.697  12.404   9.509 -0.1908 -0.0136  0.0196
  104loPI   C3B 1663  10.732  12.484   9.036 -0.0632  0.2174  0.0636
  104loPI   C4B 1664  10.659  12.545   8.606 -0.2686  0.0230  0.3140
  105loPI    C1 1665  16.044  10.949  11.362 -0.0805  0.1329 -0.0633
  105loPI    C2 1666  15.993  10.969  11.759 -0.0147  0.0101 -0.0479
  105loPI    C3 1667  16.243  10.699  11.603  0.0542  0.1406 -0.1660
  105loPI   PO4 1668  15.987  11.006  11.124  0.2430 -0.0494  0.1919
  105loPI   GL1 1669  16.240  11.043  10.759  0.2238 -0.2080  0.1691
  105loPI   GL2 1670  15.866  10.857  10.630  0.3734  0.1993 -0.1588
  105loPI   C1A 1671  16.170  11.203  10.410 -0.0254 -0.0213  0.0122
  105loPI   C2A 1672  16.138  11.246  10.004  0.0653 -0.2699 -0.2499
  105loPI   C3A 1673  16.207  11.277   9.558 -0.2719 -0.0211  0.1231
  105loPI   C4A 1674  16.216  11.310   9.160  0.0684  0.2241  0.0579
  105loPI   C5A 1675  16.303  11.277   8.709  0.0758  0.1675 -0.2033
  105loPI   C6A 1676  16.065  11.495   8.392  0.0279  0.0970 -0.0617
  105loPI   C1B 1677  15.802  10.817  10.183  0.3229  0.3567  0.3619
  105loPI   C2B 1678  15.905  10.863   9.810 -0.1151 -0.0953  0.2120
  105loPI   C3B 1679  15.946  10.871   9.340  0.1287 -0.1374 -0.0111
  105loPI   C4B 1680  16.071  10.867   8.838  0.0713  0.3149 -0.0101
  106loPI    C1 1681  14.100   3.716  11.105  0.0014  0.1357 -0.1885
  106loPI    C2 1682  13.903   3.375  11.034  0.0370  0.1387 -0.3044
  106loPI    C3 1683  13.799   3.606  11.344  0.0088  0.0259 -0.2291
  106loPI   PO4 1684  14.254   3.744  10.919 -0.1991 -0.1132 -0.1508
  106loPI   GL1 1685  14.348   3.911  10.513  0.1795  0.0240 -0.0563
  106loPI   GL2 1686  14.161   4.145  10.476 -0.1057 -0.3326 -0.0468
  106loPI   C1A 1687  14.388   3.760  10.114  0.1127  0.5046 -0.1059
  106loPI   C2A 1688  14.503   3.802   9.647 -0.1323 -0.0450 -0.2125
  106loPI   C3A 1689  14.492   3.805   9.220  0.1049  0.0720 -0.0858
  106loPI   C4A 1690  14.448   3.759   8.841 -0.1694 -0.0491 -0.0457
  106loPI   C5A 1691  14.386   3.774   8.412 -0.2348 -0.2979 -0.0952
  106loPI   C6A 1692  14.170   3.445   8.228 -0.3145 -0.0195 -0.2674
  106loPI   C1B 1693  14.207   4.196  10.015 -0.0793 -0.1162 -0.0888
  106loPI   C2B 1694  14.224   4.232   9.596  0.1649  0.2955  0.0809
  106loPI   C3B 1695  14.225   4.232   9.206  0.0801 -0.0088  0.1722
  106loPI   C4B 1696  14.247   4.193   8.776 -0.0981 -0.1569 -0.2395
  107loPI    C1 1697   6.352  14.366  11.024 -0.0193  0.1026 -0.0740
  107loPI    C2 1698   6.186  14.435  11.381 -0.3850 -0.3395 -0.1493
  107loPI    C3 1699   6.444  14.133  11.336 -0.1113 -0.1031 -0.1989
  107loPI   PO4 1700   6.192  14.244  10.843 -0.0108  0.1467 -0.1972
  107loPI   GL1 1701   5.914  14.416  10.400  0.1321 -0.0646  0.2992
  107loPI   GL2 1702   5.885  14.137  10.504 -0.0425  0.1763  0.3025
  107loPI   C1A 1703   6.020  14.460   9.964 -0.1188 -0.1637 -0.0982
  107loPI   C2A 1704   6.110  14.561   9.611  0.3985  0.6630  0.0881
  107loPI   C3A 1705   6.161  14.720   9.153  0.0579  0.0087  0.5104
  107loPI   C4A 1706   6.260  14.728   8.756 -0.2141  0.1468  0.1684
  107loPI   C5A 1707   6.260  14.816   8.268 -0.1017 -0.0545  0.3606
  107loPI   C6A 1708   6.427  14.533   7.906 -0.0779  0.0625 -0.2490
  107loPI   C1B 1709   5.800  14.053  10.057  0.0521  0.2920  0.0319
  107loPI   C2B 1710   5.946  14.048   9.566  0.1812 -0.1145  0.1333
  107loPI   C3B 1711   5.931  14.222   9.185  0.0505  0.0158  0.2448
  107loPI   C4B 1712   5.933  14.263   8.764 -0.1981  0.0291 -0.0707
  108loPI    C1 1713  15.412   1.352  11.349  0.1083  0.2506  0.1498
  108loPI    C2 1714  15.695   1.171  11.566 -0.0184  0.1152  0.2048
  108loPI    C3 1715  15.608   1.556  11.632  0.1142  0.1424  0.2246
  108loPI   PO4 1716  15.333   1.169  11.038  0.2680 -0.0943  0.0516
  108loPI   GL1 1717  15.282   1.158  10.599 -0.0856 -0.2086  0.1483
  108loPI   GL2 1718  14.933   1.190  10.318 -0.0280 -0.1331  0.0719
  108loPI   C1A 1719  15.425   1.063  10.188 -0.2220  0.0052 -0.1093
  108loPI   C2A 1720  15.400   1.117   9.787 -0.4221 -0.2133 -0.0094
  108loPI   C3A 1721  15.343   1.091   9.398  0.0896  0.0731 -0.0599
  108loPI   C4A 1722  15.383   1.114   8.953  0.0087 -0.2329 -0.1196
  108loPI   C5A 1723  15.223   0.905   8.850 -0.0852  0.0871  0.3642
  108loPI   C6A 1724  15.278   0.573   8.651  0.1311 -0.1987 -0.0999
  108loPI   C1B 1725  14.794   1.078   9.936 -0.2418 -0.2728  0.0276
  108loPI   C2B 1726  14.807   1.147   9.443 -0.1790  0.1440 -0.0600
  108loPI   C3B 1727  14.824   1.120   9.044  0.1092 -0.2558  0.0259
  108loPI   C4B 1728  14.807   1.155   8.564  0.2405 -0.1804 -0.0678
  109loPI    C1 1729   0.975  12.126  11.424  0.0975 -0.0555 -0.0387
  109loPI    C2 1730   1.132  12.393  11.678 -0.0677  0.0150 -0.0097
  109loPI    C3 1731   0.970  12.055  11.818 -0.3136  0.1326 -0.0051
  109loPI   PO4 1732   1.186  12.226  11.230  0.2058 -0.0891  0.0355
  109loPI   GL1 1733   1.194  12.077  10.850  0.1131  0.0305 -0.2489
  109loPI   GL2 1734   1.384  12.211  10.773 -0.0830 -0.1833  0.4277
  109loPI   C1A 1735   0.892  12.157  10.453 -0.1315 -0.1591 -0.1155
  109loPI   C2A 1736   1.008  12.052  10.020  0.3213  0.4087  0.0540
  109loPI   C3A 1737   1.088  12.096   9.563 -0.1119 -0.1797  0.0091
  109loPI   C4A 1738   1.153  12.025   9.243  0.1842  0.0728 -0.0518
  109loPI   C5A 1739   1.495  11.946   8.972  0.2250 -0.0325  0.1221
  109loPI   C6A 1740   1.804  11.958   8.727 -0.0661 -0.0696  0.1407
  109loPI   C1B 1741   1.685  12.354  10.481  0.0652  0.0667  0.0634
  109loPI   C2B 1742   1.766  12.495  10.103  0.1232 -0.1559 -0.1335
  109loPI   C3B 1743   1.906  12.532   9.659 -0.4311  0.2418 -0.0708
  109loPI   C4B 1744   2.021  12.470   9.217  0.2268 -0.0271  0.2209
  110loPI    C1 1745  13.134   9.000  10.745  0.1260 -0.0276  0.0720
  110loPI    C2 1746  12.920   8.932  11.076  0.1679 -0.1491  0.0747
  110loPI    C3 1747  12.976   8.638  10.810  0.1886 -0.0699 -0.0091
  110loPI   PO4 1748  13.291   9.163  10.813 -0.1175 -0.0689  0.1349
  110loPI   GL1 1749  13.617   9.370  10.516  0.0522  0.0141 -0.0449
  110loPI   GL2 1750  13.422   9.099  10.284 -0.2907 -0.2150  0.0453
  110loPI   C1A 1751  13.889   9.542  10.111  0.4108 -0.0961  0.0059
  110loPI   C2A 1752  14.010   9.511   9.780  0.3329  0.3647 -0.0468
  110loPI   C3A 1753  14.079   9.604   9.350  0.0117  0.2101  0.0429
  110loPI   C4A 1754  14.191   9.635   8.900 -0.1443 -0.2301  0.0063
  110loPI   C5A 1755  14.503   9.522   8.487  0.1428  0.0813 -0.1109
  110loPI   C6A 1756  14.841   9.404   8.433 -0.3144 -0.0995 -0.1824
  110loPI   C1B 1757  13.648   9.153   9.903  0.0684  0.1567  0.2463
  110loPI   C2B 1758  13.766   9.175   9.489 -0.1063 -0.0946 -0.2658
  110loPI   C3B 1759  13.912   9.191   9.082 -0.3767  0.0568  0.1901
  110loPI   C4B 1760  13.923   9.287   8.673  0.0681  0.0188  0.0029
  111loPI    C1 1761   7.102   4.737  10.737  0.0605  0.1561 -0.1467
  111loPI    C2 1762   6.923   4.607  11.071  0.1035  0.0532 -0.1632
  111loPI    C3 1763   7.088   4.972  11.061  0.1591  0.0317 -0.0510
  111loPI   PO4 1764   6.934   4.589  10.567 -0.0048 -0.2709  0.1045
  111loPI   GL1 1765   6.840   4.603  10.137 -0.0889 -0.1206  0.0833
  111loPI   GL2 1766   7.222   4.673  10.153 -0.0073  0.0552  0.1505
  111loPI   C1A 1767   6.606   4.658   9.769 -0.0065 -0.1105  0.0211
  111loPI   C2A 1768   6.672   4.544   9.360  0.0947 -0.0619  0.0597
  111loPI   C3A 1769   6.630   4.551   8.901 -0.1253  0.1036 -0.4779
  111loPI   C4A 1770   6.446   4.646   8.510 -0.1687 -0.0918  0.1590
  111loPI   C5A 1771   5.920   4.781   8.383  0.0572 -0.3804 -0.0603
  111loPI   C6A 1772   5.564   4.883   8.557  0.0557  0.0335  0.1665
  111loPI   C1B 1773   7.136   4.608   9.664  0.0879 -0.0613  0.2820
  111loPI   C2B 1774   7.171   4.676   9.329  0.0851  0.0668  0.1232
  111loPI   C3B 1775   7.117   4.710   8.859 -0.4396  0.2642  0.1281
  111loPI   C4B 1776   7.067   4.725   8.416  0.1411  0.0147  0.1072
  112loPI    C1 1777  11.447  13.260  11.135  0.1897 -0.0097 -0.2430
  112loPI    C2 1778  11.314  12.888  11.202 -0.0282  0.1212  0.0749
  112loPI    C3 1779  11.654  13.013  11.372  0.0186  0.0843  0.0086
  112loPI   PO4 1780  11.489  13.303  10.802  0.0814 -0.1656  0.0382
  112loPI   GL1 1781  11.590  13.114  10.401 -0.2955  0.1240  0.0440
  112loPI   GL2 1782  11.212  13.091  10.370  0.1349 -0.0007  0.2319
  112loPI   C1A 1783  11.495  13.109   9.917 -0.4931 -0.1900  0.0097
  112loPI   C2A 1784  11.402  12.972   9.488  0.0259  0.0024  0.1101
  112loPI   C3A 1785  11.411  12.932   9.074  0.3264 -0.0820 -0.0806
  112loPI   C4A 1786  11.404  12.997   8.647 -0.0513  0.1275 -0.4747
  112loPI   C5A 1787  11.240  12.791   8.284  0.1970  0.2187  0.0297
  112loPI   C6A 1788  11.100  12.468   8.043 -0.3407  0.0826  0.1854
  112loPI   C1B 1789  10.907  13.019  10.091 -0.1710 -0.0027  0.2125
  112loPI   C2B 1790  10.888  13.004   9.670  0.1475  0.0826  0.1672
  112loPI   C3B 1791  10.962  12.902   9.226  0.1743  0.0506 -0.3119
  112loPI   C4B 1792  10.921  12.944   8.731  0.0550  0.0501 -0.0662
  113loPI    C1 1793   2.223   6.825  11.353 -0.0440  0.2084  0.0174
  113loPI    C2 1794   2.028   6.609  11.628 -0.0421  0.0431 -0.1093
  113loPI    C3 1795   2.424   6.657  11.655 -0.0779  0.2590  0.0683
  113loPI   PO4 1796   2.057   6.801  11.142  0.0063  0.0465  0.0834
  113loPI   GL1 1797   1.965   6.977  10.744 -0.0752 -0.0575  0.3161
  113loPI   GL2 1798   2.135   7.159  10.573 -0.2697  0.1917  0.0826
  113loPI   C1A 1799   1.905   6.700  10.358  0.1885  0.1025 -0.0663
  113loPI   C2A 1800   1.759   6.787   9.995  0.1272  0.0797 -0.2750
  113loPI   C3A 1801   1.917   6.851   9.541 -0.0617  0.1191  0.0397
  113loPI   C4A 1802   2.048   6.769   9.085 -0.0046 -0.2038  0.0662
  113loPI   C5A 1803   1.902   6.897   8.644 -0.0140 -0.0507  0.0482
  113loPI   C6A 1804   1.769   7.201   8.200  0.2815  0.1494  0.0342
  113loPI   C1B 1805   2.076   7.110  10.093 -0.0820 -0.1357  0.1535
  113loPI   C2B 1806   2.182   7.200   9.716 -0.0253 -0.1648  0.1118
  113loPI   C3B 1807   2.291   7.167   9.226  0.0095 -0.0990  0.1779
  113loPI   C4B 1808   2.387   7.057   8.848 -0.0938 -0.0536 -0.4015
  114loPI    C1 1809  17.025   6.164  11.022 -0.1069 -0.2189 -0.1365
  114loPI    C2 1810  16.831   6.311  11.340  0.0056 -0.2163 -0.0687
  114loPI    C3 1811  17.231   6.287  11.342  0.0164 -0.0834 -0.2660
  114loPI   PO4 1812  17.003   6.278  10.840 -0.2321  0.2978  0.1300
  114loPI   GL1 1813  17.157   6.320  10.454 -0.1780  0.1263  0.1129
  114loPI   GL2 1814  17.021   5.947  10.502 -0.1367 -0.1775 -0.0431
  114loPI   C1A 1815  17.311   6.347  10.041  0.1853  0.0207  0.1111
  114loPI   C2A 1816  17.286   6.336   9.614 -0.1067 -0.1521 -0.1861
  114loPI   C3A 1817  17.291   6.354   9.200  0.0862  0.1590 -0.1169
  114loPI   C4A 1818  17.165   6.366   8.762 -0.0216  0.1445 -0.2226
  114loPI   C5A 1819  17.121   6.499   8.400 -0.4379  0.1434 -0.2345
  114loPI   C6A 1820  17.123   6.891   8.227 -0.2199  0.0597  0.1122
  114loPI   C1B 1821  17.040   5.879  10.056 -0.0629 -0.0946  0.1040
  114loPI   C2B 1822  17.007   5.863   9.612 -0.2280  0.2178  0.1305
  114loPI   C3B 1823  16.955   5.845   9.172  0.1526 -0.1812 -0.1186
  114loPI   C4B 1824  16.886   5.898   8.744 -0.0808  0.1617  0.2243
  115loPI    C1 1825  12.027   3.385  11.240  0.0439  0.3160  0.1646
  115loPI    C2 1826  12.306   3.671  11.218  0.2503  0.1064  0.0111
  115loPI    C3 1827  12.233   3.489  11.567  0.2448  0.2206  0.0698
  115loPI   PO4 1828  12.029   3.268  10.945  0.2402  0.0888 -0.2740
  115loPI   GL1 1829  11.829   3.365  10.705  0.1350  0.0366 -0.1659
  115loPI   GL2 1830  11.636   3.065  10.613 -0.2975  0.0849  0.0589
  115loPI   C1A 1831  12.000   3.453  10.311  0.1218  0.2502 -0.0674
  115loPI   C2A 1832  12.143   3.512   9.865  0.1192 -0.0703 -0.1880
  115loPI   C3A 1833  12.112   3.396   9.505 -0.2305 -0.0142  0.2024
  115loPI   C4A 1834  12.042   3.446   9.094 -0.1443 -0.0903 -0.0019
  115loPI   C5A 1835  12.150   3.562   8.631  0.2049  0.1906  0.1190
  115loPI   C6A 1836  12.306   3.459   8.264  0.0425  0.0262  0.0672
  115loPI   C1B 1837  11.716   3.067  10.223  0.3057 -0.2444  0.2095
  115loPI   C2B 1838  11.818   3.053   9.786  0.0762  0.2276 -0.1306
  115loPI   C3B 1839  11.746   2.988   9.392  0.1245  0.1977 -0.0540
  115loPI   C4B 1840  11.781   2.977   9.003  0.0206  0.0850 -0.3586
  116loPI    C1 1841   3.954  10.812  11.034 -0.2076 -0.1459  0.0478
  116loPI    C2 1842   4.051  10.736  11.415 -0.2199  0.0987  0.1015
  116loPI    C3 1843   4.120  11.098  11.259 -0.2097 -0.0016 -0.1317
  116loPI   PO4 1844   4.012  10.557  10.842  0.1569 -0.1021  0.0056
  116loPI   GL1 1845   3.950  10.308  10.591 -0.0554 -0.0004 -0.0803
  116loPI   GL2 1846   3.645  10.183  10.605 -0.3067 -0.0485  0.1067
  116loPI   C1A 1847   4.040  10.160  10.166  0.2828 -0.0247  0.1111
  116loPI   C2A 1848   4.032  10.081   9.728 -0.1450  0.0304 -0.1979
  116loPI   C3A 1849   3.908  10.122   9.360  0.1594 -0.1136  0.1982
  116loPI   C4A 1850   4.105  10.060   8.951  0.0237  0.2803  0.0652
  116loPI   C5A 1851   4.458   9.968   8.662  0.0275 -0.0683 -0.0190
  116loPI   C6A 1852   4.873  10.110   8.529  0.3296  0.2728  0.1029
  116loPI   C1B 1853   3.516  10.076  10.202 -0.0255  0.0706  0.2447
  116loPI   C2B 1854   3.479  10.065   9.617 -0.3513 -0.0737  0.0259
  116loPI   C3B 1855   3.376  10.062   9.205 -0.1906 -0.2877  0.1242
  116loPI   C4B 1856   3.597  10.020   8.843  0.1294  0.0177  0.0411
  117loPI    C1 1857  12.763  14.186  11.137 -0.1284 -0.0557  0.0578
  117loPI    C2 1858  12.384  14.064  11.092 -0.1463 -0.0192  0.1090
  117loPI    C3 1859  12.611  13.910  11.384 -0.1167 -0.0528  0.0683
  117loPI   PO4 1860  12.853  14.118  10.817 -0.3376  0.0055  0.1100
  117loPI   GL1 1861  12.619  13.921  10.621 -0.0260  0.2960  0.0334
  117loPI   GL2 1862  12.334  14.098  10.542 -0.3483 -0.0101  0.0744
  117loPI   C1A 1863  12.709  14.048  10.197  0.0664 -0.0027 -0.0009
  117loPI   C2A 1864  12.755  14.151   9.726  0.4957  0.0500  0.4182
  117loPI   C3A 1865  12.879  14.134   9.411 -0.0480 -0.0757  0.1209
  117loPI   C4A 1866  12.805  14.097   8.979 -0.0567  0.0301  0.0557
  117loPI   C5A 1867  12.743  14.199   8.629  0.2417  0.3988 -0.1900
  117loPI   C6A 1868  12.575  14.255   8.233 -0.2362  0.1044  0.3190
  117loPI   C1B 1869  12.216  14.123  10.033 -0.1195 -0.2979  0.0507
  117loPI   C2B 1870  12.239  14.074   9.580 -0.0002 -0.0493  0.1368
  117loPI   C3B 1871  12.222  14.077   9.171  0.2982 -0.2131 -0.3569
  117loPI   C4B 1872  12.224  14.011   8.772  0.0444 -0.0448 -0.0743
  118loPI    C1 1873  12.816  10.104  10.845  0.0782 -0.1286 -0.1786
  118loPI    C2 1874  12.603   9.860  11.079  0.0342  0.0426 -0.0385
  118loPI    C3 1875  12.976   9.961  11.182  0.0801 -0.0264 -0.1359
  118loPI   PO4 1876  12.798  10.015  10.627  0.2061 -0.2768 -0.3185
  118loPI   GL1 1877  12.688   9.761  10.241  0.0752  0.3115  0.2095
  118loPI   GL2 1878  12.655  10.089  10.137 -0.2308  0.1018 -0.0322
  118loPI   C1A 1879  12.746   9.660   9.836  0.1981  0.1252  0.0503
  118loPI   C2A 1880  12.905   9.586   9.429  0.0389  0.1062 -0.3014
  118loPI   C3A 1881  13.050   9.667   8.999 -0.1029  0.1829 -0.1583
  118loPI   C4A 1882  13.192   9.820   8.652  0.0670  0.1990  0.0787
  118loPI   C5A 1883  13.061  10.155   8.447  0.2414  0.2843  0.1913
  118loPI   C6A 1884  13.107  10.479   8.244  0.1819 -0.3824  0.0753
  118loPI   C1B 1885  12.688  10.114   9.605 -0.2848  0.1038 -0.0528
  118loPI   C2B 1886  12.761  10.111   9.170  0.0699  0.1607 -0.1125
  118loPI   C3B 1887  12.687  10.203   8.815 -0.3431  0.2891  0.1902
  118loPI   C4B 1888  12.583  10.463   8.476  0.2625 -0.0783  0.2090
  119loPI    C1 1889  14.763   7.228  11.100 -0.0463  0.0456  0.1475
  119loPI    C2 1890  14.712   7.403  11.456 -0.1021 -0.0323  0.1778
  119loPI    C3 1891  14.788   7.011  11.435  0.0666  0.0031  0.1120
  119loPI   PO4 1892  14.637   7.376  10.982 -0.0980 -0.1526  0.3154
  119loPI   GL1 1893  14.666   7.415  10.611 -0.3206  0.0602 -0.1574
  119loPI   GL2 1894  14.390   7.391  10.366 -0.1828  0.2386  0.0788
  119loPI   C1A 1895  14.813   7.692  10.324  0.0250  0.2535 -0.0692
  119loPI   C2A 1896  14.987   7.671   9.867  0.3001 -0.0857 -0.0974
  119loPI   C3A 1897  14.980   7.688   9.483 -0.0897 -0.1052 -0.4048
  119loPI   C4A 1898  15.004   7.703   9.019 -0.0623 -0.0714  0.2634
  119loPI   C5A 1899  14.973   7.693   8.646  0.4219 -0.2154 -0.2273
  119loPI   C6A 1900  15.226   7.588   8.323 -0.0371  0.5040 -0.1168
  119loPI   C1B 1901  14.570   7.393   9.919  0.4586  0.5614 -0.5303
  119loPI   C2B 1902  14.629   7.339   9.471  0.1722  0.1599 -0.4027
  119loPI   C3B 1903  14.713   7.242   9.034 -0.1004  0.0746 -0.1148
  119loPI   C4B 1904  14.707   7.306   8.619  0.0231  0.1734  0.2104
  120loPI    C1 1905   7.950  17.160  10.840 -0.2139  0.0897  0.0361
  120loPI    C2 1906   8.266  16.947  10.960 -0.0987  0.1748 -0.1136
  120loPI    C3 1907   8.062  17.168  11.223 -0.3011 -0.2221  0.0714
  120loPI   PO4 1908   7.843  16.941  10.624 -0.2342  0.0769  0.0026
  120loPI   GL1 1909   7.852  16.909  10.223 -0.0205 -0.2132  0.2160
  120loPI   GL2 1910   7.555  16.896  10.217  0.0961  0.1921 -0.1110
  120loPI   C1A 1911   7.903  16.848   9.770  0.3325 -0.2100 -0.0146
  120loPI   C2A 1912   7.957  16.786   9.381  0.0054  0.1936  0.0200
  120loPI   C3A 1913   7.961  16.695   8.978  0.1412 -0.0241 -0.0444
  120loPI   C4A 1914   8.029  16.588   8.478  0.3638 -0.1553  0.1342
  120loPI   C5A 1915   8.154  16.818   8.184 -0.0157 -0.5722  0.1734
  120loPI   C6A 1916   8.455  16.892   8.005  0.1687  0.1447  0.0295
  120loPI   C1B 1917   7.366  16.773   9.896  0.2825  0.0362 -0.3898
  120loPI   C2B 1918   7.444  16.800   9.487 -0.1233 -0.2205  0.0745
  120loPI   C3B 1919   7.461  16.661   9.068  0.1311  0.1770  0.1687
  120loPI   C4B 1920   7.443  16.532   8.593 -0.3594  0.2934  0.3927
  121loPI    C1 1921   9.768  16.931  10.883 -0.2536 -0.1677  0.0890
  121loPI    C2 1922   9.481  16.905  11.160 -0.2256 -0.0786  0.1266
  121loPI    C3 1923   9.866  16.909  11.270 -0.2206  0.2150  0.1056
  121loPI   PO4 1924   9.683  16.873  10.658  0.1493  0.1334  0.0969
  121loPI   GL1 1925   9.373  16.729  10.360  0.1243  0.0192 -0.2806
  121loPI   GL2 1926   9.045  16.773  10.353  0.0471 -0.0628  0.1622
  121loPI   C1A 1927   9.519  16.877   9.940  0.1528  0.0823  0.0369
  121loPI   C2A 1928   9.481  16.937   9.541 -0.0419 -0.2006  0.0595
  121loPI   C3A 1929   9.467  16.900   9.142 -0.0568  0.0506 -0.0355
  121loPI   C4A 1930   9.422  16.852   8.718 -0.0572 -0.2023 -0.0541
  121loPI   C5A 1931   9.323  17.098   8.321 -0.1033 -0.4093  0.1601
  121loPI   C6A 1932   9.328  17.398   7.915  0.1315 -0.0982  0.0166
  121loPI   C1B 1933   9.016  16.868   9.838  0.0843 -0.1245  0.1893
  121loPI   C2B 1934   8.970  16.893   9.397 -0.0131 -0.0374 -0.2722
  121loPI   C3B 1935   8.921  16.779   8.885  0.0580  0.1435  0.1964
  121loPI   C4B 1936   8.949  16.785   8.419 -0.3847  0.1804 -0.0172
  122loPI    C1 1937   0.050   6.786  11.445  0.0600  0.0727 -0.1863
  122loPI    C2 1938   0.380   6.797  11.671  0.0258 -0.0346 -0.1304
  122loPI    C3 1939   0.124   7.104  11.675  0.1814  0.0984 -0.2601
  122loPI   PO4 1940   0.091   6.714  11.129  0.1517 -0.2834 -0.2209
  122loPI   GL1 1941   0.137   6.644  10.671  0.1834 -0.2666  0.1534
  122loPI   GL2 1942   0.331   6.893  10.712 -0.1599 -0.0565 -0.1818
  122loPI   C1A 1943   0.336   6.725  10.220  0.0737 -0.0168  0.0421
  122loPI   C2A 1944   0.175   6.724   9.786  0.0550 -0.1227  0.1055
  122loPI   C3A 1945   0.188   6.632   9.264  0.0267  0.0653  0.1531
  122loPI   C4A 1946   0.146   6.830   8.898  0.2358  0.2200  0.2111
  122loPI   C5A 1947   0.065   7.155   8.591 -0.0515  0.0622 -0.0068
  122loPI   C6A 1948   0.016   7.349   8.168  0.2008 -0.0053  0.3079
  122loPI   C1B 1949  -0.068   7.070  10.512 -0.0803 -0.1021 -0.1415
  122loPI   C2B 1950  -0.040   7.081  10.119 -0.3265 -0.1367 -0.0443
  122loPI   C3B 1951  -0.046   7.142   9.717 -0.1023 -0.3625 -0.1915
  122loPI   C4B 1952  -0.010   7.113   9.311 -0.1334 -0.0529 -0.2303
  123loPI    C1 1953   5.790   4.745  11.245 -0.2043  0.0565 -0.1315
  123loPI    C2 1954   5.571   4.419  11.317  0.0852 -0.1392 -0.1189
  123loPI    C3 1955   5.689   4.651  11.620  0.1860 -0.2264 -0.0908
  123loPI   PO4 1956   5.989   4.636  10.967  0.2753 -0.0350 -0.1764
  123loPI   GL1 1957   6.104   4.921  10.558  0.0649 -0.2824 -0.1578
  123loPI   GL2 1958   6.148   5.246  10.483  0.1029 -0.2201 -0.0528
  123loPI   C1A 1959   6.211   4.910  10.083  0.2110 -0.1105 -0.0061
  123loPI   C2A 1960   6.255   5.082   9.702 -0.3638  0.3161 -0.0437
  123loPI   C3A 1961   6.269   4.900   9.270 -0.0076  0.1312  0.0453
  123loPI   C4A 1962   6.337   5.006   8.895  0.2525 -0.0006 -0.2329
  123loPI   C5A 1963   6.206   5.198   8.488  0.3788 -0.0159 -0.2507
  123loPI   C6A 1964   5.888   5.401   8.265  0.2517 -0.0276  0.0780
  123loPI   C1B 1965   5.944   5.345  10.053  0.0728  0.2154  0.1216
  123loPI   C2B 1966   5.902   5.452   9.586  0.0741  0.0226  0.1388
  123loPI   C3B 1967   6.012   5.360   9.162 -0.0059  0.1009 -0.0191
  123loPI   C4B 1968   5.848   5.215   8.821  0.0331  0.1616  0.3468
  124loPI    C1 1969   7.002   8.922  10.694 -0.2108 -0.1309  0.1339
  124loPI    C2 1970   7.334   8.799  10.880 -0.0768  0.0326  0.0069
  124loPI    C3 1971   7.046   8.985  11.087  0.0120  0.0945  0.0758
  124loPI   PO4 1972   7.009   9.049  10.473  0.2075 -0.0040 -0.2310
  124loPI   GL1 1973   6.925   8.967  10.094  0.2922  0.1334 -0.0153
  124loPI   GL2 1974   6.923   8.650  10.171 -0.1015  0.1077 -0.0516
  124loPI   C1A 1975   6.848   9.210   9.757  0.0487 -0.1010 -0.0413
  124loPI   C2A 1976   6.903   9.004   9.304  0.1121  0.0934 -0.3135
  124loPI   C3A 1977   7.012   9.132   8.888  0.0519 -0.0538 -0.2815
  124loPI   C4A 1978   7.037   9.200   8.418 -0.4219 -0.0827 -0.0246
  124loPI   C5A 1979   7.374   8.963   8.155 -0.0259  0.0548 -0.0040
  124loPI   C6A 1980   7.729   8.614   8.231  0.1339  0.1158 -0.1427
  124loPI   C1B 1981   6.918   8.692   9.703  0.0905 -0.1296  0.1389
  124loPI   C2B 1982   6.772   8.568   9.254  0.2157  0.0301  0.3096
  124loPI   C3B 1983   6.855   8.630   8.838 -0.2149  0.1056  0.3210
  124loPI   C4B 1984   6.864   8.643   8.423  0.2574 -0.0829 -0.0964
  125loPI    C1 1985  12.363  14.953  11.216 -0.0654  0.0506 -0.0167
  125loPI    C2 1986  12.317  14.583  11.361 -0.0379  0.0994  0.1176
  125loPI    C3 1987  12.684  14.724  11.287 -0.0494  0.0928  0.0476
  125loPI   PO4 1988  12.207  14.913  10.960  0.0621  0.1390 -0.3099
  125loPI   GL1 1989  12.013  15.143  10.656 -0.2256 -0.0850 -0.0313
  125loPI   GL2 1990  12.295  15.150  10.402  0.2041 -0.1866 -0.2726
  125loPI   C1A 1991  11.780  15.000  10.287 -0.1067  0.1317 -0.3418
  125loPI   C2A 1992  11.684  14.888   9.852 -0.1900 -0.1506 -0.0918
  125loPI   C3A 1993  11.606  14.939   9.437  0.1731 -0.1048  0.1046
  125loPI   C4A 1994  11.572  14.930   9.009 -0.0448 -0.1082 -0.3497
  125loPI   C5A 1995  11.547  14.693   8.571 -0.1515 -0.1566 -0.1218
  125loPI   C6A 1996  11.684  14.322   8.366  0.1787 -0.1727 -0.1720
  125loPI   C1B 1997  12.204  15.072   9.945  0.0855 -0.1231  0.4375
  125loPI   C2B 1998  12.114  14.969   9.438 -0.1122  0.1948 -0.2736
  125loPI   C3B 1999  12.088  14.879   9.064  0.1888  0.0242 -0.1235
  125loPI   C4B 2000  11.948  14.963   8.613 -0.0533 -0.3261 -0.1369
  126loPI    C1 2001  17.542  14.978  11.146 -0.0120 -0.3241  0.2704
  126loPI    C2 2002  17.849  15.075  11.383  0.2131  0.2332 -0.2230
  126loPI    C3 2003  17.508  15.284  11.401 -0.0143 -0.1483  0.0623
  126loPI   PO4 2004  17.566  15.020  10.866 -0.0773  0.2015  0.0966
  126loPI   GL1 2005  17.738  14.884  10.543 -0.0841  0.1052  0.0072
  126loPI   GL2 2006  18.006  14.812  10.452 -0.2992 -0.1749 -0.3731
  126loPI   C1A 2007  17.455  14.758  10.171  0.2367  0.2611 -0.2744
  126loPI   C2A 2008  17.424  14.727   9.743  0.2121  0.0138  0.2303
  126loPI   C3A 2009  17.444  14.721   9.341 -0.1714  0.0309  0.0040
  126loPI   C4A 2010  17.434  14.745   8.966 -0.0558 -0.2664 -0.0173
  126loPI   C5A 2011  17.522  14.709   8.570  0.0283 -0.0406  0.0410
  126loPI   C6A 2012  17.452  14.383   8.235 -0.1086  0.1308  0.1129
  126loPI   C1B 2013  17.934  14.719  10.004  0.0838  0.3533  0.0710
  126loPI   C2B 2014  17.924  14.717   9.579  0.1296 -0.4405 -0.1267
  126loPI   C3B 2015  17.912  14.738   9.113  0.0294  0.0632 -0.2071
  126loPI   C4B 2016  18.027  14.808   8.669  0.2136  0.2675  0.0327
  127loPI    C1 2017   8.047  17.665  10.773  0.0382  0.0664  0.0373
  127loPI    C2 2018   8.027  17.711  11.170  0.1987  0.1382  0.0380
  127loPI    C3 2019   7.699  17.612  10.963  0.1121  0.1116  0.1866
  127loPI   PO4 2020   8.143  17.881  10.643 -0.1317 -0.1418 -0.0022
  127loPI   GL1 2021   8.123  18.110  10.287  0.1233 -0.2103 -0.2230
  127loPI   GL2 2022   7.928  17.830  10.225  0.0901  0.0132  0.1366
  127loPI   C1A 2023   8.259  18.150   9.855 -0.0591  0.0019  0.1621
  127loPI   C2A 2024   8.206  18.127   9.444  0.1479  0.2593 -0.1432
  127loPI   C3A 2025   8.083  18.264   8.946  0.3105 -0.0895  0.1029
  127loPI   C4A 2026   7.875  18.426   8.569 -0.1796  0.0445  0.0498
  127loPI   C5A 2027   7.664  18.633   8.202 -0.0301  0.0580  0.0603
  127loPI   C6A 2028   7.461  19.005   8.021 -0.2406  0.2354 -0.1192
  127loPI   C1B 2029   7.889  17.768   9.793 -0.2998  0.3169  0.0127
  127loPI   C2B 2030   7.970  17.731   9.386  0.0127  0.0056  0.2989
  127loPI   C3B 2031   7.888  17.601   8.950 -0.2221  0.2063 -0.0254
  127loPI   C4B 2032   7.649  17.440   8.552 -0.0947 -0.0074 -0.1235
  128loPI    C1 2033   0.356   1.786  10.913 -0.0938 -0.0088  0.2451
  128loPI    C2 2034   0.381   1.943  11.280  0.0755  0.1390  0.1716
  128loPI    C3 2035   0.553   2.130  10.971  0.2414 -0.1680  0.0751
  128loPI   PO4 2036   0.089   1.669  10.899  0.0349  0.4264 -0.0089
  128loPI   GL1 2037  -0.142   1.797  10.611  0.1381  0.0621 -0.1923
  128loPI   GL2 2038   0.190   1.851  10.417  0.2685 -0.1517 -0.1857
  128loPI   C1A 2039  -0.361   1.928  10.261  0.0655 -0.3956  0.3136
  128loPI   C2A 2040  -0.363   1.864   9.820 -0.0786 -0.0537  0.0797
  128loPI   C3A 2041  -0.299   1.817   9.447  0.3191 -0.3510 -0.1827
  128loPI   C4A 2042  -0.414   1.756   8.930 -0.0278 -0.1691 -0.1418
  128loPI   C5A 2043  -0.352   1.565   8.515  0.0528 -0.1681 -0.3445
  128loPI   C6A 2044  -0.240   1.468   8.117  0.0125 -0.0836 -0.3049
  128loPI   C1B 2045   0.209   1.783   9.947  0.0063  0.2762 -0.2694
  128loPI   C2B 2046   0.232   1.749   9.596 -0.1323 -0.2547  0.2530
  128loPI   C3B 2047   0.113   1.744   9.175  0.0400  0.2605  0.1061
  128loPI   C4B 2048   0.156   1.758   8.712  0.1391 -0.0889 -0.1494
  129loPI    C1 2049   4.470   9.770  11.137  0.0980  0.3026 -0.3094
  129loPI    C2 2050   4.092   9.802  11.265  0.1169 -0.2029 -0.1027
  129loPI    C3 2051   4.394   9.899  11.508  0.1272  0.1551 -0.2515
  129loPI   PO4 2052   4.497   9.575  11.028 -0.1414  0.2627 -0.0294
  129loPI   GL1 2053   4.812   9.507  10.631  0.2418 -0.4669 -0.1786
  129loPI   GL2 2054   4.697   9.248  10.630 -0.0114 -0.0610 -0.1416
  129loPI   C1A 2055   5.074   9.383  10.269 -0.0786  0.0562 -0.2836
  129loPI   C2A 2056   5.057   9.259   9.852 -0.0134  0.1739 -0.1535
  129loPI   C3A 2057   5.139   9.325   9.368  0.0885 -0.2270 -0.1121
  129loPI   C4A 2058   5.126   9.338   8.950  0.1351 -0.1224 -0.0048
  129loPI   C5A 2059   5.580   9.298   8.627 -0.0927 -0.1758  0.0653
  129loPI   C6A 2060   5.756   9.585   8.374  0.1146  0.1192  0.0856
  129loPI   C1B 2061   4.589   9.252  10.219  0.1169 -0.0677 -0.0077
  129loPI   C2B 2062   4.544   9.263   9.733  0.0079  0.4674 -0.1353
  129loPI   C3B 2063   4.648   9.232   9.359 -0.0001  0.3805  0.0314
  129loPI   C4B 2064   4.628   9.137   8.807  0.1889 -0.2069  0.0539
  130loPI    C1 2065  10.562  13.768  11.076 -0.0117 -0.1237  0.1055
  130loPI    C2 2066  10.395  14.120  11.170  0.0961 -0.0557  0.0447
  130loPI    C3 2067  10.352  13.806  11.415  0.0650  0.0206  0.1375
  130loPI   PO4 2068  10.526  13.798  10.803 -0.0152 -0.3796  0.0731
  130loPI   GL1 2069  10.723  13.802  10.443 -0.2570  0.2196  0.1598
  130loPI   GL2 2070  10.662  13.857  10.182  0.1851 -0.1423 -0.3274
  130loPI   C1A 2071  11.002  13.519  10.101 -0.0137  0.0074 -0.1512
  130loPI   C2A 2072  11.031  13.449   9.747 -0.0361  0.3143 -0.1554
  130loPI   C3A 2073  11.087  13.368   9.359  0.0606  0.1222 -0.0669
  130loPI   C4A 2074  11.150  13.433   8.835 -0.1307 -0.1478 -0.0729
  130loPI   C5A 2075  11.163  13.379   8.421  0.1154  0.0853 -0.0278
  130loPI   C6A 2076  10.961  13.370   8.116 -0.1023  0.0002 -0.1281
  130loPI   C1B 2077  10.659  13.872   9.767  0.1209 -0.2027 -0.2980
  130loPI   C2B 2078  10.794  13.840   9.425 -0.2314 -0.0571  0.1186
  130loPI   C3B 2079  10.819  13.791   8.990  0.1013  0.0290  0.0021
  130loPI   C4B 2080  10.831  13.754   8.550 -0.2234  0.2304  0.0730
  131loPI    C1 2081  17.106   3.848  11.584  0.2119  0.0667 -0.3032
  131loPI    C2 2082  17.449   3.646  11.620  0.1536  0.0217  0.0277
  131loPI    C3 2083  17.196   3.668  11.930 -0.0672  0.1925 -0.1616
  131loPI   PO4 2084  16.982   3.798  11.415  0.0362  0.2144 -0.2570
  131loPI   GL1 2085  16.956   3.870  11.004 -0.1426 -0.2956  0.0799
  131loPI   GL2 2086  16.710   3.711  10.796  0.3295 -0.0286  0.1593
  131loPI   C1A 2087  17.283   3.860  10.714 -0.0005  0.1339  0.2827
  131loPI   C2A 2088  17.416   4.108  10.428 -0.1875  0.1282 -0.1483
  131loPI   C3A 2089  17.507   4.091  10.029 -0.2002 -0.1712 -0.0200
  131loPI   C4A 2090  17.431   4.002   9.626 -0.0359  0.0946  0.2120
  131loPI   C5A 2091  17.416   4.094   9.138  0.4110 -0.2587  0.1039
  131loPI   C6A 2092  17.511   4.063   8.765 -0.2165  0.2360 -0.0968
  131loPI   C1B 2093  16.724   3.429  10.410 -0.0549 -0.1230  0.1682
  131loPI   C2B 2094  16.818   3.291   9.914 -0.0048 -0.1534  0.0912
  131loPI   C3B 2095  16.907   3.194   9.539  0.0322 -0.0810  0.0504
  131loPI   C4B 2096  16.801   3.187   9.111 -0.1549  0.1538 -0.0144
  132loPI    C1 2097   4.972  10.204  11.447  0.1963  0.0137 -0.0863
  132loPI    C2 2098   4.767  10.158  11.787 -0.0375  0.1209 -0.2105
  132loPI    C3 2099   4.964  10.499  11.717  0.4337 -0.0912  0.0381
  132loPI   PO4 2100   4.813  10.105  11.266 -0.2304  0.0415 -0.1728
  132loPI   GL1 2101   4.744  10.020  10.753 -0.1091 -0.0935 -0.1681
  132loPI   GL2 2102   4.703  10.335  10.770 -0.0475 -0.0081  0.2595
  132loPI   C1A 2103   4.835   9.927  10.382  0.1359  0.2675 -0.2879
  132loPI   C2A 2104   4.764   9.773   9.877 -0.1117  0.1527  0.1604
  132loPI   C3A 2105   4.837   9.731   9.386 -0.3931  0.3912  0.3511
  132loPI   C4A 2106   4.871   9.758   8.983  0.2769 -0.1960  0.0955
  132loPI   C5A 2107   4.848   9.601   8.657 -0.0248  0.4044 -0.0426
  132loPI   C6A 2108   4.841   9.678   8.227 -0.0883  0.0761  0.2106
  132loPI   C1B 2109   4.489  10.253  10.444 -0.3724  0.2936 -0.1695
  132loPI   C2B 2110   4.474  10.190  10.008  0.0424 -0.0699  0.1011
  132loPI   C3B 2111   4.533  10.203   9.612 -0.1169 -0.0273 -0.0757
  132loPI   C4B 2112   4.571  10.173   9.105 -0.0960 -0.1014  0.1872
  133loPI    C1 2113   1.466  14.620  10.819 -0.1291 -0.0607 -0.1730
  133loPI    C2 2114   1.687  14.357  11.022 -0.0704  0.0069 -0.1491
  133loPI    C3 2115   1.568  14.696  11.198 -0.2609 -0.0657 -0.1358
  133loPI   PO4 2116   1.437  14.536  10.637  0.1294 -0.3304 -0.0679
  133loPI   GL1 2117   1.195  14.455  10.383  0.1020 -0.0660  0.2372
  133loPI   GL2 2118   1.426  14.296  10.175  0.0070  0.0448 -0.2405
  133loPI   C1A 2119   1.108  14.685   9.987 -0.2990 -0.0433  0.1423
  133loPI   C2A 2120   1.117  14.639   9.438  0.1358  0.0190 -0.3350
  133loPI   C3A 2121   1.130  14.621   8.989 -0.0159  0.2110 -0.0421
  133loPI   C4A 2122   1.219  14.644   8.522  0.3141  0.1423 -0.3346
  133loPI   C5A 2123   1.263  14.644   8.052 -0.0127  0.1259 -0.1500
  133loPI   C6A 2124   1.570  14.358   7.837 -0.2978  0.1621 -0.4282
  133loPI   C1B 2125   1.451  14.175   9.706  0.1317 -0.1687  0.0948
  133loPI   C2B 2126   1.356  14.154   9.163 -0.1695  0.2168  0.1115
  133loPI   C3B 2127   1.403  14.187   8.700 -0.4209  0.0957 -0.1520
  133loPI   C4B 2128   1.662  14.405   8.344 -0.3108 -0.1814 -0.0113
  134loPI    C1 2129   7.947   2.209  10.787  0.1499 -0.1451 -0.1642
  134loPI    C2 2130   8.161   2.547  10.770  0.1764 -0.1380  0.2130
  134loPI    C3 2131   8.125   2.350  11.116  0.0259 -0.4368  0.0324
  134loPI   PO4 2132   7.866   2.156  10.550 -0.2019  0.2939  0.0049
  134loPI   GL1 2133   7.624   1.866  10.291  0.2966 -0.0569  0.0197
  134loPI   GL2 2134   7.437   2.159  10.283 -0.0459 -0.1413 -0.3529
  134loPI   C1A 2135   7.749   1.650   9.955  0.1371  0.3392 -0.0453
  134loPI   C2A 2136   7.832   1.531   9.497 -0.1129 -0.1051 -0.0259
  134loPI   C3A 2137   7.812   1.566   9.091 -0.2133 -0.3481 -0.2783
  134loPI   C4A 2138   7.936   1.730   8.611 -0.0346 -0.1585 -0.0454
  134loPI   C5A 2139   7.631   1.602   8.329  0.1067 -0.1547 -0.1118
  134loPI   C6A 2140   7.460   1.697   7.891  0.1460 -0.1789  0.0932
  134loPI   C1B 2141   7.488   2.054   9.786 -0.1800 -0.0561 -0.2605
  134loPI   C2B 2142   7.636   2.260   9.428 -0.2481  0.0124 -0.1682
  134loPI   C3B 2143   7.786   2.403   9.099  0.0969 -0.1670  0.0493
  134loPI   C4B 2144   7.847   2.699   8.671  0.0636  0.1245  0.0379
  135loPI    C1 2145   9.313   3.833  10.861  0.2844  0.0817 -0.1010
  135loPI    C2 2146   9.592   3.634  11.067 -0.2907 -0.3421  0.3041
  135loPI    C3 2147   9.313   3.846  11.261 -0.2418  0.1049 -0.0938
  135loPI   PO4 2148   9.450   3.943  10.669 -0.0614 -0.2642  0.0263
  135loPI   GL1 2149   9.509   3.854  10.155  0.2884 -0.2516  0.1152
  135loPI   GL2 2150   9.442   3.562  10.121  0.1869  0.0970 -0.0014
  135loPI   C1A 2151   9.707   4.014   9.790  0.0281  0.1210 -0.1366
  135loPI   C2A 2152   9.933   4.311   9.578  0.0490  0.1534 -0.0311
  135loPI   C3A 2153  10.102   4.577   9.271 -0.0659 -0.0157  0.1381
  135loPI   C4A 2154  10.250   4.914   9.026  0.2775 -0.3266 -0.1042
  135loPI   C5A 2155  10.679   5.058   8.896  0.1411 -0.1209  0.1018
  135loPI   C6A 2156  10.977   4.939   8.730 -0.1196  0.1819 -0.0769
  135loPI   C1B 2157   9.316   3.680   9.693 -0.0714  0.2191  0.1376
  135loPI   C2B 2158   9.392   3.530   9.259 -0.0264  0.0354  0.1498
  135loPI   C3B 2159   9.471   3.485   8.889  0.3126 -0.0412  0.1607
  135loPI   C4B 2160   9.332   3.715   8.485 -0.0858 -0.1100  0.0101
  136loPI    C1 2161  15.424  10.982  11.217 -0.2660 -0.0225 -0.0693
  136loPI    C2 2162  15.664  11.187  11.463 -0.1358  0.0332 -0.2411
  136loPI    C3 2163  15.504  10.840  11.583 -0.0047  0.0172 -0.1093
  136loPI   PO4 2164  15.519  11.006  10.985  0.2702 -0.1780  0.0088
  136loPI   GL1 2165  15.339  10.899  10.510  0.1229 -0.0187 -0.2200
  136loPI   GL2 2166  14.996  10.979  10.531  0.1429 -0.0296  0.1688
  136loPI   C1A 2167  15.284  10.806  10.069  0.2848  0.2064  0.0652
  136loPI   C2A 2168  15.399  10.813   9.622 -0.1440  0.1524  0.2162
  136loPI   C3A 2169  15.355  10.883   9.274  0.2203  0.0057  0.0365
  136loPI   C4A 2170  15.533  10.792   8.898 -0.1978  0.4430 -0.0816
  136loPI   C5A 2171  15.238  10.874   8.565 -0.1573  0.0458  0.1291
  136loPI   C6A 2172  14.973  10.627   8.338 -0.0730 -0.4104  0.0063
  136loPI   C1B 2173  14.814  10.808  10.190  0.1343 -0.1281  0.1481
  136loPI   C2B 2174  14.821  10.821   9.815  0.2183 -0.0116  0.0359
  136loPI   C3B 2175  14.835  10.937   9.397  0.2128 -0.0514 -0.0612
  136loPI   C4B 2176  14.878  10.928   8.950  0.0107 -0.2392  0.1984
  137loPI    C1 2177   0.963  14.221  10.910 -0.0068  0.0611 -0.2072
  137loPI    C2 2178   0.816  14.217  11.282  0.0867 -0.1559 -0.1714
  137loPI    C3 2179   1.123  14.456  11.191  0.0936 -0.1364 -0.0974
  137loPI   PO4 2180   0.973  13.975  10.855  0.0360  0.3437  0.3239
  137loPI   GL1 2181   0.952  13.710  10.517  0.0128  0.1246  0.0578
  137loPI   GL2 2182   1.099  13.935  10.301  0.2470  0.0344  0.0304
  137loPI   C1A 2183   0.794  13.444  10.159  0.2367 -0.0937 -0.0532
  137loPI   C2A 2184   0.702  13.410   9.734 -0.1592 -0.1977  0.0647
  137loPI   C3A 2185   0.847  13.375   9.257 -0.1180  0.0469 -0.0802
  137loPI   C4A 2186   0.886  13.309   8.743  0.0632  0.2627 -0.1790
  137loPI   C5A 2187   0.593  13.228   8.451  0.0562 -0.0554 -0.0120
  137loPI   C6A 2188   0.151  13.099   8.305 -0.0342  0.0481  0.1111
  137loPI   C1B 2189   0.996  13.837   9.911  0.2847 -0.0093 -0.0587
  137loPI   C2B 2190   1.083  13.819   9.472 -0.1011 -0.1761  0.2340
  137loPI   C3B 2191   1.144  13.702   9.056  0.2877  0.0859 -0.0068
  137loPI   C4B 2192   1.147  13.765   8.710  0.1585  0.0280 -0.1888
  138loPI    C1 2193  17.017  11.422  11.265  0.1563  0.1994  0.3189
  138loPI    C2 2194  16.883  11.168  11.543 -0.0842 -0.0732 -0.0365
  138loPI    C3 2195  17.230  11.097  11.358 -0.0938 -0.0794 -0.0519
  138loPI   PO4 2196  16.845  11.407  11.089 -0.0929 -0.0174 -0.1164
  138loPI   GL1 2197  16.686  11.196  10.799 -0.1012 -0.0970 -0.1358
  138loPI   GL2 2198  16.818  11.567  10.620 -0.0529  0.2168  0.1685
  138loPI   C1A 2199  16.696  11.158  10.315  0.1623 -0.0021  0.0805
  138loPI   C2A 2200  16.632  11.227   9.914 -0.3093  0.0086  0.0013
  138loPI   C3A 2201  16.709  11.252   9.470  0.2473  0.3235 -0.1278
  138loPI   C4A 2202  16.794  11.255   9.023 -0.1176 -0.0006 -0.0401
  138loPI   C5A 2203  17.011  11.221   8.710 -0.1710 -0.1224  0.0819
  138loPI   C6A 2204  16.944  10.931   8.318  0.1812 -0.1952  0.0086
  138loPI   C1B 2205  16.953  11.649  10.136 -0.0592  0.1632  0.0890
  138loPI   C2B 2206  16.944  11.665   9.660 -0.0866 -0.0985  0.0922
  138loPI   C3B 2207  17.002  11.658   9.288  0.0834  0.2045  0.0226
  138loPI   C4B 2208  17.145  11.673   8.848  0.0278  0.1691  0.0574
  139loPI    C1 2209   5.396  13.312  11.002  0.0428 -0.2804 -0.0229
  139loPI    C2 2210   5.432  13.213  11.388  0.0814 -0.1954 -0.0042
  139loPI    C3 2211   5.671  13.044  11.114  0.2554 -0.0372  0.0480
  139loPI   PO4 2212   5.186  13.275  10.940  0.0434  0.1935  0.0286
  139loPI   GL1 2213   5.116  13.191  10.546 -0.2241 -0.2399  0.0346
  139loPI   GL2 2214   5.392  13.204  10.358  0.1093 -0.1295  0.0403
  139loPI   C1A 2215   4.962  13.083  10.243  0.4511 -0.0431  0.0932
  139loPI   C2A 2216   4.955  12.973   9.822  0.1090 -0.3609 -0.0683
  139loPI   C3A 2217   5.063  12.901   9.379  0.2367 -0.2909  0.0612
  139loPI   C4A 2218   5.152  13.037   8.991  0.0993  0.0660  0.0143
  139loPI   C5A 2219   5.010  13.059   8.546 -0.0280 -0.0466 -0.1257
  139loPI   C6A 2220   5.119  12.888   8.157  0.0765  0.0304  0.0707
  139loPI   C1B 2221   5.497  13.074   9.918 -0.0349  0.0392 -0.1753
  139loPI   C2B 2222   5.598  13.058   9.526 -0.0181  0.0410 -0.0830
  139loPI   C3B 2223   5.624  13.105   9.151 -0.4920  0.0418  0.1218
  139loPI   C4B 2224   5.610  13.140   8.674 -0.0809 -0.0920 -0.1702
  140loPI    C1 2225   4.712   2.047  10.869  0.1193 -0.0280 -0.1730
  140loPI    C2 2226   4.851   2.000  11.241  0.2003 -0.0711 -0.2086
  140loPI    C3 2227   4.592   2.294  11.161  0.1850 -0.0597 -0.1189
  140loPI   PO4 2228   4.937   1.856  10.752 -0.0653  0.0155  0.0716
  140loPI   GL1 2229   5.342   1.974  10.422  0.1622  0.2305 -0.1165
  140loPI   GL2 2230   5.512   2.234  10.259  0.1412 -0.0917 -0.0226
  140loPI   C1A 2231   5.405   1.776   9.992  0.2556  0.0015 -0.3403
  140loPI   C2A 2232   5.425   1.684   9.639 -0.0705 -0.0072  0.1601
  140loPI   C3A 2233   5.366   1.662   9.185 -0.2364  0.1009  0.0126
  140loPI   C4A 2234   5.383   1.694   8.765 -0.1114  0.0642 -0.0695
  140loPI   C5A 2235   5.257   1.655   8.296 -0.1844  0.1250 -0.0332
  140loPI   C6A 2236   4.988   1.649   7.830 -0.5081 -0.0623  0.0224
  140loPI   C1B 2237   5.510   2.239   9.817 -0.0837 -0.0594 -0.0959
  140loPI   C2B 2238   5.614   2.111   9.421  0.0917 -0.0784 -0.0587
  140loPI   C3B 2239   5.638   2.055   8.981 -0.3376  0.0506 -0.0671
  140loPI   C4B 2240   5.721   1.964   8.548  0.2143 -0.2776  0.3713
  141loPI    C1 2241  12.510  15.731  11.386 -0.1630  0.0096  0.1309
  141loPI    C2 2242  12.166  15.815  11.572 -0.2653 -0.1842  0.0312
  141loPI    C3 2243  12.278  15.434  11.519  0.1198 -0.1204  0.3443
  141loPI   PO4 2244  12.505  15.895  11.120  0.0844 -0.3032 -0.1458
  141loPI   GL1 2245  12.586  15.863  10.695  0.4302  0.1383 -0.0789
  141loPI   GL2 2246  12.305  15.969  10.633  0.0090  0.2068 -0.2024
  141loPI   C1A 2247  12.859  15.910  10.357  0.2556  0.0029  0.0364
  141loPI   C2A 2248  12.922  15.845   9.916 -0.1491  0.0141  0.0033
  141loPI   C3A 2249  12.844  16.003   9.524  0.0879 -0.2722 -0.1032
  141loPI   C4A 2250  12.868  15.984   9.076  0.0573 -0.2191  0.0980
  141loPI   C5A 2251  12.789  16.253   8.811 -0.2724 -0.3566  0.0691
  141loPI   C6A 2252  12.775  16.667   8.744  0.0064 -0.1512 -0.2784
  141loPI   C1B 2253  12.231  15.879  10.240  0.1655 -0.2565  0.6161
  141loPI   C2B 2254  12.359  15.929   9.788  0.2128  0.0507  0.0374
  141loPI   C3B 2255  12.406  15.924   9.334 -0.3173 -0.1334  0.1171
  141loPI   C4B 2256  12.260  15.980   8.939  0.1268 -0.1307  0.0970
  142loPI    C1 2257  12.750   2.552  10.929  0.1207 -0.1370 -0.0519
  142loPI    C2 2258  13.081   2.777  10.934 -0.0215  0.0794 -0.2035
  142loPI    C3 2259  12.828   2.787  11.244  0.1215 -0.1015 -0.0786
  142loPI   PO4 2260  12.692   2.547  10.749  0.2101 -0.0631 -0.2228
  142loPI   GL1 2261  12.517   2.678  10.504 -0.0294  0.0875 -0.0808
  142loPI   GL2 2262  12.115   2.748  10.382 -0.3176  0.2635 -0.3943
  142loPI   C1A 2263  12.495   2.652  10.040  0.0889 -0.1776 -0.1408
  142loPI   C2A 2264  12.501   2.495   9.656 -0.2985  0.0137  0.0834
  142loPI   C3A 2265  12.456   2.530   9.216 -0.0613  0.4289 -0.1182
  142loPI   C4A 2266  12.497   2.618   8.832 -0.0389 -0.0728  0.3318
  142loPI   C5A 2267  12.315   2.604   8.276 -0.0279  0.3380 -0.2161
  142loPI   C6A 2268  12.062   2.863   8.148  0.0527 -0.1935 -0.2767
  142loPI   C1B 2269  12.002   2.568  10.044 -0.1549 -0.1833  0.0797
  142loPI   C2B 2270  11.999   2.609   9.606 -0.2400  0.0737  0.1146
  142loPI   C3B 2271  11.952   2.489   9.161 -0.2357  0.1474  0.1266
  142loPI   C4B 2272  11.983   2.609   8.702 -0.1740 -0.0467 -0.1889
  143loPI    C1 2273   7.744  13.030  11.052 -0.3001  0.1347  0.1659
  143loPI    C2 2274   7.814  13.401  11.184  0.1602  0.0856  0.0797
  143loPI    C3 2275   7.906  13.087  11.413  0.1492  0.0170 -0.0092
  143loPI   PO4 2276   7.542  13.183  10.837 -0.0226  0.3610 -0.0888
  143loPI   GL1 2277   7.534  13.259  10.416  0.0388  0.0477 -0.1606
  143loPI   GL2 2278   7.302  12.974  10.362 -0.1692  0.0889 -0.1518
  143loPI   C1A 2279   7.508  13.495  10.049 -0.2554  0.1100 -0.2659
  143loPI   C2A 2280   7.543  13.399   9.662  0.2735 -0.3322  0.0946
  143loPI   C3A 2281   7.580  13.527   9.288  0.0666  0.2380  0.0900
  143loPI   C4A 2282   7.670  13.409   8.872  0.7037 -0.1819  0.1420
  143loPI   C5A 2283   7.676  13.411   8.403  0.1621  0.0334 -0.1016
  143loPI   C6A 2284   7.915  13.519   8.126  0.2098 -0.0879 -0.0137
  143loPI   C1B 2285   7.340  12.982   9.888 -0.1591 -0.1734  0.1453
  143loPI   C2B 2286   7.403  12.881   9.488 -0.1251  0.0535  0.1764
  143loPI   C3B 2287   7.436  13.038   9.060  0.0415 -0.0513  0.0565
  143loPI   C4B 2288   7.495  12.959   8.563  0.0452  0.1415 -0.0603
  144loPI    C1 2289  14.099  13.193  11.512  0.4666  0.0475  0.2119
  144loPI    C2 2290  13.928  12.886  11.703 -0.2067  0.1680 -0.1684
  144loPI    C3 2291  13.998  13.228  11.897 -0.0746  0.0016  0.0822
  144loPI   PO4 2292  13.991  13.191  11.345 -0.2246 -0.0829 -0.0196
  144loPI   GL1 2293  14.108  13.494  10.986  0.2532 -0.0371  0.0005
  144loPI   GL2 2294  13.782  13.698  10.820 -0.3822  0.2498  0.0376
  144loPI   C1A 2295  14.059  13.345  10.597  0.0602  0.0743  0.0770
  144loPI   C2A 2296  13.989  13.496  10.197 -0.1684 -0.0943 -0.1259
  144loPI   C3A 2297  14.027  13.604   9.793 -0.1139  0.2939  0.0144
  144loPI   C4A 2298  14.023  13.697   9.268  0.0940  0.0293 -0.0891
  144loPI   C5A 2299  14.101  13.684   8.893 -0.0873  0.2827 -0.0347
  144loPI   C6A 2300  14.241  13.451   8.470 -0.1918  0.0119 -0.0671
  144loPI   C1B 2301  14.126  13.862  10.554 -0.0088  0.2378 -0.1941
  144loPI   C2B 2302  14.302  13.908  10.110 -0.1503 -0.1733  0.5270
  144loPI   C3B 2303  14.315  14.016   9.736 -0.5685 -0.2912  0.1352
  144loPI   C4B 2304  14.291  14.102   9.351  0.1546 -0.3067 -0.0976
  145loPI    C1 2305  14.764   9.109  11.294  0.2107  0.1478  0.1880
  145loPI    C2 2306  14.522   9.322  11.531 -0.1143  0.0426 -0.0431
  145loPI    C3 2307  14.478   8.925  11.504  0.1282  0.0137 -0.0387
  145loPI   PO4 2308  14.775   9.221  11.110 -0.1000 -0.0675 -0.1680
  145loPI   GL1 2309  14.588   9.258  10.708  0.1104 -0.1735  0.0676
  145loPI   GL2 2310  14.837   9.482  10.491 -0.2001  0.2168  0.4855
  145loPI   C1A 2311  14.513   9.071  10.348 -0.2001 -0.0171 -0.0593
  145loPI   C2A 2312  14.727   8.976   9.978 -0.0281  0.2285  0.0056
  145loPI   C3A 2313  14.787   9.081   9.576 -0.0272  0.1726  0.0004
  145loPI   C4A 2314  14.822   9.070   9.238 -0.1713  0.0000 -0.1953
  145loPI   C5A 2315  14.882   9.080   8.795 -0.1650  0.2322 -0.0487
  145loPI   C6A 2316  15.042   8.947   8.354 -0.0238 -0.0227  0.0969
  145loPI   C1B 2317  14.899   9.432  10.032 -0.2605  0.2785 -0.0389
  145loPI   C2B 2318  15.035   9.559   9.643  0.0388  0.0976  0.1946
  145loPI   C3B 2319  15.123   9.529   9.230  0.0276 -0.2235  0.1535
  145loPI   C4B 2320  15.163   9.667   8.743 -0.1452 -0.0740  0.0510
  146loPI    C1 2321   2.318  12.131  10.812 -0.1050 -0.2129 -0.3410
  146loPI    C2 2322   1.931  12.074  10.730 -0.1934  0.2423 -0.2691
  146loPI    C3 2323   2.051  12.109  11.110 -0.0908  0.1663 -0.2944
  146loPI   PO4 2324   2.459  12.306  10.645  0.0407  0.0069  0.2755
  146loPI   GL1 2325   2.242  12.197  10.299  0.1134  0.1299 -0.2020
  146loPI   GL2 2326   2.331  11.886  10.363  0.0816 -0.2004 -0.1076
  146loPI   C1A 2327   2.250  12.223   9.888  0.1541  0.0226  0.1031
  146loPI   C2A 2328   2.334  12.151   9.476  0.3101 -0.1805 -0.0533
  146loPI   C3A 2329   2.391  12.083   9.037 -0.1364 -0.0441  0.0832
  146loPI   C4A 2330   2.412  12.158   8.593  0.2249 -0.1806 -0.2124
  146loPI   C5A 2331   2.258  12.070   8.101  0.0844 -0.1592 -0.1398
  146loPI   C6A 2332   2.327  11.728   7.817 -0.1931  0.0351 -0.2379
  146loPI   C1B 2333   2.573  11.828  10.067 -0.1698 -0.1980 -0.1473
  146loPI   C2B 2334   2.623  11.785   9.705 -0.1130 -0.5486  0.4669
  146loPI   C3B 2335   2.642  11.673   9.254  0.0909 -0.0652  0.1603
  146loPI   C4B 2336   2.704  11.709   8.777 -0.6042 -0.1583  0.0515
  147loPI    C1 2337  16.338  12.581  10.996  0.0393  0.0906  0.0159
  147loPI    C2 2338  16.175  12.566  11.361 -0.0034 -0.2395 -0.0139
  147loPI    C3 2339  16.418  12.273  11.238  0.3443  0.0775 -0.0985
  147loPI   PO4 2340  16.221  12.854  10.897 -0.2279  0.3595 -0.0798
  147loPI   GL1 2341  16.017  12.825  10.608 -0.0818  0.0720  0.4183
  147loPI   GL2 2342  15.706  12.957  10.565  0.0659 -0.0046 -0.0715
  147loPI   C1A 2343  15.990  12.538  10.214 -0.0597  0.0346  0.0427
  147loPI   C2A 2344  15.943  12.534   9.799 -0.1215  0.3508 -0.1630
  147loPI   C3A 2345  16.031  12.477   9.358  0.0012 -0.0251  0.1616
  147loPI   C4A 2346  16.007  12.655   8.945 -0.0316 -0.0552 -0.1441
  147loPI   C5A 2347  16.243  12.771   8.568  0.0448  0.1720  0.2740
  147loPI   C6A 2348  16.313  13.013   8.216 -0.1123  0.1081 -0.1100
  147loPI   C1B 2349  15.828  13.001  10.149 -0.2135 -0.1423 -0.1173
  147loPI   C2B 2350  15.797  12.980   9.647 -0.1969 -0.1508  0.0706
  147loPI   C3B 2351  15.889  13.040   9.280 -0.3120  0.0894 -0.1001
  147loPI   C4B 2352  15.843  13.113   8.931 -0.1211 -0.0978 -0.0165
  148loPI    C1 2353  12.762  11.882  11.324  0.1670 -0.0308  0.0264
  148loPI    C2 2354  13.052  11.640  11.458  0.1309 -0.0216  0.1225
  148loPI    C3 2355  12.669  11.545  11.520  0.1099 -0.0897 -0.1008
  148loPI   PO4 2356  12.739  11.907  11.111 -0.0111  0.1175 -0.0784
  148loPI   GL1 2357  12.796  11.971  10.640 -0.0852 -0.1131 -0.3382
  148loPI   GL2 2358  12.547  11.851  10.603 -0.1312  0.1462  0.0540
  148loPI   C1A 2359  12.802  11.853  10.125 -0.1197  0.2173  0.0350
  148loPI   C2A 2360  12.843  11.872   9.709 -0.1284  0.0459  0.0545
  148loPI   C3A 2361  12.891  11.937   9.222  0.4366 -0.4111 -0.2130
  148loPI   C4A 2362  12.743  11.904   8.828  0.3163  0.2457  0.0013
  148loPI   C5A 2363  12.596  11.510   8.504  0.0830 -0.1116  0.0269
  148loPI   C6A 2364  12.216  11.064   8.488 -0.1380 -0.3023 -0.0562
  148loPI   C1B 2365  12.332  11.827  10.192 -0.0386  0.1165  0.1746
  148loPI   C2B 2366  12.307  11.728   9.754 -0.1225  0.1915  0.0162
  148loPI   C3B 2367  12.499  11.650   9.348 -0.1480  0.3984 -0.1999
  148loPI   C4B 2368  12.660  11.473   8.990  0.1937  0.0550 -0.1173
  149loPI    C1 2369  13.309  12.739  11.113 -0.1081  0.3246 -0.0957
  149loPI    C2 2370  13.651  12.833  11.297  0.1163 -0.1400 -0.2585
  149loPI    C3 2371  13.369  12.629  11.493 -0.0219  0.1377 -0.1622
  149loPI   PO4 2372  13.392  12.748  10.853 -0.3131 -0.1389  0.2986
  149loPI   GL1 2373  13.370  12.779  10.565  0.1712 -0.1835  0.1673
  149loPI   GL2 2374  13.560  13.091  10.501 -0.2496 -0.1619  0.0512
  149loPI   C1A 2375  13.452  12.644  10.188 -0.3785 -0.1252  0.2789
  149loPI   C2A 2376  13.540  12.758   9.723 -0.4466  0.1934  0.0743
  149loPI   C3A 2377  13.443  12.793   9.226 -0.0428 -0.1654 -0.3853
  149loPI   C4A 2378  13.307  12.756   8.807 -0.2403 -0.3510  0.2274
  149loPI   C5A 2379  13.397  12.683   8.301 -0.0510 -0.1062  0.0352
  149loPI   C6A 2380  13.609  12.655   7.883 -0.0663 -0.2518 -0.3861
  149loPI   C1B 2381  13.704  13.121  10.129 -0.0321  0.1981  0.4081
  149loPI   C2B 2382  13.715  13.242   9.636 -0.2092  0.3525  0.3248
  149loPI   C3B 2383  13.747  13.254   9.206  0.0906  0.1217 -0.0267
  149loPI   C4B 2384  13.822  13.262   8.753  0.0713  0.1379 -0.2115
  150loPI    C1 2385   0.436  14.780  11.343  0.0354 -0.1717  0.1349
  150loPI    C2 2386   0.725  14.812  11.618  0.3049  0.1965 -0.1808
  150loPI    C3 2387   0.493  15.127  11.533 -0.1846 -0.0886  0.0524
  150loPI   PO4 2388   0.583  14.642  11.167 -0.0341  0.0957 -0.1134
  150loPI   GL1 2389   0.526  14.598  10.721 -0.1511 -0.0563  0.1534
  150loPI   GL2 2390   0.702  14.345  10.493 -0.0661  0.0813  0.1088
  150loPI   C1A 2391   0.614  14.752  10.207  0.0578  0.0312 -0.1895
  150loPI   C2A 2392   0.591  14.674   9.763  0.1085 -0.1990  0.0470
  150loPI   C3A 2393   0.563  14.740   9.296  0.0881  0.1693  0.3808
  150loPI   C4A 2394   0.688  14.798   8.926 -0.2211  0.0277 -0.2931
  150loPI   C5A 2395   0.695  14.789   8.613 -0.1689 -0.4245 -0.0611
  150loPI   C6A 2396   0.702  14.429   8.463  0.1121 -0.1009 -0.0036
  150loPI   C1B 2397   0.800  14.256  10.094 -0.1004  0.1924  0.0457
  150loPI   C2B 2398   0.770  14.227   9.632 -0.1492 -0.0488  0.1482
  150loPI   C3B 2399   0.832  14.287   9.207 -0.0117 -0.0565 -0.0938
  150loPI   C4B 2400   0.950  14.165   8.844  0.0174 -0.1369  0.2977
  151loPI    C1 2401   8.814   5.433  11.172 -0.1405  0.2768  0.0449
  151loPI    C2 2402   9.052   5.687  11.369  0.1833 -0.0706  0.1126
  151loPI    C3 2403   8.908   5.363  11.554  0.0031 -0.0871 -0.0531
  151loPI   PO4 2404   8.859   5.508  10.936 -0.1390  0.1458 -0.3431
  151loPI   GL1 2405   8.848   5.531  10.638 -0.0637  0.0718  0.1222
  151loPI   GL2 2406   9.117   5.673  10.461 -0.0038 -0.0109  0.1302
  151loPI   C1A 2407   8.656   5.670  10.240 -0.2417 -0.3284 -0.1217
  151loPI   C2A 2408   8.646   5.786   9.834  0.1113  0.0324 -0.0543
  151loPI   C3A 2409   8.522   5.747   9.451  0.2242  0.1131 -0.0560
  151loPI   C4A 2410   8.531   5.743   8.993 -0.1362  0.0657  0.0706
  151loPI   C5A 2411   8.510   5.804   8.520  0.0810 -0.1893  0.1079
  151loPI   C6A 2412   8.414   6.121   8.246 -0.3361  0.1769 -0.0971
  151loPI   C1B 2413   9.129   5.757  10.068  0.0423  0.0341  0.1988
  151loPI   C2B 2414   9.073   5.844   9.600  0.0897  0.0038  0.0725
  151loPI   C3B 2415   9.033   5.797   9.197 -0.0354 -0.3192  0.1687
  151loPI   C4B 2416   8.953   5.803   8.756  0.0798  0.1372  0.1256
  152loPI    C1 2417   0.568  13.698  11.356  0.1801  0.0405 -0.0709
  152loPI    C2 2418   0.282  13.870  11.577  0.2101 -0.0524  0.0417
  152loPI    C3 2419   0.661  13.870  11.705  0.1867 -0.3333  0.1172
  152loPI   PO4 2420   0.577  13.776  11.158 -0.2007  0.0271 -0.3695
  152loPI   GL1 2421   0.484  13.712  10.744  0.0242 -0.2437 -0.1950
  152loPI   GL2 2422   0.141  13.718  10.610 -0.0661 -0.1287  0.1209
  152loPI   C1A 2423   0.512  13.863  10.321  0.0248  0.2694  0.4038
  152loPI   C2A 2424   0.475  13.821   9.911 -0.2369  0.0378  0.0146
  152loPI   C3A 2425   0.459  13.790   9.486  0.0802  0.1882  0.1752
  152loPI   C4A 2426   0.592  13.825   9.112 -0.1994 -0.0186 -0.2945
  152loPI   C5A 2427   0.648  13.747   8.649  0.2206 -0.2051 -0.2430
  152loPI   C6A 2428   0.865  13.686   8.322  0.1459 -0.1158 -0.2509
  152loPI   C1B 2429   0.052  13.841  10.163  0.1141  0.1160  0.1013
  152loPI   C2B 2430  -0.053  13.878   9.755  0.2374  0.2595 -0.1088
  152loPI   C3B 2431   0.009  13.878   9.330 -0.1543  0.1813  0.0100
  152loPI   C4B 2432   0.125  13.896   8.929 -0.0478 -0.1146  0.1171
  153loPI    C1 2433  16.146   6.729  11.017  0.1264  0.1537  0.0441
  153loPI    C2 2434  16.066   7.083  11.187 -0.3739  0.0845 -0.0317
  153loPI    C3 2435  16.042   6.747  11.403  0.0528  0.0864  0.0276
  153loPI   PO4 2436  16.245   6.757  10.684  0.2338  0.0165 -0.2634
  153loPI   GL1 2437  16.285   6.917  10.309  0.0344 -0.0983 -0.3301
  153loPI   GL2 2438  16.256   7.142  10.213 -0.1890 -0.0388  0.1499
  153loPI   C1A 2439  16.389   6.734   9.942 -0.3001  0.1087  0.0511
  153loPI   C2A 2440  16.524   6.697   9.527 -0.0614  0.0841  0.0309
  153loPI   C3A 2441  16.432   6.748   9.165 -0.0607 -0.0097  0.0378
  153loPI   C4A 2442  16.396   6.798   8.745 -0.0245 -0.1530  0.1816
  153loPI   C5A 2443  16.699   6.744   8.443 -0.1405  0.1787 -0.3656
  153loPI   C6A 2444  16.783   6.483   8.035 -0.0580 -0.0544 -0.0255
  153loPI   C1B 2445  16.113   7.237   9.751  0.2691  0.0656 -0.1092
  153loPI   C2B 2446  16.217   7.199   9.332 -0.1174  0.0652  0.1004
  153loPI   C3B 2447  16.190   7.201   8.866  0.0550  0.0982  0.2673
  153loPI   C4B 2448  16.278   7.327   8.462 -0.1548  0.0069 -0.3145
  154loPI    C1 2449  10.170  14.699  11.083 -0.1062  0.0215  0.0625
  154loPI    C2 2450  10.163  14.492  11.425  0.3010  0.1945  0.1821
  154loPI    C3 2451  10.141  14.891  11.433 -0.2010  0.1784 -0.0302
  154loPI   PO4 2452  10.285  14.468  10.841 -0.0468 -0.1834  0.1081
  154loPI   GL1 2453  10.349  14.198  10.462 -0.0913  0.1144  0.0286
  154loPI   GL2 2454  10.361  14.622  10.399  0.0776 -0.0665 -0.0834
  154loPI   C1A 2455  10.319  14.156  10.003  0.3786 -0.2046 -0.0136
  154loPI   C2A 2456  10.354  14.293   9.580  0.0316  0.1443  0.1795
  154loPI   C3A 2457  10.441  14.219   9.121  0.3863 -0.1431  0.2853
  154loPI   C4A 2458  10.388  14.231   8.632 -0.0885 -0.0933 -0.2508
  154loPI   C5A 2459  10.732  14.205   8.395  0.1350  0.1913  0.0572
  154loPI   C6A 2460  10.854  14.249   7.906  0.1509 -0.0839  0.1196
  154loPI   C1B 2461  10.420  14.641   9.991 -0.0656 -0.0143  0.1265
  154loPI   C2B 2462  10.574  14.755   9.653 -0.3382 -0.1183  0.2081
  154loPI   C3B 2463  10.582  14.690   9.138 -0.0628  0.1580  0.1137
  154loPI   C4B 2464  10.648  14.648   8.757  0.2661  0.3434 -0.1068
  155loPI    C1 2465   6.708   1.574  10.907 -0.1072  0.0221  0.0006
  155loPI    C2 2466   7.099   1.513  10.850 -0.1733 -0.2884 -0.1433
  155loPI    C3 2467   6.951   1.529  11.221  0.0048  0.0395 -0.0827
  155loPI   PO4 2468   6.652   1.587  10.553  0.0869  0.1613  0.1457
  155loPI   GL1 2469   6.587   1.669  10.172  0.0051  0.1143  0.0666
  155loPI   GL2 2470   6.279   1.667  10.193 -0.2299 -0.2385 -0.2365
  155loPI   C1A 2471   6.256   1.332   9.881  0.1379 -0.0401 -0.3273
  155loPI   C2A 2472   6.271   1.343   9.530  0.0144 -0.1340  0.2847
  155loPI   C3A 2473   6.280   1.234   9.142 -0.3474 -0.0867 -0.0908
  155loPI   C4A 2474   6.213   1.243   8.716  0.1846  0.1453 -0.0095
  155loPI   C5A 2475   6.272   1.239   8.296 -0.0530 -0.2289  0.0810
  155loPI   C6A 2476   6.266   0.842   8.045 -0.2265 -0.1014  0.1618
  155loPI   C1B 2477   6.387   1.802   9.764 -0.0939 -0.2484 -0.2497
  155loPI   C2B 2478   6.440   1.744   9.298 -0.1553  0.3239  0.1940
  155loPI   C3B 2479   6.528   1.742   8.841 -0.2746 -0.3632  0.1861
  155loPI   C4B 2480   6.571   1.688   8.415 -0.1567  0.2992 -0.0307
  156loPI    C1 2481   2.387   9.807  11.033 -0.0333  0.0435  0.0811
  156loPI    C2 2482   2.250   9.881  11.402  0.1373 -0.0979  0.1743
  156loPI    C3 2483   2.494   9.570  11.337  0.0599 -0.1103 -0.0692
  156loPI   PO4 2484   2.293   9.793  10.923 -0.1551  0.1347 -0.2182
  156loPI   GL1 2485   2.306   9.872  10.460 -0.1289  0.0405  0.2293
  156loPI   GL2 2486   2.492  10.057  10.274 -0.0234 -0.0877 -0.3537
  156loPI   C1A 2487   2.090   9.833  10.109  0.1513 -0.2117 -0.4123
  156loPI   C2A 2488   2.023   9.794   9.680 -0.1369  0.1218 -0.0459
  156loPI   C3A 2489   1.958   9.834   9.242  0.0362  0.0702  0.0887
  156loPI   C4A 2490   1.905   9.739   8.806  0.1992 -0.0479  0.0336
  156loPI   C5A 2491   1.508   9.751   8.530 -0.0687  0.3820  0.1611
  156loPI   C6A 2492   1.110   9.660   8.560  0.0763 -0.0884  0.0704
  156loPI   C1B 2493   2.494   9.937   9.826  0.1640  0.1409  0.0953
  156loPI   C2B 2494   2.440   9.852   9.347 -0.2045 -0.0784  0.2016
  156loPI   C3B 2495   2.427   9.846   8.905  0.0254 -0.0543 -0.0941
  156loPI   C4B 2496   2.259   9.990   8.519 -0.1672 -0.2644  0.0675
  157loPI    C1 2497  12.925   9.432  11.122 -0.0724  0.2550  0.2394
  157loPI    C2 2498  13.307   9.550  11.127  0.1154 -0.2866 -0.2531
  157loPI    C3 2499  13.191   9.238  11.349 -0.0844 -0.0195  0.0250
  157loPI   PO4 2500  12.821   9.477  10.856 -0.3168  0.2303  0.2278
  157loPI   GL1 2501  13.140   9.525  10.461  0.0483 -0.2544 -0.1863
  157loPI   GL2 2502  12.895   9.271  10.324  0.1530  0.3026  0.0111
  157loPI   C1A 2503  13.424   9.569  10.102 -0.0730  0.1300  0.2121
  157loPI   C2A 2504  13.535   9.642   9.706  0.1214 -0.0914  0.1475
  157loPI   C3A 2505  13.526   9.603   9.312  0.1374 -0.2510  0.0039
  157loPI   C4A 2506  13.667   9.630   8.950 -0.1148 -0.1190 -0.1854
  157loPI   C5A 2507  13.628   9.708   8.544 -0.1521  0.2950 -0.0583
  157loPI   C6A 2508  13.563  10.092   8.292  0.0240 -0.2220  0.0712
  157loPI   C1B 2509  13.106   9.228   9.881 -0.1161  0.0284  0.0953
  157loPI   C2B 2510  13.262   9.212   9.442  0.0509 -0.1559  0.1395
  157loPI   C3B 2511  13.379   9.133   9.078 -0.0911 -0.0131 -0.2515
  157loPI   C4B 2512  13.406   9.188   8.719 -0.0841  0.2858 -0.1542
  158loPI    C1 2513   8.496  12.271  11.251  0.2827 -0.2957 -0.0428
  158loPI    C2 2514   8.420  12.427  11.611 -0.4317  0.1532 -0.3652
  158loPI    C3 2515   8.699  12.592  11.377 -0.0644 -0.0539 -0.0841
  158loPI   PO4 2516   8.265  12.311  11.116  0.0941 -0.2047 -0.0789
  158loPI   GL1 2517   8.228  12.487  10.658  0.1642  0.0690  0.3716
  158loPI   GL2 2518   8.033  12.286  10.522 -0.0044 -0.0017  0.0162
  158loPI   C1A 2519   8.234  12.661  10.262 -0.1086 -0.1069 -0.1627
  158loPI   C2A 2520   8.256  12.675   9.849  0.1879  0.2583 -0.0819
  158loPI   C3A 2521   8.315  12.662   9.364 -0.0290 -0.2723  0.2922
  158loPI   C4A 2522   8.337  12.695   8.962  0.0455 -0.0751  0.1477
  158loPI   C5A 2523   8.446  12.441   8.643 -0.3679 -0.3893 -0.1572
  158loPI   C6A 2524   8.636  12.374   8.213 -0.2058 -0.1457 -0.1349
  158loPI   C1B 2525   8.055  12.109  10.079  0.1107 -0.2342 -0.1014
  158loPI   C2B 2526   8.094  12.064   9.639  0.2430 -0.2972  0.1399
  158loPI   C3B 2527   8.174  12.161   9.263 -0.2417 -0.0977  0.2182
  158loPI   C4B 2528   8.213  12.063   8.882  0.0696 -0.0855 -0.1872
  159loPI    C1 2529   5.984  15.447  11.098 -0.1114 -0.2115  0.1576
  159loPI    C2 2530   6.369  15.410  11.199 -0.0592  0.0109  0.0476
  159loPI    C3 2531   6.102  15.534  11.470 -0.0262  0.0100  0.0807
  159loPI   PO4 2532   5.858  15.225  10.849 -0.1446 -0.1714 -0.2884
  159loPI   GL1 2533   5.906  15.157  10.441 -0.3452 -0.0320  0.3294
  159loPI   GL2 2534   6.110  15.011  10.312 -0.0442 -0.1683  0.0620
  159loPI   C1A 2535   5.674  14.941  10.105  0.0548 -0.1122 -0.0646
  159loPI   C2A 2536   5.728  14.938   9.670 -0.0898  0.0387  0.0082
  159loPI   C3A 2537   5.801  15.036   9.267  0.2430 -0.3635  0.1977
  159loPI   C4A 2538   5.961  15.092   8.843  0.0628 -0.0986  0.0971
  159loPI   C5A 2539   5.902  15.198   8.447 -0.0116  0.0182 -0.1472
  159loPI   C6A 2540   5.794  15.147   8.116  0.0363 -0.0354 -0.2402
  159loPI   C1B 2541   6.171  15.038   9.922 -0.0131  0.2671 -0.0045
  159loPI   C2B 2542   6.298  15.027   9.531 -0.1260 -0.0524  0.1062
  159loPI   C3B 2543   6.477  15.100   9.095  0.0872  0.2326  0.0527
  159loPI   C4B 2544   6.491  15.142   8.641  0.2280 -0.0607 -0.3260
  160loPI    C1 2545  16.283  11.383  11.375 -0.1757  0.0377  0.3070
  160loPI    C2 2546  16.554  11.580  11.594  0.1404  0.3138 -0.3045
  160loPI    C3 2547  16.429  11.217  11.709  0.6253  0.2605  0.0908
  160loPI   PO4 2548  16.278  11.415  11.095  0.0691  0.2221 -0.0604
  160loPI   GL1 2549  16.352  11.569  10.606 -0.0758  0.3566  0.1140
  160loPI   GL2 2550  16.086  11.692  10.606 -0.1029  0.1152 -0.1215
  160loPI   C1A 2551  16.479  11.689  10.220 -0.0444 -0.1307  0.3197
  160loPI   C2A 2552  16.455  11.656   9.781  0.0872 -0.1778  0.0995
  160loPI   C3A 2553  16.430  11.688   9.336  0.0421 -0.2260 -0.3244
  160loPI   C4A 2554  16.597  11.740   8.918  0.2663  0.0500 -0.1455
  160loPI   C5A 2555  16.778  11.642   8.516  0.1623  0.1474  0.1944
  160loPI   C6A 2556  17.087  11.394   8.215 -0.1453 -0.0661 -0.2207
  160loPI   C1B 2557  15.874  11.673  10.182 -0.1077 -0.1546  0.0084
  160loPI   C2B 2558  15.975  11.702   9.684  0.0498 -0.0395 -0.1566
  160loPI   C3B 2559  15.907  11.715   9.261  0.0920 -0.0997  0.3060
  160loPI   C4B 2560  16.069  11.745   8.831 -0.0234  0.0613 -0.0033
  161loPI    C1 2561  11.069   9.338  11.335  0.0672 -0.1922 -0.0681
  161loPI    C2 2562  11.030   8.940  11.345 -0.2167 -0.1658 -0.0258
  161loPI    C3 2563  10.819   9.168  11.597  0.0539  0.0063  0.0505
  161loPI   PO4 2564  10.984   9.463  10.955  0.1290  0.4632  0.0376
  161loPI   GL1 2565  10.669   9.529  10.606  0.2444 -0.1333 -0.0861
  161loPI   GL2 2566  10.868   9.303  10.425  0.0851 -0.1687  0.0423
  161loPI   C1A 2567  10.598   9.680  10.177 -0.0137 -0.0561 -0.1196
  161loPI   C2A 2568  10.601   9.784   9.690 -0.1350 -0.1810  0.1799
  161loPI   C3A 2569  10.582   9.800   9.215 -0.2301 -0.2622  0.1019
  161loPI   C4A 2570  10.673   9.684   8.772 -0.0737  0.2789 -0.0810
  161loPI   C5A 2571  11.095   9.730   8.517  0.0752 -0.1931  0.0456
  161loPI   C6A 2572  11.554   9.815   8.545  0.0006 -0.0296  0.2156
  161loPI   C1B 2573  10.949   9.377   9.984 -0.0794 -0.0319  0.1758
  161loPI   C2B 2574  10.956   9.256   9.496  0.0960  0.0971  0.1387
  161loPI   C3B 2575  10.814   9.347   9.148  0.0790 -0.4861  0.1671
  161loPI   C4B 2576  10.587   9.195   8.792  0.0977 -0.4705  0.0080
  162loPI    C1 2577  13.011  13.129  11.188  0.1746  0.1232 -0.0560
  162loPI    C2 2578  12.804  12.865  11.406  0.0268  0.0577 -0.2720
  162loPI    C3 2579  13.098  13.078  11.575  0.0054 -0.0899 -0.0443
  162loPI   PO4 2580  12.916  13.148  11.031 -0.0336  0.1971 -0.4676
  162loPI   GL1 2581  13.028  13.248  10.603  0.0987  0.0626  0.0650
  162loPI   GL2 2582  12.958  13.496  10.503  0.0300 -0.0667 -0.1194
  162loPI   C1A 2583  13.169  13.100  10.144  0.0361  0.0967  0.1081
  162loPI   C2A 2584  13.213  13.167   9.747 -0.0043 -0.6506 -0.2021
  162loPI   C3A 2585  13.164  13.239   9.306 -0.0108  0.2653 -0.2184
  162loPI   C4A 2586  13.289  13.247   8.931  0.1404  0.4251  0.2575
  162loPI   C5A 2587  13.357  13.173   8.465  0.3874 -0.0181  0.1992
  162loPI   C6A 2588  13.658  13.156   8.047  0.3207 -0.0232  0.4417
  162loPI   C1B 2589  13.030  13.617  10.110 -0.2867  0.1660 -0.0532
  162loPI   C2B 2590  13.033  13.647   9.600  0.1137 -0.3883 -0.0620
  162loPI   C3B 2591  13.015  13.728   9.161  0.2352 -0.0823 -0.2898
  162loPI   C4B 2592  13.121  13.727   8.772  0.2648  0.0995 -0.0787
  163loPI    C1 2593  13.096   2.369  11.225  0.1179 -0.1112 -0.0410
  163loPI    C2 2594  12.720   2.299  11.343  0.1350 -0.1237  0.0061
  163loPI    C3 2595  12.994   2.421  11.608  0.1778 -0.1687 -0.0172
  163loPI   PO4 2596  13.092   2.142  10.979 -0.2532  0.0183  0.0258
  163loPI   GL1 2597  13.055   2.089  10.545 -0.1845 -0.0765 -0.1053
  163loPI   GL2 2598  13.138   2.432  10.574  0.0783  0.0488  0.2470
  163loPI   C1A 2599  13.265   2.038  10.192  0.0406 -0.1344 -0.0638
  163loPI   C2A 2600  13.261   2.148   9.769 -0.0026  0.4846 -0.0087
  163loPI   C3A 2601  13.263   2.008   9.318 -0.1092  0.0212 -0.0117
  163loPI   C4A 2602  13.294   2.083   8.909 -0.0218 -0.1456  0.3654
  163loPI   C5A 2603  13.248   2.313   8.460 -0.0533  0.0638  0.3415
  163loPI   C6A 2604  13.369   2.485   7.959 -0.0036  0.1063 -0.1484
  163loPI   C1B 2605  13.007   2.583  10.139 -0.0078  0.2289  0.0164
  163loPI   C2B 2606  13.016   2.583   9.640 -0.0942 -0.1168  0.0818
  163loPI   C3B 2607  12.972   2.421   9.264 -0.3604 -0.1299 -0.1499
  163loPI   C4B 2608  12.972   2.529   8.816 -0.0660  0.1502  0.0280
  164loPI    C1 2609  11.656   9.917  10.904  0.0711  0.0377 -0.0523
  164loPI    C2 2610  11.451   9.641  11.108  0.2152  0.0315  0.0859
  164loPI    C3 2611  11.679   9.906  11.303  0.0414  0.2797 -0.0423
  164loPI   PO4 2612  11.751   9.852  10.705  0.1707 -0.1889 -0.1719
  164loPI   GL1 2613  11.831   9.941  10.259 -0.0211 -0.0283  0.2263
  164loPI   GL2 2614  12.065  10.133  10.028 -0.2726  0.2459 -0.1620
  164loPI   C1A 2615  11.674   9.878   9.816 -0.0888  0.1593 -0.1201
  164loPI   C2A 2616  11.777   9.843   9.379  0.0684 -0.1552  0.2092
  164loPI   C3A 2617  11.854   9.778   9.015  0.4138  0.3405 -0.0724
  164loPI   C4A 2618  11.992   9.624   8.650  0.0131 -0.0655  0.1090
  164loPI   C5A 2619  11.962   9.873   8.254 -0.0926 -0.1074  0.2040
  164loPI   C6A 2620  12.383  10.146   8.089 -0.0378  0.0825 -0.3732
  164loPI   C1B 2621  12.274   9.874   9.813 -0.0984  0.1498  0.1654
  164loPI   C2B 2622  12.316   9.815   9.361  0.1154 -0.4470  0.1735
  164loPI   C3B 2623  12.540   9.707   8.923  0.2414  0.2765  0.1257
  164loPI   C4B 2624  12.667   9.765   8.521  0.0723 -0.0040  0.1387
  165loPI    C1 2625   5.784   0.361  10.529 -0.0232  0.0044  0.1046
  165loPI    C2 2626   5.690   0.500  10.892  0.0411  0.2032  0.0467
  165loPI    C3 2627   6.016   0.273  10.843 -0.1074 -0.0377  0.1553
  165loPI   PO4 2628   5.815   0.514  10.378 -0.0324 -0.0256  0.1440
  165loPI   GL1 2629   5.994   0.426  10.056 -0.0062  0.0919  0.1054
  165loPI   GL2 2630   6.263   0.360   9.989  0.0958  0.4225  0.0674
  165loPI   C1A 2631   5.827   0.479   9.661 -0.0141 -0.1948 -0.2308
  165loPI   C2A 2632   5.853   0.402   9.232  0.2835 -0.0000 -0.0796
  165loPI   C3A 2633   5.760   0.351   8.804  0.2811  0.3912  0.2418
  165loPI   C4A 2634   5.685   0.437   8.369  0.0996 -0.1856  0.1518
  165loPI   C5A 2635   5.816   0.620   7.986  0.0712 -0.0325  0.4168
  165loPI   C6A 2636   5.774   1.112   8.097  0.1900  0.0734  0.3725
  165loPI   C1B 2637   6.331  -0.033   9.732  0.0416  0.0712  0.1945
  165loPI   C2B 2638   6.466  -0.103   9.339 -0.0518 -0.1887  0.1830
  165loPI   C3B 2639   6.347  -0.382   8.995  0.0486  0.4758 -0.1567
  165loPI   C4B 2640   6.210  -0.664   8.588  0.4336 -0.0147 -0.0572
  166loPI    C1 2641  10.095  11.513  11.220 -0.2182  0.1120 -0.2740
  166loPI    C2 2642   9.777  11.711  11.359 -0.3374 -0.2220 -0.0591
  166loPI    C3 2643   9.808  11.317  11.418  0.0397 -0.2199 -0.2200
  166loPI   PO4 2644  10.131  11.578  10.977  0.0579  0.0693  0.4404
  166loPI   GL1 2645  10.372  11.523  10.539  0.1119  0.1985  0.0229
  166loPI   GL2 2646  10.206  11.810  10.503 -0.0020  0.0378  0.0760
  166loPI   C1A 2647  10.271  11.450  10.121 -0.0370  0.0692 -0.1121
  166loPI   C2A 2648  10.195  11.478   9.750  0.3136  0.1645 -0.1387
  166loPI   C3A 2649  10.308  11.517   9.384 -0.0452 -0.1527 -0.1873
  166loPI   C4A 2650  10.378  11.598   8.897 -0.0053  0.0590  0.1448
  166loPI   C5A 2651  10.482  11.668   8.433 -0.0712  0.0708  0.2698
  166loPI   C6A 2652  10.581  11.538   8.062 -0.1204 -0.0298 -0.0213
  166loPI   C1B 2653   9.966  11.890  10.143 -0.0862  0.1872  0.2320
  166loPI   C2B 2654   9.965  11.993   9.825  0.1454  0.2156 -0.2103
  166loPI   C3B 2655   9.976  11.977   9.368  0.1609  0.3556  0.0500
  166loPI   C4B 2656   9.980  12.038   8.902 -0.1672  0.0273 -0.0229
  167loPI    C1 2657   7.487   9.939  11.108 -0.0038 -0.1393 -0.0084
  167loPI    C2 2658   7.244  10.256  11.093  0.1341 -0.0338 -0.0252
  167loPI    C3 2659   7.348  10.101  11.447  0.3232  0.1398 -0.0027
  167loPI   PO4 2660   7.340   9.803  10.841  0.0071 -0.2795  0.2202
  167loPI   GL1 2661   7.383   9.913  10.512 -0.1967  0.0429  0.1921
  167loPI   GL2 2662   7.613   9.686  10.461 -0.1785  0.3387  0.0841
  167loPI   C1A 2663   7.360  10.079  10.131 -0.0803 -0.0265 -0.2525
  167loPI   C2A 2664   7.433  10.192   9.696  0.2846  0.3150 -0.2412
  167loPI   C3A 2665   7.288  10.171   9.286 -0.1281  0.2247  0.2006
  167loPI   C4A 2666   7.429  10.084   8.888  0.1747 -0.1906  0.0682
  167loPI   C5A 2667   7.494  10.245   8.476  0.0485 -0.3528  0.0326
  167loPI   C6A 2668   7.306  10.639   8.304 -0.1136  0.1090  0.0686
  167loPI   C1B 2669   7.631   9.682   9.966  0.0972  0.0897 -0.0111
  167loPI   C2B 2670   7.570   9.757   9.486 -0.2652 -0.0167  0.0061
  167loPI   C3B 2671   7.696   9.764   9.064 -0.3856 -0.1743  0.2827
  167loPI   C4B 2672   7.808   9.742   8.671  0.0988  0.1160 -0.0080
  168loPI    C1 2673  13.548   1.095  11.300 -0.1121  0.0051  0.0830
  168loPI    C2 2674  13.938   1.013  11.336 -0.0241  0.2040 -0.3573
  168loPI    C3 2675  13.761   1.260  11.596  0.0978 -0.0302 -0.0463
  168loPI   PO4 2676  13.485   1.172  11.107  0.1373  0.1177 -0.0949
  168loPI   GL1 2677  13.458   1.273  10.719  0.0702  0.1780  0.5371
  168loPI   GL2 2678  13.295   1.091  10.692 -0.0570  0.2967  0.1487
  168loPI   C1A 2679  13.781   1.179  10.434 -0.2735 -0.0013  0.1203
  168loPI   C2A 2680  13.727   1.188  10.014  0.0150 -0.1949  0.0679
  168loPI   C3A 2681  13.823   1.192   9.557 -0.0616 -0.0594 -0.0554
  168loPI   C4A 2682  13.783   1.164   9.186  0.1354  0.1110 -0.0658
  168loPI   C5A 2683  13.915   1.193   8.683 -0.2623 -0.0379  0.2106
  168loPI   C6A 2684  13.813   1.449   8.382 -0.1123  0.0797  0.0491
  168loPI   C1B 2685  13.282   1.195  10.232  0.0451 -0.4499 -0.1521
  168loPI   C2B 2686  13.243   1.146   9.835 -0.0518  0.0481  0.1274
  168loPI   C3B 2687  13.272   1.221   9.408  0.3852 -0.0663 -0.1330
  168loPI   C4B 2688  13.315   1.204   9.038 -0.2080 -0.1674 -0.2232
  169loPI    C1 2689   3.086   9.504  11.454 -0.0066 -0.0180  0.0329
  169loPI    C2 2690   3.178   9.452  11.839  0.0149  0.0380  0.0354
  169loPI    C3 2691   3.266   9.797  11.658 -0.1463  0.0739  0.0249
  169loPI   PO4 2692   3.185   9.399  11.349 -0.0135 -0.1010  0.4983
  169loPI   GL1 2693   3.250   9.399  10.887 -0.0712 -0.0965  0.0854
  169loPI   GL2 2694   3.610   9.475  10.828  0.1872 -0.1235  0.2639
  169loPI   C1A 2695   3.279   9.683  10.507  0.0312  0.3099  0.0122
  169loPI   C2A 2696   3.278   9.620  10.040 -0.0821 -0.1227 -0.0708
  169loPI   C3A 2697   3.332   9.542   9.681  0.0983 -0.2128 -0.0964
  169loPI   C4A 2698   3.402   9.598   9.222 -0.0607  0.1677  0.2778
  169loPI   C5A 2699   3.289   9.599   8.850  0.0076 -0.0025  0.0795
  169loPI   C6A 2700   3.119   9.805   8.535  0.0474  0.1314 -0.0533
  169loPI   C1B 2701   3.548   9.234  10.428 -0.1629  0.0086  0.1884
  169loPI   C2B 2702   3.588   9.242  10.008 -0.2508 -0.1435 -0.0930
  169loPI   C3B 2703   3.630   9.046   9.671  0.0685 -0.0649  0.0209
  169loPI   C4B 2704   3.649   9.026   9.254  0.1237 -0.1890 -0.1868
  170loPI    C1 2705   9.992  11.083  11.013 -0.0928  0.2893  0.0023
  170loPI    C2 2706   9.852  10.716  10.935  0.4305  0.0972 -0.0750
  170loPI    C3 2707   9.909  10.832  11.314 -0.0174  0.2147 -0.0384
  170loPI   PO4 2708  10.181  11.044  10.756  0.3053  0.1156 -0.0531
  170loPI   GL1 2709  10.113  10.880  10.426  0.0019 -0.0340 -0.1179
  170loPI   GL2 2710  10.008  10.578  10.473  0.2276 -0.0323 -0.1500
  170loPI   C1A 2711  10.061  11.034  10.055 -0.1536  0.3072  0.0364
  170loPI   C2A 2712  10.078  11.049   9.655  0.4576 -0.0009  0.1976
  170loPI   C3A 2713  10.078  11.012   9.248  0.0945 -0.1215  0.3552
  170loPI   C4A 2714  10.139  11.222   8.747 -0.2437 -0.2197 -0.0678
  170loPI   C5A 2715   9.948  11.530   8.466  0.0268 -0.1869  0.0827
  170loPI   C6A 2716   9.979  11.778   8.048  0.0712 -0.1062  0.0230
  170loPI   C1B 2717   9.944  10.496  10.064  0.0161  0.2667 -0.1618
  170loPI   C2B 2718   9.822  10.560   9.772  0.4425 -0.0017  0.2485
  170loPI   C3B 2719   9.887  10.552   9.281 -0.2516 -0.3393  0.2043
  170loPI   C4B 2720   9.910  10.545   8.784  0.0962  0.0551 -0.0238
  171loPI    C1 2721   2.724   5.657  11.285  0.0374  0.1740 -0.0387
  171loPI    C2 2722   2.967   5.417  11.492  0.0510  0.0619 -0.1826
  171loPI    C3 2723   2.645   5.575  11.668  0.0330 -0.0749 -0.0911
  171loPI   PO4 2724   2.676   5.508  11.040  0.0194 -0.0462 -0.0102
  171loPI   GL1 2725   2.679   5.623  10.635  0.0189 -0.0049 -0.1738
  171loPI   GL2 2726   2.323   5.656  10.508 -0.0105 -0.2154 -0.0631
  171loPI   C1A 2727   3.036   5.500  10.283 -0.0303  0.1996  0.1166
  171loPI   C2A 2728   3.062   5.330   9.929 -0.1373 -0.4330 -0.1247
  171loPI   C3A 2729   3.152   5.316   9.478  0.1325  0.1249 -0.1423
  171loPI   C4A 2730   3.253   5.167   9.118 -0.1744 -0.0144  0.1473
  171loPI   C5A 2731   3.007   5.101   8.740  0.0483  0.3002 -0.0242
  171loPI   C6A 2732   2.745   5.254   8.451 -0.1974 -0.0318  0.1715
  171loPI   C1B 2733   2.585   5.699  10.144 -0.1365 -0.2656  0.0510
  171loPI   C2B 2734   2.694   5.815   9.753 -0.2516  0.0249 -0.0418
  171loPI   C3B 2735   2.818   5.721   9.391  0.0103 -0.0102 -0.2023
  171loPI   C4B 2736   2.967   5.549   8.965 -0.3780 -0.1868 -0.1579
  172loPI    C1 2737  15.268   6.632  11.248  0.1280  0.0547 -0.0952
  172loPI    C2 2738  15.530   6.892  11.402  0.1467 -0.0317  0.0200
  172loPI    C3 2739  15.224   6.762  11.623  0.1806 -0.1662 -0.0110
  172loPI   PO4 2740  15.139   6.711  11.008  0.2204  0.0947  0.0403
  172loPI   GL1 2741  15.123   6.648  10.527 -0.2169 -0.3766 -0.1625
  172loPI   GL2 2742  14.804   6.546  10.522  0.1159  0.0526  0.1775
  172loPI   C1A 2743  15.091   6.426  10.129 -0.0224 -0.2283  0.0128
  172loPI   C2A 2744  15.066   6.366   9.704 -0.1997  0.0604 -0.2259
  172loPI   C3A 2745  15.054   6.358   9.293 -0.0946  0.0247 -0.3602
  172loPI   C4A 2746  15.160   6.314   8.810  0.2418  0.0379 -0.0296
  172loPI   C5A 2747  15.469   6.130   8.552  0.3001 -0.2350 -0.5492
  172loPI   C6A 2748  15.917   5.982   8.449  0.0543  0.1278 -0.0142
  172loPI   C1B 2749  14.511   6.505  10.116  0.0175  0.0210 -0.3200
  172loPI   C2B 2750  14.566   6.491   9.730  0.2070 -0.4569  0.0977
  172loPI   C3B 2751  14.499   6.393   9.355  0.2921 -0.1245 -0.2478
  172loPI   C4B 2752  14.684   6.363   8.984 -0.2431 -0.0057 -0.0886
  173loPI    C1 2753  10.364   1.229  11.140  0.3622  0.0842 -0.0424
  173loPI    C2 2754  10.198   1.346  11.485 -0.0173 -0.0207 -0.1838
  173loPI    C3 2755  10.509   1.547  11.334 -0.1309  0.2966 -0.0048
  173loPI   PO4 2756  10.413   1.020  11.108 -0.3118 -0.2336 -0.1305
  173loPI   GL1 2757  10.633   0.889  10.781  0.0571  0.0036 -0.0372
  173loPI   GL2 2758  10.975   0.888  10.605 -0.3852  0.1201  0.3856
  173loPI   C1A 2759  10.524   0.804  10.329 -0.1016  0.1077  0.1362
  173loPI   C2A 2760  10.471   0.760   9.863  0.0825 -0.2871  0.4714
  173loPI   C3A 2761  10.500   0.868   9.451  0.1641 -0.1732  0.1000
  173loPI   C4A 2762  10.498   0.856   9.054  0.2804 -0.0833 -0.1005
  173loPI   C5A 2763  10.473   0.779   8.561  0.0989  0.0105  0.0785
  173loPI   C6A 2764  10.502   0.555   8.207  0.0566 -0.0043  0.0621
  173loPI   C1B 2765  11.004   0.924  10.250  0.1769  0.2676  0.2164
  173loPI   C2B 2766  10.976   0.841   9.790 -0.1659  0.0012  0.0623
  173loPI   C3B 2767  10.981   0.812   9.328 -0.1131 -0.2642  0.0589
  173loPI   C4B 2768  10.991   0.892   8.827  0.2216  0.0724  0.2098
  174loPI    C1 2769  17.428   0.702  11.095 -0.2322  0.0079  0.0163
  174loPI    C2 2770  17.409   0.925  11.426 -0.0486  0.0955 -0.0309
  174loPI    C3 2771  17.106   0.681  11.331 -0.1482  0.1488  0.1448
  174loPI   PO4 2772  17.515   0.846  10.873 -0.0574  0.1214 -0.0229
  174loPI   GL1 2773  17.683   1.026  10.596  0.2108 -0.1594  0.1078
  174loPI   GL2 2774  17.606   1.313  10.571 -0.1753 -0.2230  0.1311
  174loPI   C1A 2775  17.501   0.930  10.157  0.0746  0.4175  0.0354
  174loPI   C2A 2776  17.540   0.959   9.780  0.0338 -0.3268  0.2170
  174loPI   C3A 2777  17.465   0.920   9.450 -0.1754 -0.1343 -0.1654
  174loPI   C4A 2778  17.516   0.731   9.052  0.0397 -0.3104  0.0344
  174loPI   C5A 2779  17.395   0.859   8.639  0.1288 -0.1514  0.2742
  174loPI   C6A 2780  17.323   1.122   8.288 -0.0584 -0.1546  0.1930
  174loPI   C1B 2781  17.674   1.450  10.160 -0.0310 -0.1912  0.0355
  174loPI   C2B 2782  17.755   1.373   9.677 -0.0047 -0.0653  0.3807
  174loPI   C3B 2783  17.684   1.336   9.249  0.0245  0.2977  0.0826
  174loPI   C4B 2784  17.666   1.237   8.896 -0.1199 -0.0011  0.3852
  175loPI    C1 2785   6.581   3.169  10.673  0.1846 -0.1093 -0.1096
  175loPI    C2 2786   6.602   3.297  11.051  0.1407 -0.0502 -0.1270
  175loPI    C3 2787   6.821   2.983  10.934  0.1636 -0.0612 -0.0558
  175loPI   PO4 2788   6.407   3.219  10.511  0.1285  0.2028 -0.0077
  175loPI   GL1 2789   6.242   3.058  10.160 -0.0160 -0.0270  0.3707
  175loPI   GL2 2790   5.879   3.158  10.083 -0.1014  0.0690  0.0298
  175loPI   C1A 2791   6.521   3.257   9.842  0.0415 -0.0336 -0.0231
  175loPI   C2A 2792   6.530   3.152   9.474 -0.0486  0.1711  0.1619
  175loPI   C3A 2793   6.672   3.147   9.079  0.2360 -0.1162 -0.1103
  175loPI   C4A 2794   6.625   3.074   8.645  0.1398  0.0273 -0.4475
  175loPI   C5A 2795   6.645   3.152   8.246  0.1032  0.1055 -0.0110
  175loPI   C6A 2796   6.496   3.263   7.816  0.0089  0.0109  0.1542
  175loPI   C1B 2797   6.085   3.122   9.720  0.2631 -0.0836 -0.1049
  175loPI   C2B 2798   6.056   3.123   9.229  0.0265  0.0519 -0.0433
  175loPI   C3B 2799   6.107   3.016   8.823  0.0200 -0.0860 -0.0139
  175loPI   C4B 2800   6.134   3.117   8.423 -0.0641  0.1179  0.0548
  176loPI    C1 2801  15.670   4.665  11.096  0.0492 -0.1368 -0.2195
  176loPI    C2 2802  15.802   4.991  10.906  0.3010  0.0599  0.2753
  176loPI    C3 2803  15.628   5.025  11.265 -0.3161 -0.2879  0.0252
  176loPI   PO4 2804  15.432   4.534  10.990  0.0749  0.0230  0.2163
  176loPI   GL1 2805  15.374   4.450  10.586  0.1889 -0.3979 -0.2122
  176loPI   GL2 2806  15.239   4.099  10.622  0.1317 -0.2407  0.1044
  176loPI   C1A 2807  15.573   4.563  10.276  0.0153 -0.1550  0.0855
  176loPI   C2A 2808  15.654   4.625   9.782  0.0652 -0.0739 -0.3129
  176loPI   C3A 2809  15.637   4.680   9.348  0.0838  0.4657 -0.0378
  176loPI   C4A 2810  15.584   4.659   8.954  0.0206  0.2624  0.2312
  176loPI   C5A 2811  15.374   4.650   8.549 -0.0753 -0.0164 -0.3066
  176loPI   C6A 2812  15.347   4.396   8.315  0.1860  0.0096 -0.0946
  176loPI   C1B 2813  15.208   4.161  10.114 -0.2002  0.1983 -0.0226
  176loPI   C2B 2814  15.300   4.132   9.698  0.0204  0.5445  0.1076
  176loPI   C3B 2815  15.324   4.261   9.277  0.1585 -0.2122  0.2514
  176loPI   C4B 2816  15.298   4.254   8.798 -0.0996 -0.0848  0.0622
  177loPI    C1 2817   7.112   7.027  11.013  0.0767 -0.1497 -0.1091
  177loPI    C2 2818   7.206   6.708  11.236  0.0523 -0.1134 -0.0465
  177loPI    C3 2819   6.907   6.950  11.347  0.1136 -0.0313 -0.0585
  177loPI   PO4 2820   7.120   6.934  10.768 -0.1599 -0.0036 -0.1084
  177loPI   GL1 2821   7.059   6.858  10.294  0.2691 -0.4053  0.1163
  177loPI   GL2 2822   6.744   6.908  10.461  0.3579 -0.0291  0.4397
  177loPI   C1A 2823   7.082   6.981   9.893  0.0130 -0.2490 -0.1144
  177loPI   C2A 2824   7.031   6.975   9.456  0.0078  0.1273  0.0250
  177loPI   C3A 2825   7.123   6.887   9.063 -0.3248  0.2042 -0.1326
  177loPI   C4A 2826   7.061   6.937   8.622  0.0100  0.0124 -0.2716
  177loPI   C5A 2827   6.798   6.923   8.210 -0.1829  0.3463 -0.3947
  177loPI   C6A 2828   6.348   7.048   8.319 -0.0119 -0.0078  0.1480
  177loPI   C1B 2829   6.559   6.895  10.052  0.0436 -0.1229  0.1290
  177loPI   C2B 2830   6.571   6.819   9.653  0.2799  0.0170  0.1985
  177loPI   C3B 2831   6.618   6.833   9.182 -0.2357 -0.1179  0.1482
  177loPI   C4B 2832   6.584   6.807   8.742 -0.1973 -0.1231  0.0212
  178loPI    C1 2833   8.276   4.567  10.960  0.0362 -0.1395 -0.0126
  178loPI    C2 2834   8.530   4.319  10.776 -0.1395 -0.3024 -0.0387
  178loPI    C3 2835   8.649   4.523  11.099  0.1408 -0.0884 -0.2715
  178loPI   PO4 2836   8.175   4.724  10.812  0.1644 -0.1007  0.0165
  178loPI   GL1 2837   8.252   4.814  10.514 -0.1654 -0.0403  0.0237
  178loPI   GL2 2838   8.482   4.503  10.324  0.1780 -0.1995  0.0254
  178loPI   C1A 2839   8.216   4.857  10.109  0.1252 -0.2636 -0.0045
  178loPI   C2A 2840   8.200   4.871   9.655  0.0709 -0.2078  0.2665
  178loPI   C3A 2841   8.255   4.743   9.302  0.0919  0.3047 -0.1136
  178loPI   C4A 2842   8.169   4.783   8.839  0.1794 -0.1781  0.0034
  178loPI   C5A 2843   8.302   4.748   8.408  0.2210 -0.3100  0.0156
  178loPI   C6A 2844   8.556   4.688   8.112 -0.1472 -0.0529  0.3162
  178loPI   C1B 2845   8.491   4.474   9.806 -0.1852  0.4103 -0.1030
  178loPI   C2B 2846   8.521   4.347   9.432 -0.0152 -0.0355  0.1344
  178loPI   C3B 2847   8.469   4.417   9.002  0.0982  0.0034  0.0930
  178loPI   C4B 2848   8.426   4.129   8.707  0.2519  0.2048  0.1571
  179loPI    C1 2849  12.273   1.749  11.002 -0.0105 -0.0062  0.2106
  179loPI    C2 2850  12.370   1.862  11.373 -0.2977  0.0164  0.2812
  179loPI    C3 2851  12.285   1.479  11.296  0.3476 -0.1042  0.1108
  179loPI   PO4 2852  12.066   1.850  10.914  0.1191 -0.0984 -0.1571
  179loPI   GL1 2853  12.004   1.701  10.487  0.0324  0.1031 -0.2412
  179loPI   GL2 2854  12.375   1.554  10.517  0.0791 -0.1184 -0.3288
  179loPI   C1A 2855  11.968   1.726  10.040 -0.1829  0.1318 -0.0204
  179loPI   C2A 2856  11.995   1.703   9.537  0.2413  0.2408 -0.0517
  179loPI   C3A 2857  12.012   1.792   9.070  0.1864 -0.1579  0.1582
  179loPI   C4A 2858  11.923   1.709   8.663  0.1189 -0.0338  0.0513
  179loPI   C5A 2859  12.023   1.540   8.264 -0.2796  0.0360  0.0383
  179loPI   C6A 2860  12.053   1.133   8.111  0.2479  0.0104 -0.0484
  179loPI   C1B 2861  12.443   1.717  10.077  0.0324 -0.0201 -0.1611
  179loPI   C2B 2862  12.497   1.718   9.665  0.3075  0.1012  0.0294
  179loPI   C3B 2863  12.487   1.582   9.222  0.0645 -0.3018  0.1184
  179loPI   C4B 2864  12.397   1.691   8.765  0.0738  0.1119 -0.0798
  180loPI    C1 2865   4.989   0.408  10.791 -0.2362  0.1298  0.2833
  180loPI    C2 2866   5.240   0.231  11.048 -0.1674 -0.1554  0.0272
  180loPI    C3 2867   4.880   0.072  10.978 -0.0662 -0.2553 -0.2809
  180loPI   PO4 2868   5.221   0.548  10.658 -0.0601 -0.0891 -0.0234
  180loPI   GL1 2869   5.346   0.558  10.262  0.2019 -0.1365 -0.2070
  180loPI   GL2 2870   5.284   0.336  10.120 -0.3735  0.1845 -0.0166
  180loPI   C1A 2871   5.473   0.789   9.818 -0.1185 -0.0446  0.1839
  180loPI   C2A 2872   5.468   0.750   9.465 -0.0903  0.2391 -0.1072
  180loPI   C3A 2873   5.524   0.765   9.058  0.2455  0.0438 -0.1142
  180loPI   C4A 2874   5.448   0.870   8.599 -0.0338  0.1345  0.0860
  180loPI   C5A 2875   5.352   0.804   8.169  0.0198 -0.1517 -0.0457
  180loPI   C6A 2876   5.379   0.475   7.814 -0.0341 -0.1863  0.0880
  180loPI   C1B 2877   5.320   0.273   9.725  0.1688  0.0799  0.1155
  180loPI   C2B 2878   5.341   0.283   9.347 -0.0004  0.2904  0.0375
  180loPI   C3B 2879   5.263   0.240   8.929  0.3839 -0.2082 -0.2437
  180loPI   C4B 2880   5.266   0.297   8.474 -0.0092  0.1509 -0.1442
  181loPI    C1 2881  14.346   8.332  11.166  0.0544 -0.1062  0.0288
  181loPI    C2 2882  14.685   8.535  11.223  0.0811 -0.1492  0.0240
  181loPI    C3 2883  14.597   8.223  11.458 -0.0161 -0.0599  0.1075
  181loPI   PO4 2884  14.365   8.259  10.934 -0.0901  0.0700 -0.0822
  181loPI   GL1 2885  14.534   8.543  10.628 -0.1778  0.2116  0.0327
  181loPI   GL2 2886  14.786   8.214  10.654 -0.0135 -0.2838 -0.1894
  181loPI   C1A 2887  14.851   8.686  10.423 -0.1402  0.3002  0.0493
  181loPI   C2A 2888  14.988   8.515   9.983  0.0273  0.1462 -0.0932
  181loPI   C3A 2889  14.971   8.591   9.556 -0.0361 -0.2154 -0.0411
  181loPI   C4A 2890  15.008   8.565   9.097  0.0386 -0.4011 -0.0571
  181loPI   C5A 2891  15.100   8.628   8.777 -0.1256 -0.1848 -0.1169
  181loPI   C6A 2892  15.445   8.603   8.437 -0.2309 -0.1911 -0.0204
  181loPI   C1B 2893  14.655   8.208  10.241 -0.0467 -0.3018  0.2082
  181loPI   C2B 2894  14.701   8.051   9.892 -0.1430 -0.1201 -0.1072
  181loPI   C3B 2895  14.713   8.064   9.491  0.1964 -0.1450 -0.0797
  181loPI   C4B 2896  14.732   8.082   9.044 -0.1206  0.1155  0.0207
  182loPI    C1 2897  11.629   1.141  11.037 -0.3188 -0.1427  0.1554
  182loPI    C2 2898  11.511   1.087  11.415 -0.1121 -0.4067  0.1856
  182loPI    C3 2899  11.810   1.339  11.333 -0.5533  0.1187  0.1283
  182loPI   PO4 2900  11.711   0.998  10.916  0.0731 -0.0752 -0.2723
  182loPI   GL1 2901  11.911   0.925  10.602  0.2782  0.0744  0.2628
  182loPI   GL2 2902  12.208   1.079  10.416  0.3053  0.1194 -0.0865
  182loPI   C1A 2903  11.977   0.675  10.185 -0.1825 -0.1524  0.3433
  182loPI   C2A 2904  11.950   0.749   9.667 -0.3916  0.1834 -0.2250
  182loPI   C3A 2905  12.043   0.790   9.255 -0.0630 -0.0520  0.3717
  182loPI   C4A 2906  11.952   0.796   8.826  0.1268 -0.2536  0.1783
  182loPI   C5A 2907  12.257   0.689   8.433 -0.1265 -0.3772 -0.0216
  182loPI   C6A 2908  12.635   0.843   8.365  0.1734  0.1091 -0.3977
  182loPI   C1B 2909  12.232   1.287   9.955  0.1687  0.2692  0.1537
  182loPI   C2B 2910  12.176   1.287   9.515 -0.0922  0.0178 -0.0806
  182loPI   C3B 2911  12.173   1.257   9.038 -0.2379 -0.2300  0.0401
  182loPI   C4B 2912  12.153   1.267   8.658 -0.0102  0.1735  0.0710
  183loPI    C1 2913   5.565  12.131  11.061  0.1942 -0.0966  0.0661
  183loPI    C2 2914   5.598  12.525  11.001 -0.0906 -0.0757  0.0345
  183loPI    C3 2915   5.839  12.342  11.261 -0.0393  0.1411  0.1413
  183loPI   PO4 2916   5.548  12.011  10.829 -0.1003 -0.0569 -0.1221
  183loPI   GL1 2917   5.362  11.885  10.461 -0.0443 -0.1294  0.2284
  183loPI   GL2 2918   5.129  11.673  10.385 -0.3544 -0.0519 -0.0071
  183loPI   C1A 2919   5.493  11.746  10.075 -0.3509 -0.1655 -0.1385
  183loPI   C2A 2920   5.506  11.637   9.677  0.0638 -0.1370 -0.0983
  183loPI   C3A 2921   5.685  11.657   9.221  0.0369 -0.2173 -0.1926
  183loPI   C4A 2922   5.729  11.738   8.731 -0.1021 -0.0540  0.1084
  183loPI   C5A 2923   5.831  11.838   8.307  0.1881 -0.4814  0.0405
  183loPI   C6A 2924   5.884  12.216   8.068  0.2785 -0.1167  0.1258
  183loPI   C1B 2925   5.053  11.567   9.976  0.1465 -0.1922 -0.2845
  183loPI   C2B 2926   5.008  11.575   9.506 -0.1565  0.1117  0.3024
  183loPI   C3B 2927   5.102  11.580   9.101 -0.0654  0.2047 -0.0127
  183loPI   C4B 2928   5.243  11.742   8.777 -0.4277 -0.0009  0.0178
  184loPI    C1 2929   3.371  17.080  11.084  0.1494  0.0176  0.2388
  184loPI    C2 2930   3.640  17.300  11.282  0.0781  0.1147  0.2290
  184loPI    C3 2931   3.314  17.166  11.471 -0.0143  0.2485  0.1659
  184loPI   PO4 2932   3.270  17.273  10.827 -0.1058  0.0176  0.0310
  184loPI   GL1 2933   3.408  17.482  10.441 -0.2406  0.0169 -0.2036
  184loPI   GL2 2934   3.114  17.439  10.391 -0.0468 -0.0075  0.1455
  184loPI   C1A 2935   3.628  17.512   9.997  0.1268 -0.1178 -0.3087
  184loPI   C2A 2936   3.701  17.646   9.616 -0.1936 -0.2768  0.0183
  184loPI   C3A 2937   3.728  17.690   9.153 -0.0741 -0.1063 -0.0502
  184loPI   C4A 2938   3.693  17.767   8.687  0.0126 -0.0843 -0.3058
  184loPI   C5A 2939   3.818  18.060   8.376  0.0273 -0.0456 -0.5775
  184loPI   C6A 2940   3.751  18.221   7.979  0.0429 -0.2843  0.1243
  184loPI   C1B 2941   3.075  17.536  10.030  0.2393  0.2168  0.2172
  184loPI   C2B 2942   3.231  17.581   9.655  0.2657  0.1019  0.2826
  184loPI   C3B 2943   3.237  17.597   9.220 -0.2166 -0.1103 -0.1163
  184loPI   C4B 2944   3.136  17.750   8.803  0.1931 -0.3547 -0.0542
  185loPI    C1 2945  15.571   3.568  11.328 -0.4892  0.0310  0.0667
  185loPI    C2 2946  15.490   3.430  11.694  0.1538  0.1055  0.2487
  185loPI    C3 2947  15.501   3.824  11.627  0.2058  0.0945  0.1920
  185loPI   PO4 2948  15.378   3.494  11.112 -0.0330  0.3662 -0.0026
  185loPI   GL1 2949  15.370   3.581  10.661 -0.4058  0.0552  0.0779
  185loPI   GL2 2950  15.221   3.344  10.552 -0.3076 -0.0387  0.0769
  185loPI   C1A 2951  15.513   3.793  10.356  0.1490  0.1598 -0.1394
  185loPI   C2A 2952  15.444   3.669   9.896  0.2157 -0.3455 -0.1137
  185loPI   C3A 2953  15.606   3.783   9.545  0.1809 -0.0447 -0.0581
  185loPI   C4A 2954  15.536   3.639   9.142  0.1738  0.3311  0.2448
  185loPI   C5A 2955  15.602   3.644   8.713  0.0133  0.0130  0.1127
  185loPI   C6A 2956  15.423   3.913   8.408  0.0068  0.0998  0.1428
  185loPI   C1B 2957  15.144   3.274  10.122  0.0621 -0.0823  0.1013
  185loPI   C2B 2958  15.168   3.308   9.728  0.1872  0.3610  0.1170
  185loPI   C3B 2959  15.215   3.305   9.350 -0.0021 -0.1756 -0.2806
  185loPI   C4B 2960  15.316   3.243   8.896  0.1252 -0.2496 -0.1636
  186loPI    C1 2961   1.474   5.758  11.389 -0.1087  0.0227 -0.1471
  186loPI    C2 2962   1.831   5.816  11.218 -0.1028 -0.0278 -0.1520
  186loPI    C3 2963   1.807   5.633  11.573 -0.1349 -0.1557 -0.2195
  186loPI   PO4 2964   1.347   5.696  11.107  0.2225 -0.1245 -0.0377
  186loPI   GL1 2965   1.313   5.764  10.719  0.4502  0.1535  0.1482
  186loPI   GL2 2966   1.022   5.847  10.621 -0.0463  0.1207  0.1566
  186loPI   C1A 2967   1.538   5.765  10.351 -0.0170  0.0166  0.1642
  186loPI   C2A 2968   1.998   5.876  10.182  0.2694 -0.0499 -0.0748
  186loPI   C3A 2969   2.227   5.971   9.844 -0.1366  0.0075  0.1061
  186loPI   C4A 2970   2.391   6.102   9.448 -0.1611 -0.0907  0.0394
  186loPI   C5A 2971   2.265   6.244   9.131 -0.0183 -0.0755 -0.0917
  186loPI   C6A 2972   2.059   6.369   8.767  0.1459  0.1834  0.2166
  186loPI   C1B 2973   0.769   5.893  10.254  0.2899  0.0487 -0.4270
  186loPI   C2B 2974   0.769   5.824   9.857  0.0147  0.0138 -0.0118
  186loPI   C3B 2975   0.689   5.775   9.408 -0.0990 -0.0951  0.1515
  186loPI   C4B 2976   0.503   5.710   8.958  0.0295  0.2394 -0.1725
  187loPI    C1 2977   9.375  15.880  10.628 -0.2117  0.0621  0.0319
  187loPI    C2 2978   9.289  15.651  10.943 -0.3580 -0.1507 -0.1598
  187loPI    C3 2979   9.404  16.030  10.998  0.0754 -0.3216  0.1704
  187loPI   PO4 2980   9.320  15.680  10.431 -0.0233  0.0553  0.0742
  187loPI   GL1 2981   9.464  15.424  10.203 -0.2198 -0.2034  0.2052
  187loPI   GL2 2982   9.536  14.947  10.239  0.0860 -0.0605  0.0703
  187loPI   C1A 2983   9.350  15.527   9.798 -0.0523  0.2673 -0.0034
  187loPI   C2A 2984   9.383  15.518   9.410 -0.1363  0.0377  0.4209
  187loPI   C3A 2985   9.411  15.489   8.938  0.0173  0.0732 -0.0765
  187loPI   C4A 2986   9.438  15.473   8.497  0.0483  0.1473 -0.1000
  187loPI   C5A 2987   9.490  15.139   8.176 -0.0265  0.1285  0.2165
  187loPI   C6A 2988   9.486  14.602   8.270  0.2637 -0.0665  0.2894
  187loPI   C1B 2989   9.478  14.651   9.802  0.0026  0.2603  0.0424
  187loPI   C2B 2990   9.527  14.638   9.414 -0.0964  0.0372  0.1411
  187loPI   C3B 2991   9.715  14.611   9.059 -0.0262 -0.0172 -0.2795
  187loPI   C4B 2992   9.661  14.588   8.693 -0.1911  0.3098  0.0760
  188loPI    C1 2993  10.812   1.804  11.017  0.0618 -0.1596  0.2213
  188loPI    C2 2994  10.740   2.062  11.314 -0.1016  0.0836 -0.0244
  188loPI    C3 2995  11.086   1.862  11.302 -0.0001  0.2415  0.2059
  188loPI   PO4 2996  10.704   1.905  10.808  0.1796  0.1186  0.2935
  188loPI   GL1 2997  10.781   2.011  10.482 -0.3311 -0.3297 -0.2061
  188loPI   GL2 2998  10.691   2.158  10.364 -0.1379 -0.1344 -0.1373
  188loPI   C1A 2999  11.044   1.785  10.114 -0.2368  0.0547 -0.0451
  188loPI   C2A 3000  10.942   1.674   9.748  0.2760  0.1408  0.2207
  188loPI   C3A 3001  10.973   1.689   9.280  0.2776 -0.1372  0.1981
  188loPI   C4A 3002  10.858   1.765   8.871 -0.1955  0.0831  0.0302
  188loPI   C5A 3003  10.885   1.745   8.472 -0.1399 -0.1054 -0.0850
  188loPI   C6A 3004  10.649   2.049   8.336 -0.0546 -0.1806  0.1747
  188loPI   C1B 3005  10.684   2.242   9.959 -0.1794 -0.0891 -0.2199
  188loPI   C2B 3006  10.773   2.189   9.546  0.0007  0.0364 -0.2027
  188loPI   C3B 3007  10.678   2.097   9.191 -0.1418  0.1698 -0.0038
  188loPI   C4B 3008  10.611   2.188   8.800 -0.0298 -0.3151 -0.0442
  189loPI    C1 3009   4.296   5.691  10.978 -0.0181 -0.0443  0.1094
  189loPI    C2 3010   4.020   5.412  11.055  0.0108 -0.0666  0.1325
  189loPI    C3 3011   4.049   5.735  11.290 -0.1126  0.0232  0.0261
  189loPI   PO4 3012   4.216   5.725  10.709 -0.1106 -0.1922 -0.2721
  189loPI   GL1 3013   4.395   5.744  10.294 -0.0068 -0.0725 -0.3752
  189loPI   GL2 3014   4.430   6.041  10.426 -0.0376 -0.1540  0.0484
  189loPI   C1A 3015   4.528   5.675   9.838  0.0444  0.0319 -0.0160
  189loPI   C2A 3016   4.662   5.589   9.430  0.1482 -0.0134  0.0236
  189loPI   C3A 3017   4.675   5.548   9.004 -0.2508 -0.3417  0.2213
  189loPI   C4A 3018   4.532   5.376   8.545  0.4212 -0.0992 -0.0905
  189loPI   C5A 3019   4.325   5.206   8.246 -0.0232  0.1661  0.0241
  189loPI   C6A 3020   4.022   4.982   8.279  0.0783  0.0833  0.0207
  189loPI   C1B 3021   4.712   6.134  10.017 -0.0452  0.1070  0.1287
  189loPI   C2B 3022   4.766   6.078   9.619 -0.1025  0.0416 -0.1451
  189loPI   C3B 3023   4.807   6.009   9.178  0.2532  0.1565  0.1559
  189loPI   C4B 3024   4.880   6.068   8.809 -0.2457 -0.0406  0.2071
  190loPI    C1 3025  10.754   0.372  11.015  0.0675  0.1181  0.1981
  190loPI    C2 3026  10.907   0.360  11.384 -0.0172 -0.1136  0.2273
  190loPI    C3 3027  10.591   0.133  11.291  0.1230 -0.2038 -0.0415
  190loPI   PO4 3028  11.051   0.329  10.882  0.1049 -0.0640  0.2437
  190loPI   GL1 3029  10.959   0.361  10.563  0.1604 -0.1498  0.1508
  190loPI   GL2 3030  10.615   0.296  10.427 -0.0066  0.1117  0.2197
  190loPI   C1A 3031  11.225   0.455  10.194  0.2345  0.0075  0.1399
  190loPI   C2A 3032  11.204   0.369   9.705 -0.0921  0.0222  0.2880
  190loPI   C3A 3033  11.232   0.349   9.284  0.2399 -0.0424 -0.0866
  190loPI   C4A 3034  11.284   0.353   8.848 -0.1484  0.1719 -0.1794
  190loPI   C5A 3035  11.228   0.458   8.414  0.0787  0.1785 -0.0305
  190loPI   C6A 3036  10.939   0.737   8.141 -0.0559 -0.4104 -0.0763
  190loPI   C1B 3037  10.702   0.363   9.983 -0.0828 -0.3100 -0.1451
  190loPI   C2B 3038  10.752   0.407   9.554 -0.0948 -0.0761  0.1474
  190loPI   C3B 3039  10.695   0.446   9.113 -0.0090  0.0782 -0.4395
  190loPI   C4B 3040  10.780   0.411   8.645 -0.0934  0.0467  0.0710
  191loPI    C1 3041  13.060   6.434  10.976  0.1233  0.2018  0.0157
  191loPI    C2 3042  12.911   6.275  11.312  0.0028  0.0190 -0.1224
  191loPI    C3 3043  12.793   6.638  11.193 -0.3153 -0.1103 -0.2137
  191loPI   PO4 3044  12.991   6.275  10.759  0.0569  0.0712 -0.3768
  191loPI   GL1 3045  12.911   6.043  10.428 -0.2321  0.0104  0.2200
  191loPI   GL2 3046  12.948   5.706  10.549  0.0991  0.1279  0.0305
  191loPI   C1A 3047  12.671   6.080  10.111  0.1314  0.1063 -0.2604
  191loPI   C2A 3048  12.726   6.059   9.747 -0.0375 -0.0490 -0.1892
  191loPI   C3A 3049  12.680   6.053   9.295  0.0451  0.2133 -0.1158
  191loPI   C4A 3050  12.748   6.023   8.877 -0.0902  0.0532  0.0282
  191loPI   C5A 3051  13.034   5.861   8.505 -0.0718  0.0594 -0.1743
  191loPI   C6A 3052  12.911   5.610   8.070  0.1134  0.0025 -0.3068
  191loPI   C1B 3053  12.879   5.621  10.143  0.0510 -0.0241  0.3121
  191loPI   C2B 3054  12.862   5.577   9.734  0.2759 -0.2104 -0.3381
  191loPI   C3B 3055  12.976   5.611   9.373  0.0520 -0.2397 -0.0454
  191loPI   C4B 3056  13.002   5.527   8.903 -0.1047 -0.1814 -0.0617
  192loPI    C1 3057   9.308  16.555  10.866  0.0802  0.0401 -0.0558
  192loPI    C2 3058   9.299  16.422  11.243 -0.1796  0.0352 -0.0617
  192loPI    C3 3059   9.648  16.457  11.052 -0.0315  0.1748  0.2270
  192loPI   PO4 3060   9.126  16.376  10.688 -0.1147 -0.0647 -0.1666
  192loPI   GL1 3061   9.192  16.200  10.300 -0.0494 -0.0795 -0.2031
  192loPI   GL2 3062   9.090  16.045  10.189  0.1069  0.3838 -0.1075
  192loPI   C1A 3063   9.347  16.331   9.868  0.2637  0.1486 -0.0447
  192loPI   C2A 3064   9.248  16.457   9.427  0.0879  0.1378 -0.0150
  192loPI   C3A 3065   9.290  16.424   9.026 -0.5950  0.1902  0.2931
  192loPI   C4A 3066   9.270  16.333   8.660 -0.0521  0.3482 -0.2844
  192loPI   C5A 3067   9.014  16.280   8.320  0.2271  0.1807 -0.0001
  192loPI   C6A 3068   8.707  16.427   7.995  0.0159 -0.1952 -0.1908
  192loPI   C1B 3069   9.038  15.938   9.780 -0.0992 -0.0875 -0.1515
  192loPI   C2B 3070   9.029  15.932   9.326 -0.3399  0.0510 -0.0103
  192loPI   C3B 3071   9.063  15.903   8.942  0.4037 -0.1458  0.2929
  192loPI   C4B 3072   9.000  15.794   8.488  0.1096  0.2067  0.3837
  193loPI    C1 3073  14.039   5.986  11.081  0.0504  0.0879  0.1988
  193loPI    C2 3074  14.170   6.311  11.273  0.0379  0.0641  0.2480
  193loPI    C3 3075  14.431   6.037  11.143  0.0707  0.2208 -0.0266
  193loPI   PO4 3076  13.935   6.109  10.861 -0.0876  0.0764 -0.2784
  193loPI   GL1 3077  13.896   6.073  10.494 -0.1852 -0.1903 -0.0777
  193loPI   GL2 3078  14.159   6.022  10.333 -0.2001  0.0158 -0.1507
  193loPI   C1A 3079  13.750   5.994  10.019 -0.1742 -0.1358 -0.1146
  193loPI   C2A 3080  13.675   6.000   9.657 -0.1508  0.0355 -0.1188
  193loPI   C3A 3081  13.661   5.975   9.256  0.1168  0.2390 -0.3270
  193loPI   C4A 3082  13.903   5.983   8.875  0.1418  0.1235 -0.0454
  193loPI   C5A 3083  13.794   6.166   8.487 -0.0846  0.2099 -0.3462
  193loPI   C6A 3084  13.374   6.241   8.398 -0.0176  0.0878  0.2265
  193loPI   C1B 3085  14.233   5.972   9.847 -0.2772  0.2747 -0.0821
  193loPI   C2B 3086  14.206   5.961   9.404 -0.1475 -0.0985 -0.5731
  193loPI   C3B 3087  14.394   5.919   8.992  0.0812 -0.0276  0.0048
  193loPI   C4B 3088  14.522   5.826   8.501 -0.0090 -0.2842 -0.0803
  194loPI    C1 3089   2.355   6.078  11.016 -0.2779  0.0015 -0.0229
  194loPI    C2 3090   2.016   6.290  11.030 -0.2048  0.1011  0.3771
  194loPI    C3 3091   2.275   6.307  11.334  0.0939 -0.0864  0.1397
  194loPI   PO4 3092   2.396   6.037  10.770  0.1119 -0.1152  0.0309
  194loPI   GL1 3093   2.124   6.241  10.492 -0.1926 -0.0467  0.2862
  194loPI   GL2 3094   2.300   6.552  10.664  0.2847 -0.0188 -0.3087
  194loPI   C1A 3095   2.013   6.345  10.051 -0.1829 -0.3507  0.0172
  194loPI   C2A 3096   2.038   6.394   9.635 -0.0296  0.2342  0.2438
  194loPI   C3A 3097   1.795   6.395   9.342  0.0063 -0.2233 -0.1970
  194loPI   C4A 3098   1.579   6.169   9.065  0.0269 -0.1163  0.1205
  194loPI   C5A 3099   1.352   5.966   8.775 -0.0497 -0.3527 -0.2574
  194loPI   C6A 3100   0.938   5.813   8.626 -0.0404 -0.1441  0.5045
  194loPI   C1B 3101   2.418   6.710  10.260  0.2067  0.3700  0.0909
  194loPI   C2B 3102   2.383   6.699   9.824 -0.4523  0.0952 -0.1798
  194loPI   C3B 3103   2.499   6.726   9.317  0.0057 -0.2862 -0.1688
  194loPI   C4B 3104   2.528   6.587   8.896 -0.0498 -0.1167 -0.0496
  195loPI    C1 3105  12.849  10.614  11.203  0.0361 -0.2739 -0.2421
  195loPI    C2 3106  12.619  10.305  11.310 -0.1440 -0.0336  0.0822
  195loPI    C3 3107  12.962  10.375  11.502 -0.1809  0.0583  0.1155
  195loPI   PO4 3108  12.804  10.661  10.985 -0.2811  0.0919  0.0778
  195loPI   GL1 3109  12.922  10.540  10.524 -0.2142  0.2394  0.0769
  195loPI   GL2 3110  12.603  10.551  10.482  0.1417  0.0900 -0.0310
  195loPI   C1A 3111  13.321  10.508  10.187 -0.0094 -0.0931 -0.2584
  195loPI   C2A 3112  13.557  10.467   9.829  0.0391  0.0861  0.3424
  195loPI   C3A 3113  13.571  10.541   9.461 -0.1252  0.3905 -0.2997
  195loPI   C4A 3114  13.660  10.489   9.040  0.0262  0.1360  0.2168
  195loPI   C5A 3115  13.594  10.566   8.597  0.1381  0.2907  0.0789
  195loPI   C6A 3116  13.545  10.640   8.194 -0.0523 -0.0795 -0.0188
  195loPI   C1B 3117  12.796  10.533   9.989  0.0190  0.3020 -0.2063
  195loPI   C2B 3118  12.884  10.619   9.562 -0.2709 -0.1549 -0.3803
  195loPI   C3B 3119  13.037  10.509   9.144 -0.0188  0.0024 -0.0496
  195loPI   C4B 3120  12.989  10.607   8.758  0.4495 -0.0091  0.1007
  196loPI    C1 3121   4.486   7.607  11.296  0.1231  0.0820  0.0848
  196loPI    C2 3122   4.313   7.625  11.656 -0.0250  0.3454  0.0034
  196loPI    C3 3123   4.484   7.951  11.500  0.0545  0.2282 -0.1573
  196loPI   PO4 3124   4.366   7.565  11.105  0.0394  0.1857  0.2721
  196loPI   GL1 3125   4.279   7.595  10.762 -0.1012  0.0633 -0.1749
  196loPI   GL2 3126   4.624   7.536  10.628 -0.0719 -0.0718  0.1576
  196loPI   C1A 3127   4.254   7.413  10.321 -0.2521  0.0402  0.4837
  196loPI   C2A 3128   4.291   7.395   9.873 -0.5249  0.3976 -0.1094
  196loPI   C3A 3129   4.308   7.368   9.506 -0.2242 -0.2792  0.0971
  196loPI   C4A 3130   4.450   7.290   9.135 -0.0968 -0.4110 -0.1171
  196loPI   C5A 3131   4.362   7.317   8.814 -0.2232  0.2148  0.0303
  196loPI   C6A 3132   4.438   7.481   8.376 -0.0328  0.1435  0.1961
  196loPI   C1B 3133   4.985   7.422  10.363  0.1023  0.0280  0.1073
  196loPI   C2B 3134   4.853   7.372   9.871 -0.1477 -0.1907 -0.1924
  196loPI   C3B 3135   4.859   7.406   9.465 -0.0617  0.2249  0.0120
  196loPI   C4B 3136   4.981   7.491   9.057 -0.1935  0.1338  0.4102
  197loPI    C1 3137  13.853  11.124  10.902  0.0896 -0.0420  0.0268
  197loPI    C2 3138  13.650  11.145  11.247 -0.0128  0.0461 -0.0384
  197loPI    C3 3139  13.984  10.926  11.224 -0.1117 -0.1176  0.0641
  197loPI   PO4 3140  13.895  11.399  10.797 -0.4408  0.1855 -0.4320
  197loPI   GL1 3141  14.335  11.410  10.618  0.1378  0.0021  0.0650
  197loPI   GL2 3142  14.532  11.168  10.576 -0.0962 -0.0970 -0.1192
  197loPI   C1A 3143  14.314  11.703  10.220 -0.0040  0.0422 -0.2157
  197loPI   C2A 3144  14.479  11.704   9.886 -0.1366  0.1671 -0.3138
  197loPI   C3A 3145  14.386  11.830   9.396  0.3714  0.1224 -0.3943
  197loPI   C4A 3146  14.451  11.836   9.053 -0.0759 -0.0756  0.3065
  197loPI   C5A 3147  14.393  11.825   8.617 -0.0977 -0.1590 -0.1610
  197loPI   C6A 3148  14.771  12.012   8.327  0.0838 -0.2268 -0.0107
  197loPI   C1B 3149  14.607  11.268  10.245  0.1559 -0.0043  0.2526
  197loPI   C2B 3150  14.663  11.273   9.817 -0.2935 -0.1034 -0.2701
  197loPI   C3B 3151  14.669  11.435   9.407 -0.0635 -0.0418  0.2143
  197loPI   C4B 3152  14.640  11.357   8.923  0.0021 -0.0652  0.3738
  198loPI    C1 3153   7.397   8.011  11.090 -0.0039  0.1793  0.0583
  198loPI    C2 3154   7.539   7.653  11.197 -0.0013  0.0990 -0.2056
  198loPI    C3 3155   7.312   7.863  11.451  0.0561 -0.0572 -0.0226
  198loPI   PO4 3156   7.317   7.938  10.863  0.1740 -0.1181  0.1025
  198loPI   GL1 3157   7.289   7.764  10.404  0.0510  0.0269  0.1564
  198loPI   GL2 3158   7.611   7.870  10.330  0.1513  0.0796  0.1613
  198loPI   C1A 3159   6.953   7.817  10.067  0.0729 -0.0208  0.2880
  198loPI   C2A 3160   6.847   7.835   9.758  0.1204 -0.0290 -0.0925
  198loPI   C3A 3161   6.888   7.800   9.345  0.2626 -0.1544  0.0787
  198loPI   C4A 3162   6.865   7.799   8.848 -0.1270  0.1928 -0.3377
  198loPI   C5A 3163   7.108   7.751   8.394  0.1752 -0.0899 -0.2457
  198loPI   C6A 3164   7.285   7.618   8.002  0.1716 -0.1401 -0.1960
  198loPI   C1B 3165   7.428   7.899   9.888 -0.1709  0.0977 -0.1579
  198loPI   C2B 3166   7.422   7.908   9.476  0.2203  0.1010  0.0402
  198loPI   C3B 3167   7.379   7.791   9.093  0.3419 -0.0620  0.1008
  198loPI   C4B 3168   7.509   7.909   8.653  0.0515 -0.0951 -0.2836
  199loPI    C1 3169  16.063  11.890  11.069  0.0236  0.1789 -0.0263
  199loPI    C2 3170  15.917  12.111  11.369  0.1146  0.2907 -0.0637
  199loPI    C3 3171  16.203  11.841  11.440  0.1208  0.3019 -0.0461
  199loPI   PO4 3172  16.163  12.107  10.819  0.0853  0.2674 -0.0078
  199loPI   GL1 3173  16.282  12.067  10.368  0.0473  0.1122  0.3314
  199loPI   GL2 3174  16.412  12.439  10.494 -0.4203  0.2280  0.1495
  199loPI   C1A 3175  16.236  12.141   9.931 -0.1434  0.0677 -0.1741
  199loPI   C2A 3176  16.253  12.081   9.536 -0.2780 -0.1285  0.2259
  199loPI   C3A 3177  16.287  12.160   9.105 -0.2675  0.2453  0.1228
  199loPI   C4A 3178  16.320  12.156   8.699 -0.0510  0.0088 -0.1975
  199loPI   C5A 3179  16.495  12.132   8.234 -0.0751 -0.1370 -0.0297
  199loPI   C6A 3180  16.340  12.261   7.774  0.1531 -0.0659 -0.0288
  199loPI   C1B 3181  16.627  12.471  10.129  0.1265 -0.1904 -0.2070
  199loPI   C2B 3182  16.490  12.505   9.684 -0.1341 -0.0652 -0.1444
  199loPI   C3B 3183  16.578  12.543   9.314 -0.0458 -0.2364  0.0207
  199loPI   C4B 3184  16.586  12.710   8.884 -0.0648 -0.0443  0.1150
  200loPI    C1 3185   4.207  12.354  10.920  0.1886 -0.1508 -0.0118
  200loPI    C2 3186   4.140  12.006  11.106 -0.0218 -0.0287  0.1458
  200loPI    C3 3187   4.250  12.328  11.317  0.0692  0.0277  0.0140
  200loPI   PO4 3188   4.034  12.334  10.710 -0.0853  0.0642 -0.1560
  200loPI   GL1 3189   3.909  12.163  10.371  0.0572  0.2863 -0.4816
  200loPI   GL2 3190   3.679  12.388  10.337  0.2710 -0.3342 -0.1330
  200loPI   C1A 3191   4.081  12.010   9.936  0.0700 -0.1034  0.1721
  200loPI   C2A 3192   4.141  11.998   9.510 -0.0357 -0.0350  0.0520
  200loPI   C3A 3193   4.252  11.865   9.209  0.1640  0.0402  0.0373
  200loPI   C4A 3194   4.289  11.861   8.765 -0.1841 -0.0436 -0.3332
  200loPI   C5A 3195   4.470  11.828   8.381  0.0157 -0.2562 -0.1564
  200loPI   C6A 3196   4.582  12.217   8.189 -0.2137 -0.0414  0.0235
  200loPI   C1B 3197   3.747  12.437   9.869 -0.0079  0.0939  0.1107
  200loPI   C2B 3198   3.820  12.394   9.418 -0.3575  0.1877 -0.1776
  200loPI   C3B 3199   3.970  12.310   8.919 -0.0066 -0.1268  0.0357
  200loPI   C4B 3200   4.028  12.205   8.495 -0.0897  0.2333 -0.1946
  201loPI    C1 3201  16.838   1.588  11.448  0.1728  0.0287 -0.1202
  201loPI    C2 3202  17.050   1.922  11.505 -0.2070  0.2409  0.0893
  201loPI    C3 3203  17.017   1.654  11.800  0.1366 -0.0113 -0.0942
  201loPI   PO4 3204  16.911   1.508  11.191 -0.2737  0.0004 -0.0124
  201loPI   GL1 3205  16.762   1.470  10.762 -0.2096 -0.0198  0.1489
  201loPI   GL2 3206  16.702   1.145  10.767 -0.1598 -0.1952 -0.0283
  201loPI   C1A 3207  16.717   1.591  10.363  0.0806  0.1025 -0.1960
  201loPI   C2A 3208  16.727   1.504   9.943 -0.0441  0.1787 -0.0477
  201loPI   C3A 3209  16.748   1.476   9.513  0.1008 -0.1348  0.1150
  201loPI   C4A 3210  16.739   1.349   9.090 -0.2084  0.2324  0.1911
  201loPI   C5A 3211  16.712   1.214   8.731  0.1178 -0.0596  0.2004
  201loPI   C6A 3212  16.847   1.146   8.294  0.0061 -0.1865  0.2788
  201loPI   C1B 3213  16.484   1.106  10.378  0.2461 -0.1019 -0.1636
  201loPI   C2B 3214  16.404   1.040   9.985  0.0942 -0.0164  0.1223
  201loPI   C3B 3215  16.394   0.978   9.541 -0.1155  0.1953  0.1551
  201loPI   C4B 3216  16.422   0.943   9.098 -0.3416  0.2995 -0.1590
  202loPI    C1 3217   8.065   6.489  11.191 -0.0933  0.1862 -0.1424
  202loPI    C2 3218   7.708   6.613  11.322 -0.1167  0.1028 -0.1259
  202loPI    C3 3219   7.949   6.406  11.565 -0.1020  0.0670 -0.1710
  202loPI   PO4 3220   8.017   6.494  10.900  0.0002  0.0399 -0.1020
  202loPI   GL1 3221   7.901   6.547  10.484 -0.0654 -0.2485 -0.2313
  202loPI   GL2 3222   7.781   6.251  10.555  0.0972 -0.1713  0.0707
  202loPI   C1A 3223   7.913   6.533  10.022  0.1970 -0.1683 -0.0016
  202loPI   C2A 3224   7.877   6.625   9.510 -0.1799  0.2096 -0.2075
  202loPI   C3A 3225   7.901   6.537   9.103  0.1510 -0.0653 -0.1513
  202loPI   C4A 3226   7.923   6.544   8.603  0.3523 -0.0238 -0.1279
  202loPI   C5A 3227   7.561   6.518   8.384  0.2294  0.0393  0.0479
  202loPI   C6A 3228   7.327   6.788   8.241  0.1440 -0.0853  0.1023
  202loPI   C1B 3229   7.756   6.075  10.102 -0.0766 -0.2153  0.4801
  202loPI   C2B 3230   7.730   6.121   9.584  0.0487  0.2032  0.2529
  202loPI   C3B 3231   7.739   6.008   9.175 -0.0769  0.1627  0.3389
  202loPI   C4B 3232   7.672   6.153   8.791  0.2849 -0.2690  0.1031
  203loPI    C1 3233   2.512   9.060  11.393  0.0725  0.3276 -0.1807
  203loPI    C2 3234   2.788   9.194  11.649  0.0546  0.2680 -0.1298
  203loPI    C3 3235   2.450   9.031  11.787  0.0992  0.1230 -0.1902
  203loPI   PO4 3236   2.515   8.880  11.227 -0.3030 -0.0771 -0.1267
  203loPI   GL1 3237   2.572   8.841  10.787 -0.3619 -0.0409 -0.1350
  203loPI   GL2 3238   2.220   8.943  10.756  0.2506 -0.2168 -0.2449
  203loPI   C1A 3239   2.625   8.977  10.442  0.0189 -0.1006 -0.2520
  203loPI   C2A 3240   2.564   9.077  10.035 -0.0511  0.0347 -0.1886
  203loPI   C3A 3241   2.613   8.994   9.606  0.2194 -0.2009  0.2060
  203loPI   C4A 3242   2.568   8.966   9.083 -0.2168  0.0602  0.0928
  203loPI   C5A 3243   2.252   8.991   8.727  0.4469  0.0419 -0.2079
  203loPI   C6A 3244   1.955   8.885   8.373 -0.0333  0.1209  0.0021
  203loPI   C1B 3245   2.032   8.887  10.321 -0.1920  0.2199  0.2196
  203loPI   C2B 3246   2.024   8.971   9.989 -0.0518 -0.1524  0.0189
  203loPI   C3B 3247   1.904   9.031   9.682 -0.1676 -0.1691 -0.0164
  203loPI   C4B 3248   2.039   8.873   9.207  0.1335 -0.0575  0.1095
  204loPI    C1 3249   4.175   3.563  10.989  0.0991 -0.1459  0.0261
  204loPI    C2 3250   4.224   3.233  11.209  0.0492 -0.0643  0.1611
  204loPI    C3 3251   4.004   3.536  11.350 -0.1343 -0.0839 -0.0777
  204loPI   PO4 3252   4.385   3.614  10.847  0.2703 -0.0879 -0.0306
  204loPI   GL1 3253   4.626   3.560  10.520 -0.0153 -0.1147 -0.1824
  204loPI   GL2 3254   4.720   3.783  10.477 -0.4135 -0.0523  0.4162
  204loPI   C1A 3255   4.504   3.404  10.171 -0.2921  0.4193  0.0042
  204loPI   C2A 3256   4.549   3.373   9.737  0.0558  0.0020  0.3942
  204loPI   C3A 3257   4.750   3.350   9.262  0.0331  0.5359 -0.0310
  204loPI   C4A 3258   4.847   3.444   8.824 -0.0972 -0.0507  0.2377
  204loPI   C5A 3259   4.920   3.418   8.455 -0.0856  0.0643 -0.0703
  204loPI   C6A 3260   5.048   3.276   8.107  0.1074  0.2150  0.0968
  204loPI   C1B 3261   4.712   3.798   9.973  0.0248 -0.0541 -0.0845
  204loPI   C2B 3262   4.933   3.830   9.589  0.2662 -0.0316 -0.0369
  204loPI   C3B 3263   4.985   3.772   9.151 -0.0137  0.3992 -0.3604
  204loPI   C4B 3264   5.077   3.883   8.726 -0.0064  0.1446 -0.3384
  205loPI    C1 3265  11.358  17.568  11.108  0.1721  0.1292 -0.0621
  205loPI    C2 3266  11.004  17.752  11.125  0.1967  0.1645  0.0804
  205loPI    C3 3267  11.020  17.356  11.077  0.1434  0.1947 -0.2036
  205loPI   PO4 3268  11.486  17.740  11.009 -0.3411  0.1352  0.1040
  205loPI   GL1 3269  11.379  17.881  10.607 -0.1776  0.0508 -0.0495
  205loPI   GL2 3270  11.083  17.758  10.622 -0.0733  0.0499 -0.1814
  205loPI   C1A 3271  11.534  17.806  10.201  0.2599  0.0501 -0.1397
  205loPI   C2A 3272  11.445  17.813   9.863 -0.4323  0.0420 -0.3437
  205loPI   C3A 3273  11.461  17.778   9.524  0.1270 -0.2206 -0.2512
  205loPI   C4A 3274  11.483  17.724   9.107  0.1128 -0.0631  0.3225
  205loPI   C5A 3275  11.409  17.749   8.674  0.0986  0.2186 -0.1855
  205loPI   C6A 3276  11.055  17.775   8.398  0.1084  0.0116  0.0473
  205loPI   C1B 3277  11.003  17.852  10.222 -0.1612 -0.0311  0.1491
  205loPI   C2B 3278  10.992  17.780   9.731 -0.1310 -0.1542 -0.0334
  205loPI   C3B 3279  11.016  17.768   9.294 -0.1315 -0.2326  0.1685
  205loPI   C4B 3280  10.969  17.798   8.869  0.1181 -0.2165  0.0399
  206loPI    C1 3281   5.551   7.877  11.244 -0.2454  0.2830  0.0247
  206loPI    C2 3282   5.402   8.112  11.531  0.0427  0.1803  0.2638
  206loPI    C3 3283   5.617   7.789  11.629 -0.0718 -0.0002 -0.0666
  206loPI   PO4 3284   5.417   7.785  11.076  0.2268 -0.1460  0.1131
  206loPI   GL1 3285   5.352   7.966  10.664  0.2935  0.3175 -0.0184
  206loPI   GL2 3286   5.052   7.821  10.675 -0.0712  0.3057 -0.2204
  206loPI   C1A 3287   5.498   7.910  10.271 -0.2951 -0.0057 -0.2663
  206loPI   C2A 3288   5.512   7.992   9.819 -0.2360  0.1161 -0.0915
  206loPI   C3A 3289   5.536   7.991   9.445 -0.2943  0.0286 -0.1870
  206loPI   C4A 3290   5.637   7.942   8.975  0.2941 -0.0254 -0.3893
  206loPI   C5A 3291   5.600   8.001   8.672 -0.0329  0.3229  0.1104
  206loPI   C6A 3292   5.574   8.286   8.304  0.3569 -0.1381 -0.1307
  206loPI   C1B 3293   4.970   7.953  10.286  0.1805 -0.1462  0.2938
  206loPI   C2B 3294   5.023   7.915   9.813  0.0395  0.0542 -0.2572
  206loPI   C3B 3295   4.954   7.880   9.461 -0.1401  0.3533 -0.1070
  206loPI   C4B 3296   5.053   7.996   9.059  0.3575  0.0915 -0.1157
  207loPI    C1 3297   8.824  10.479  11.416 -0.1924  0.0143 -0.1355
  207loPI    C2 3298   9.055  10.238  11.635  0.1255  0.0840 -0.3858
  207loPI    C3 3299   8.895  10.566  11.800  0.0234 -0.0796 -0.1530
  207loPI   PO4 3300   8.889  10.435  11.175 -0.2437 -0.1626 -0.0111
  207loPI   GL1 3301   8.819  10.587  10.782 -0.1404  0.0692 -0.2501
  207loPI   GL2 3302   8.974  10.422  10.539  0.1199 -0.3396  0.0905
  207loPI   C1A 3303   8.589  10.810  10.409 -0.2029  0.1555 -0.0247
  207loPI   C2A 3304   8.564  10.776   9.960  0.4280 -0.2608  0.0230
  207loPI   C3A 3305   8.531  10.807   9.549 -0.0186  0.4416 -0.0289
  207loPI   C4A 3306   8.534  10.777   9.197 -0.1015  0.0660 -0.0441
  207loPI   C5A 3307   8.707  10.845   8.790 -0.0108  0.3394 -0.1324
  207loPI   C6A 3308   8.843  10.700   8.349 -0.1847  0.1966  0.2608
  207loPI   C1B 3309   8.922  10.428  10.152 -0.1341 -0.2178  0.0780
  207loPI   C2B 3310   8.896  10.423   9.734  0.2349 -0.2201 -0.1477
  207loPI   C3B 3311   8.901  10.447   9.265 -0.0279 -0.2176 -0.0156
  207loPI   C4B 3312   8.944  10.377   8.760  0.0933 -0.0650  0.1688
  208loPI    C1 3313   6.688  17.445  10.911  0.1683 -0.2184  0.1695
  208loPI    C2 3314   6.818  17.780  11.087  0.1555 -0.2084  0.1599
  208loPI    C3 3315   6.690  17.474  11.310 -0.0804 -0.1085  0.1641
  208loPI   PO4 3316   6.849  17.406  10.627 -0.0871 -0.0210 -0.1238
  208loPI   GL1 3317   7.038  17.469  10.342 -0.0487  0.0689  0.0210
  208loPI   GL2 3318   6.999  17.716  10.268 -0.0338  0.0406 -0.1755
  208loPI   C1A 3319   7.155  17.254   9.957 -0.1370 -0.0622  0.1540
  208loPI   C2A 3320   7.162  17.197   9.587  0.0870  0.1400  0.0425
  208loPI   C3A 3321   7.133  17.120   9.153 -0.1188 -0.2564 -0.0903
  208loPI   C4A 3322   7.152  17.166   8.760 -0.1497 -0.0403  0.0013
  208loPI   C5A 3323   7.274  17.113   8.373 -0.2282  0.0147 -0.1233
  208loPI   C6A 3324   7.608  16.801   8.170 -0.0283 -0.0092 -0.4423
  208loPI   C1B 3325   6.823  17.782   9.869  0.1021  0.0451  0.0469
  208loPI   C2B 3326   6.937  17.643   9.447 -0.0147  0.5278  0.3241
  208loPI   C3B 3327   6.932  17.533   8.959  0.1544  0.1021  0.0685
  208loPI   C4B 3328   6.662  17.468   8.596  0.1298 -0.1456 -0.2984
  209loPI    C1 3329   0.279   4.654  11.344 -0.0245 -0.0265  0.0543
  209loPI    C2 3330   0.543   4.738  11.633  0.1477 -0.0031 -0.1079
  209loPI    C3 3331   0.208   4.955  11.598  0.2137  0.1111 -0.0386
  209loPI   PO4 3332   0.323   4.493  11.149 -0.0451  0.0382  0.0816
  209loPI   GL1 3333   0.272   4.356  10.742  0.2270 -0.1277  0.5096
  209loPI   GL2 3334  -0.060   4.415  10.670 -0.0942 -0.0966 -0.0471
  209loPI   C1A 3335   0.373   4.465  10.361 -0.1544  0.0219  0.0909
  209loPI   C2A 3336   0.388   4.438   9.920 -0.3530  0.2092 -0.1648
  209loPI   C3A 3337   0.455   4.486   9.534  0.0099  0.2407 -0.1266
  209loPI   C4A 3338   0.289   4.378   9.162 -0.0728 -0.2701 -0.2695
  209loPI   C5A 3339   0.282   4.231   8.733  0.1331 -0.0265 -0.1901
  209loPI   C6A 3340  -0.059   4.458   8.448  0.0219  0.0790 -0.2012
  209loPI   C1B 3341  -0.098   4.557  10.295  0.0898 -0.0457  0.2935
  209loPI   C2B 3342  -0.155   4.484   9.816 -0.2483  0.1111  0.1941
  209loPI   C3B 3343  -0.104   4.473   9.380  0.2342 -0.1646 -0.2778
  209loPI   C4B 3344  -0.182   4.579   8.931  0.1721 -0.0712  0.2144
  210loPI    C1 3345  12.545   3.254  11.089  0.0671  0.0124  0.0301
  210loPI    C2 3346  12.379   2.994  11.344  0.0759 -0.1610 -0.1394
  210loPI    C3 3347  12.655   3.253  11.474  0.0888 -0.2559  0.0245
  210loPI   PO4 3348  12.614   3.151  10.932  0.1041 -0.0234  0.0462
  210loPI   GL1 3349  12.751   3.096  10.575 -0.2388  0.1404  0.0355
  210loPI   GL2 3350  12.361   3.194  10.487 -0.1119 -0.0789 -0.0393
  210loPI   C1A 3351  12.767   3.047  10.229 -0.1190  0.1512  0.3253
  210loPI   C2A 3352  12.776   3.026   9.862 -0.0943 -0.3804 -0.2826
  210loPI   C3A 3353  12.870   2.975   9.340 -0.1653 -0.2743  0.1366
  210loPI   C4A 3354  12.766   3.053   8.890  0.3119 -0.0229 -0.1254
  210loPI   C5A 3355  12.842   3.245   8.486 -0.1616  0.0986 -0.0069
  210loPI   C6A 3356  13.041   3.231   8.017 -0.1359  0.2056 -0.0997
  210loPI   C1B 3357  12.257   3.101  10.069  0.2274 -0.0238 -0.1903
  210loPI   C2B 3358  12.358   2.967   9.566 -0.1212  0.0971 -0.4152
  210loPI   C3B 3359  12.291   3.020   9.161  0.1506 -0.0406 -0.2583
  210loPI   C4B 3360  12.206   3.021   8.681  0.0093 -0.0120 -0.0511
  211loPI    C1 3361   0.898  15.844  10.938  0.0386 -0.0539 -0.0660
  211loPI    C2 3362   1.079  15.571  10.710  0.0481 -0.1700  0.0786
  211loPI    C3 3363   1.233  15.667  11.066  0.1722  0.1921 -0.0675
  211loPI   PO4 3364   0.777  16.010  10.744 -0.3156 -0.1877 -0.1211
  211loPI   GL1 3365   0.632  16.148  10.291 -0.1307 -0.0626  0.1631
  211loPI   GL2 3366   0.824  15.796  10.314  0.1851  0.0004  0.1384
  211loPI   C1A 3367   0.523  16.088   9.862  0.1148  0.0145 -0.1209
  211loPI   C2A 3368   0.455  16.055   9.404  0.1018 -0.0611  0.0788
  211loPI   C3A 3369   0.563  15.997   9.059 -0.0163 -0.0989  0.0079
  211loPI   C4A 3370   0.555  15.937   8.670  0.1105  0.5883  0.1644
  211loPI   C5A 3371   0.610  15.740   8.356  0.2607  0.2161 -0.0301
  211loPI   C6A 3372   0.631  15.265   8.255  0.0916 -0.2406 -0.1788
  211loPI   C1B 3373   0.775  15.595   9.894 -0.0471 -0.1268 -0.1665
  211loPI   C2B 3374   0.739  15.641   9.471  0.1919 -0.0763 -0.3801
  211loPI   C3B 3375   0.702  15.548   9.082 -0.0568 -0.1028  0.1058
  211loPI   C4B 3376   0.887  15.500   8.710  0.0528  0.0250  0.2727
  212loPI    C1 3377   2.787  17.457  10.909 -0.0408  0.0422 -0.1121
  212loPI    C2 3378   2.849  17.204  11.212 -0.2198  0.1837  0.0458
  212loPI    C3 3379   3.060  17.543  11.188  0.0206  0.0235 -0.1661
  212loPI   PO4 3380   2.722  17.228  10.686  0.0467 -0.2593 -0.3692
  212loPI   GL1 3381   2.512  17.369  10.296 -0.3779 -0.1158 -0.0635
  212loPI   GL2 3382   2.730  17.118  10.136 -0.1670 -0.2780 -0.2672
  212loPI   C1A 3383   2.554  17.627   9.938  0.0539 -0.2939 -0.1181
  212loPI   C2A 3384   2.754  17.618   9.557 -0.1643 -0.2142  0.0824
  212loPI   C3A 3385   2.704  17.618   9.107  0.0265  0.2912 -0.2236
  212loPI   C4A 3386   2.640  17.748   8.632 -0.2124  0.0148  0.0839
  212loPI   C5A 3387   2.803  17.863   8.290  0.4547  0.2749  0.0534
  212loPI   C6A 3388   3.018  18.211   8.146  0.0344 -0.3182 -0.0967
  212loPI   C1B 3389   2.783  17.139   9.744 -0.2094  0.2102 -0.1635
  212loPI   C2B 3390   2.899  17.181   9.258  0.3458  0.2981 -0.2735
  212loPI   C3B 3391   3.030  17.253   8.861 -0.0993 -0.0053 -0.2703
  212loPI   C4B 3392   2.983  17.356   8.534  0.1675  0.0018 -0.2616
  213loPI    C1 3393   9.666   4.742  11.151 -0.1172  0.2082  0.0374
  213loPI    C2 3394   9.489   4.825  11.500  0.0612 -0.0144  0.1837
  213loPI    C3 3395   9.780   4.552  11.484  0.0216 -0.0407 -0.1494
  213loPI   PO4 3396   9.384   4.819  10.994 -0.2875 -0.0848  0.2437
  213loPI   GL1 3397   9.184   4.855  10.563 -0.1150 -0.0425 -0.0131
  213loPI   GL2 3398   8.774   4.895  10.458 -0.1191  0.0146 -0.1671
  213loPI   C1A 3399   9.396   4.864  10.160  0.0850 -0.0867  0.0813
  213loPI   C2A 3400   9.244   4.992   9.736  0.0029  0.0171  0.2766
  213loPI   C3A 3401   9.208   4.911   9.351  0.1693 -0.0121  0.1873
  213loPI   C4A 3402   9.241   5.024   8.920 -0.0998  0.1243 -0.2585
  213loPI   C5A 3403   9.193   5.074   8.600 -0.0516  0.0661  0.0312
  213loPI   C6A 3404   8.843   5.321   8.389  0.1326  0.1815  0.0797
  213loPI   C1B 3405   8.978   5.252  10.190 -0.2296  0.1443  0.0348
  213loPI   C2B 3406   8.904   5.370   9.809  0.1533 -0.1575  0.1406
  213loPI   C3B 3407   8.848   5.369   9.419  0.1150 -0.0347  0.0082
  213loPI   C4B 3408   8.910   5.348   9.032 -0.0330  0.4196 -0.0456
  214loPI    C1 3409   2.437  15.715  10.591 -0.0113 -0.1816  0.1329
  214loPI    C2 3410   2.497  15.326  10.521  0.0973 -0.1801  0.2168
  214loPI    C3 3411   2.664  15.500  10.840  0.1813 -0.0286  0.0917
  214loPI   PO4 3412   2.341  15.787  10.302 -0.3202 -0.1210 -0.1580
  214loPI   GL1 3413   2.436  15.991   9.950  0.3749  0.1127  0.0338
  214loPI   GL2 3414   2.081  16.106   9.955  0.1958  0.0038  0.1170
  214loPI   C1A 3415   2.429  16.279   9.618 -0.0627 -0.2389  0.1478
  214loPI   C2A 3416   2.370  16.388   9.230  0.1620 -0.0496 -0.4055
  214loPI   C3A 3417   2.350  16.323   8.788 -0.1020  0.0065  0.0040
  214loPI   C4A 3418   2.496  16.378   8.349  0.1982 -0.0548 -0.1020
  214loPI   C5A 3419   2.668  16.716   8.039 -0.2023  0.0402  0.0051
  214loPI   C6A 3420   2.727  17.154   8.123  0.2262  0.1036 -0.0153
  214loPI   C1B 3421   2.090  15.935   9.601  0.0818  0.1361  0.0432
  214loPI   C2B 3422   2.038  15.907   9.156  0.0085 -0.4500 -0.0702
  214loPI   C3B 3423   2.013  15.850   8.683 -0.1239  0.0550  0.2510
  214loPI   C4B 3424   2.127  15.995   8.203  0.0697  0.0780 -0.3641
  215loPI    C1 3425  15.825   7.468  11.067 -0.0861 -0.1396  0.1080
  215loPI    C2 3426  15.668   7.386  11.425 -0.2009 -0.0552  0.0775
  215loPI    C3 3427  15.837   7.742  11.358  0.0061 -0.1456  0.1103
  215loPI   PO4 3428  15.590   7.329  10.904  0.0389 -0.1736 -0.1041
  215loPI   GL1 3429  15.543   7.117  10.476  0.3173 -0.0653  0.0374
  215loPI   GL2 3430  15.713   7.242  10.275  0.1646  0.0732 -0.1897
  215loPI   C1A 3431  15.458   6.780  10.184 -0.1045  0.4023 -0.0154
  215loPI   C2A 3432  15.360   6.792   9.755 -0.1976  0.2866 -0.0956
  215loPI   C3A 3433  15.428   6.805   9.391  0.0926  0.0383 -0.0122
  215loPI   C4A 3434  15.457   6.841   9.029  0.1660  0.2258  0.1175
  215loPI   C5A 3435  15.378   6.885   8.513 -0.1504  0.1444 -0.2392
  215loPI   C6A 3436  15.152   6.990   8.202  0.0527 -0.4028  0.1530
  215loPI   C1B 3437  15.652   7.209   9.893 -0.1128  0.0110  0.2091
  215loPI   C2B 3438  15.667   7.270   9.415  0.0259 -0.1433 -0.2097
  215loPI   C3B 3439  15.667   7.275   8.982 -0.0520 -0.1603  0.1610
  215loPI   C4B 3440  15.717   7.270   8.472  0.1020 -0.0938 -0.3686
  216loPI    C1 3441  14.654  16.695  11.761 -0.0920 -0.0014  0.0953
  216loPI    C2 3442  14.448  16.817  12.081  0.0741  0.0518  0.1830
  216loPI    C3 3443  14.716  16.522  12.116  0.0635  0.0301  0.0842
  216loPI   PO4 3444  14.605  16.910  11.589  0.0154  0.1106 -0.1746
  216loPI   GL1 3445  14.707  16.886  11.098  0.1436  0.1519  0.2377
  216loPI   GL2 3446  14.865  16.735  10.828  0.2201  0.0635  0.2257
  216loPI   C1A 3447  14.416  16.962  10.786  0.0376 -0.2752 -0.1718
  216loPI   C2A 3448  14.292  17.165  10.394 -0.1100  0.1050 -0.0697
  216loPI   C3A 3449  14.279  17.212  10.013 -0.0083 -0.1384 -0.1614
  216loPI   C4A 3450  14.222  17.280   9.547 -0.0428 -0.0713  0.1868
  216loPI   C5A 3451  14.354  17.297   9.114  0.0454  0.0239 -0.1085
  216loPI   C6A 3452  14.629  17.239   8.734 -0.1070  0.1012 -0.3466
  216loPI   C1B 3453  15.005  16.534  10.479  0.3446 -0.1285  0.3592
  216loPI   C2B 3454  14.984  16.703  10.037  0.0917 -0.1782 -0.0624
  216loPI   C3B 3455  14.974  16.730   9.663  0.0112  0.0484  0.0764
  216loPI   C4B 3456  15.016  16.731   9.275  0.1404 -0.4125  0.1326
  217loPI    C1 3457   9.337  12.095  11.288  0.0668 -0.1173  0.0114
  217loPI    C2 3458   9.441  11.894  11.618 -0.0817  0.1002  0.1939
  217loPI    C3 3459   9.485  12.291  11.604 -0.1687  0.1038 -0.0124
  217loPI   PO4 3460   9.330  11.955  11.137  0.0039  0.0587  0.0320
  217loPI   GL1 3461   9.265  11.961  10.711 -0.5153 -0.2190 -0.0968
  217loPI   GL2 3462   9.093  12.223  10.503 -0.0701  0.0243  0.2382
  217loPI   C1A 3463   9.500  11.814  10.421 -0.0028  0.0741  0.1685
  217loPI   C2A 3464   9.461  11.870  10.025  0.0795  0.0997  0.0425
  217loPI   C3A 3465   9.363  11.901   9.605 -0.3256 -0.1550 -0.1552
  217loPI   C4A 3466   9.482  11.887   9.124 -0.1517 -0.0651  0.2331
  217loPI   C5A 3467   9.533  11.864   8.702  0.0591  0.1156 -0.0061
  217loPI   C6A 3468   9.527  11.912   8.244  0.0296 -0.1057 -0.2684
  217loPI   C1B 3469   9.081  12.310  10.092 -0.1477  0.2961  0.0746
  217loPI   C2B 3470   9.059  12.316   9.671 -0.0241  0.0315 -0.1775
  217loPI   C3B 3471   9.213  12.307   9.307  0.1037  0.0466  0.0507
  217loPI   C4B 3472   9.144  12.313   8.868 -0.3471  0.0382 -0.0160
  218loPI    C1 3473  12.492   0.639  11.395  0.0830  0.0877 -0.0302
  218loPI    C2 3474  12.741   0.685  11.705  0.1018 -0.0448 -0.0250
  218loPI    C3 3475  12.350   0.758  11.749  0.0952 -0.1220  0.0465
  218loPI   PO4 3476  12.613   0.788  11.196 -0.5622 -0.0304 -0.1754
  218loPI   GL1 3477  12.823   0.776  10.822  0.0199  0.0354 -0.0606
  218loPI   GL2 3478  12.537   0.728  10.608  0.2256 -0.1746  0.1080
  218loPI   C1A 3479  13.038   0.749  10.382  0.0496  0.0224 -0.1781
  218loPI   C2A 3480  12.997   0.709   9.985  0.1795 -0.1990  0.2249
  218loPI   C3A 3481  12.963   0.712   9.610 -0.0918  0.0151 -0.3859
  218loPI   C4A 3482  12.973   0.776   9.144  0.3381 -0.0649 -0.2705
  218loPI   C5A 3483  12.966   0.918   8.786  0.0690 -0.0644 -0.1746
  218loPI   C6A 3484  13.126   1.188   8.554 -0.0272  0.1258 -0.0974
  218loPI   C1B 3485  12.495   0.754  10.165 -0.1801  0.1428  0.1574
  218loPI   C2B 3486  12.451   0.798   9.771 -0.1121  0.1187 -0.2433
  218loPI   C3B 3487  12.517   0.783   9.258  0.1016  0.5241  0.1595
  218loPI   C4B 3488  12.461   0.892   8.876  0.0182  0.2161  0.2985
  219loPI    C1 3489  15.573  16.759  11.498 -0.1829 -0.0652 -0.0022
  219loPI    C2 3490  15.572  16.962  11.842 -0.2142  0.0373 -0.0624
  219loPI    C3 3491  15.722  16.592  11.829 -0.1070  0.0768  0.0360
  219loPI   PO4 3492  15.514  16.985  11.308  0.0421 -0.0864  0.3073
  219loPI   GL1 3493  15.555  16.982  10.829 -0.1080  0.2386 -0.1508
  219loPI   GL2 3494  15.272  17.160  10.903 -0.1589  0.0430  0.2925
  219loPI   C1A 3495  15.433  17.007  10.414 -0.2151  0.3159  0.0751
  219loPI   C2A 3496  15.260  17.187  10.028 -0.2154  0.1934 -0.0430
  219loPI   C3A 3497  15.335  17.085   9.529 -0.4412  0.1367 -0.0744
  219loPI   C4A 3498  15.238  17.127   9.066 -0.1338 -0.2213  0.2700
  219loPI   C5A 3499  15.139  17.173   8.588 -0.0100  0.2076 -0.0480
  219loPI   C6A 3500  15.220  17.324   8.229 -0.1468  0.2224  0.3436
  219loPI   C1B 3501  14.943  17.082  10.521  0.0708 -0.2552 -0.0291
  219loPI   C2B 3502  14.773  17.104  10.216  0.1006 -0.0458  0.0581
  219loPI   C3B 3503  14.758  17.169   9.815  0.0216  0.2272  0.0466
  219loPI   C4B 3504  14.797  17.254   9.356  0.1104  0.3911 -0.0384
  220loPI    C1 3505  13.685   9.128  11.261  0.0200  0.0682 -0.1266
  220loPI    C2 3506  13.994   9.210  11.502  0.0389  0.0721 -0.1521
  220loPI    C3 3507  13.620   9.245  11.638  0.0474  0.1724 -0.1538
  220loPI   PO4 3508  13.893   9.100  10.993  0.0539  0.4044  0.0092
  220loPI   GL1 3509  14.086   9.130  10.637 -0.2672 -0.1571 -0.1184
  220loPI   GL2 3510  14.132   9.460  10.567  0.0186  0.0834 -0.0967
  220loPI   C1A 3511  14.024   9.071  10.198 -0.3294 -0.1343 -0.0896
  220loPI   C2A 3512  14.248   9.092   9.844  0.0591  0.3504  0.0265
  220loPI   C3A 3513  14.314   9.109   9.431 -0.3419 -0.3017 -0.2204
  220loPI   C4A 3514  14.424   9.162   9.025  0.2679 -0.0710 -0.0312
  220loPI   C5A 3515  14.444   9.029   8.616 -0.1383 -0.0601 -0.0091
  220loPI   C6A 3516  14.455   9.068   8.142  0.2152  0.0822 -0.0693
  220loPI   C1B 3517  14.447   9.536  10.159  0.0761  0.1465 -0.0428
  220loPI   C2B 3518  14.489   9.538   9.729  0.3299  0.0713  0.0593
  220loPI   C3B 3519  14.633   9.531   9.342 -0.0602  0.0921 -0.1439
  220loPI   C4B 3520  14.717   9.567   8.941 -0.0636  0.2511  0.3137
  221loPI    C1 3521  16.140   1.083  11.396  0.0011  0.0302 -0.0953
  221loPI    C2 3522  16.071   0.799  11.669  0.2065 -0.0988 -0.1752
  221loPI    C3 3523  16.098   1.182  11.781 -0.0176 -0.1152 -0.0592
  221loPI   PO4 3524  16.092   0.976  11.183 -0.2024  0.0994 -0.0635
  221loPI   GL1 3525  16.224   1.044  10.843 -0.2452  0.2315 -0.1203
  221loPI   GL2 3526  16.222   1.336  10.754  0.1412 -0.1546  0.0559
  221loPI   C1A 3527  16.124   0.716  10.563  0.2588 -0.0429 -0.1403
  221loPI   C2A 3528  16.096   0.654  10.085  0.2862 -0.1051 -0.0596
  221loPI   C3A 3529  16.089   0.554   9.755  0.0479 -0.2709  0.0901
  221loPI   C4A 3530  16.103   0.596   9.291  0.1714 -0.0782 -0.0857
  221loPI   C5A 3531  16.095   0.512   8.834 -0.1519  0.1221 -0.1564
  221loPI   C6A 3532  16.373   0.288   8.502 -0.1958  0.1833 -0.1365
  221loPI   C1B 3533  16.258   1.530  10.381 -0.0133  0.1248 -0.2284
  221loPI   C2B 3534  16.157   1.492   9.986 -0.2730 -0.2808 -0.1195
  221loPI   C3B 3535  16.114   1.490   9.572 -0.1977  0.0635  0.1685
  221loPI   C4B 3536  16.231   1.448   9.172  0.1337  0.0883 -0.2404
  222loPI    C1 3537   0.243   1.224  11.343 -0.1737 -0.0112 -0.1973
  222loPI    C2 3538   0.093   1.576  11.462  0.1057  0.0729 -0.0838
  222loPI    C3 3539  -0.075   1.235  11.586  0.0574  0.1643  0.1056
  222loPI   PO4 3540   0.304   1.261  11.099  0.3244  0.2250  0.3489
  222loPI   GL1 3541   0.370   1.132  10.617  0.3097  0.0177  0.0371
  222loPI   GL2 3542   0.331   1.366  10.597  0.0752  0.0973  0.1577
  222loPI   C1A 3543   0.225   0.913  10.298  0.0386  0.0149  0.0331
  222loPI   C2A 3544   0.186   0.871   9.886  0.0213  0.1439 -0.3395
  222loPI   C3A 3545   0.129   0.871   9.439  0.1260  0.0339  0.0610
  222loPI   C4A 3546   0.241   0.766   9.007 -0.4347 -0.0012 -0.2050
  222loPI   C5A 3547   0.042   0.810   8.640  0.1568 -0.2942  0.1698
  222loPI   C6A 3548   0.033   1.171   8.465 -0.1241 -0.1038  0.1034
  222loPI   C1B 3549   0.404   1.352  10.185  0.0463  0.2785 -0.1507
  222loPI   C2B 3550   0.398   1.309   9.770  0.1131 -0.0303  0.1761
  222loPI   C3B 3551   0.423   1.337   9.327  0.0301 -0.1238 -0.2380
  222loPI   C4B 3552   0.313   1.268   8.899 -0.1138  0.0092 -0.1514
  223loPI    C1 3553   1.088   9.345  11.590  0.3574 -0.1289 -0.0526
  223loPI    C2 3554   1.068   9.662  11.833 -0.1195 -0.1374 -0.0700
  223loPI    C3 3555   1.279   9.340  11.941 -0.0363 -0.0049  0.1699
  223loPI   PO4 3556   1.118   9.478  11.327  0.0924  0.3430  0.1258
  223loPI   GL1 3557   1.272   9.257  10.948  0.1418  0.1012 -0.2039
  223loPI   GL2 3558   1.118   8.929  10.785 -0.0095  0.1638  0.2890
  223loPI   C1A 3559   1.225   9.428  10.522 -0.1021 -0.1383 -0.1886
  223loPI   C2A 3560   1.177   9.400  10.101  0.1335 -0.0811  0.0928
  223loPI   C3A 3561   1.229   9.301   9.650 -0.2744 -0.0194  0.2750
  223loPI   C4A 3562   1.287   9.227   9.174  0.1747 -0.2039 -0.2501
  223loPI   C5A 3563   1.271   9.202   8.806  0.4295  0.2248 -0.0389
  223loPI   C6A 3564   1.035   8.938   8.594  0.1617  0.1107  0.1418
  223loPI   C1B 3565   1.019   8.998  10.344  0.1394  0.2569  0.0860
  223loPI   C2B 3566   1.019   8.897   9.939 -0.2322  0.0212  0.1605
  223loPI   C3B 3567   1.027   8.869   9.482  0.2355  0.2782 -0.1764
  223loPI   C4B 3568   0.988   8.834   9.069  0.1723 -0.1643  0.2013
  224loPI    C1 3569   7.883   3.722  10.846  0.4081 -0.0865 -0.1780
  224loPI    C2 3570   7.601   3.482  10.996  0.1506  0.0823 -0.3829
  224loPI    C3 3571   7.771   3.760  11.228  0.0538  0.0676 -0.2935
  224loPI   PO4 3572   8.028   3.614  10.693  0.1697  0.1486 -0.3387
  224loPI   GL1 3573   8.176   3.413  10.271 -0.2863 -0.1148  0.2217
  224loPI   GL2 3574   7.930   3.385  10.278 -0.4747 -0.2653  0.2003
  224loPI   C1A 3575   8.334   3.608   9.979  0.0178  0.0227  0.1869
  224loPI   C2A 3576   8.355   3.889   9.651  0.2895 -0.0110 -0.0606
  224loPI   C3A 3577   8.460   3.916   9.204  0.0268 -0.3074  0.0374
  224loPI   C4A 3578   8.834   4.044   8.997 -0.0387 -0.1561 -0.1188
  224loPI   C5A 3579   9.240   4.034   8.894  0.2625  0.3635  0.2426
  224loPI   C6A 3580   9.517   4.268   8.577 -0.0837 -0.1087 -0.0490
  224loPI   C1B 3581   8.087   3.244   9.851  0.4966 -0.0418 -0.1847
  224loPI   C2B 3582   8.170   3.489   9.482  0.3038 -0.2020  0.0745
  224loPI   C3B 3583   8.162   3.615   8.949  0.1339  0.1528  0.1173
  224loPI   C4B 3584   8.410   3.613   8.598  0.1405  0.1676  0.2032
  225loPI    C1 3585  15.765   6.319  11.156 -0.1435  0.0256  0.1678
  225loPI    C2 3586  15.615   6.420  11.513 -0.0900 -0.0663  0.2164
  225loPI    C3 3587  15.675   6.035  11.422 -0.1871 -0.0488  0.0741
  225loPI   PO4 3588  15.600   6.386  10.971  0.2828 -0.4400  0.1335
  225loPI   GL1 3589  15.596   6.484  10.595 -0.1864 -0.0852 -0.2757
  225loPI   GL2 3590  15.848   6.652  10.431 -0.0019 -0.0637  0.1384
  225loPI   C1A 3591  15.639   6.317  10.125  0.0840  0.1688 -0.2282
  225loPI   C2A 3592  15.582   6.301   9.717 -0.2091  0.0175  0.1658
  225loPI   C3A 3593  15.572   6.359   9.253  0.0800  0.1453 -0.1839
  225loPI   C4A 3594  15.684   6.412   8.908  0.1237  0.0649  0.1828
  225loPI   C5A 3595  15.810   6.471   8.425 -0.0603 -0.0682 -0.0579
  225loPI   C6A 3596  16.294   6.371   8.273  0.1959 -0.1417 -0.1773
  225loPI   C1B 3597  15.879   6.765   9.981  0.1705 -0.0293  0.3386
  225loPI   C2B 3598  16.003   6.788   9.547 -0.1076 -0.0434 -0.1002
  225loPI   C3B 3599  15.928   6.838   9.112 -0.3938 -0.2088 -0.4067
  225loPI   C4B 3600  15.922   6.859   8.696  0.0243 -0.2382 -0.1892
  226loPI    C1 3601   2.263   1.214  10.912 -0.0836  0.2055  0.1533
  226loPI    C2 3602   2.036   0.941  11.098  0.1007 -0.1141 -0.0820
  226loPI    C3 3603   2.383   1.057  11.260  0.0851 -0.1168 -0.0467
  226loPI   PO4 3604   2.268   1.118  10.670 -0.1177  0.0218  0.0092
  226loPI   GL1 3605   1.985   1.164  10.281 -0.1767 -0.2526  0.2483
  226loPI   GL2 3606   2.234   1.480  10.211  0.1737 -0.2170  0.1526
  226loPI   C1A 3607   2.052   1.197   9.857 -0.1217 -0.0228  0.0660
  226loPI   C2A 3608   2.080   1.258   9.477  0.2072  0.1854 -0.0287
  226loPI   C3A 3609   1.994   1.250   8.990  0.1327 -0.1720 -0.0116
  226loPI   C4A 3610   2.003   1.373   8.564 -0.1169 -0.1946 -0.0039
  226loPI   C5A 3611   1.957   1.133   8.254  0.1661 -0.2339  0.1623
  226loPI   C6A 3612   2.145   0.777   8.182 -0.2604  0.1823 -0.1009
  226loPI   C1B 3613   2.396   1.620   9.799 -0.0386 -0.0143 -0.0656
  226loPI   C2B 3614   2.310   1.668   9.375 -0.1037  0.1899  0.2604
  226loPI   C3B 3615   2.283   1.702   8.902  0.2486 -0.0491  0.1184
  226loPI   C4B 3616   2.316   1.759   8.443 -0.2286  0.1643  0.1443
  227loPI    C1 3617   1.558   6.665  11.480 -0.0188 -0.0562  0.0680
  227loPI    C2 3618   1.641   6.275  11.454  0.0408 -0.0463  0.1071
  227loPI    C3 3619   1.609   6.449  11.813  0.2202  0.0275  0.0883
  227loPI   PO4 3620   1.555   6.695  11.190 -0.1898 -0.0750 -0.1724
  227loPI   GL1 3621   1.687   6.556  10.834 -0.0188  0.2089  0.0137
  227loPI   GL2 3622   1.618   6.267  10.528  0.0583  0.0031 -0.0746
  227loPI   C1A 3623   1.419   6.719  10.551 -0.2135 -0.4567  0.0047
  227loPI   C2A 3624   1.240   6.728  10.112  0.0174 -0.0258  0.0962
  227loPI   C3A 3625   1.177   6.680   9.732  0.0498  0.1478  0.2768
  227loPI   C4A 3626   1.307   6.559   9.369  0.0634 -0.1161  0.0090
  227loPI   C5A 3627   1.524   6.626   8.900  0.3284  0.0299 -0.1156
  227loPI   C6A 3628   1.508   6.707   8.448 -0.0350  0.0890  0.0841
  227loPI   C1B 3629   1.544   6.381  10.212 -0.2346  0.1118 -0.2115
  227loPI   C2B 3630   1.563   6.315   9.773  0.3963 -0.1270 -0.2636
  227loPI   C3B 3631   1.399   6.039   9.501  0.1848  0.1380 -0.1127
  227loPI   C4B 3632   1.220   5.728   9.363  0.0386 -0.1271 -0.0439
  228loPI    C1 3633   6.974  11.258  10.944 -0.1639 -0.0018 -0.2149
  228loPI    C2 3634   6.822  11.507  11.217  0.1157 -0.0157 -0.0431
  228loPI    C3 3635   7.032  11.187  11.333 -0.1581 -0.2815 -0.2647
  228loPI   PO4 3636   6.981  11.380  10.753  0.1562 -0.3695  0.2696
  228loPI   GL1 3637   7.020  11.002  10.480  0.2170 -0.2888 -0.1914
  228loPI   GL2 3638   7.153  11.218  10.324 -0.2605  0.0273 -0.2117
  228loPI   C1A 3639   6.738  10.943  10.161 -0.1554 -0.0379 -0.1469
  228loPI   C2A 3640   6.805  10.950   9.785  0.2263  0.0510  0.1452
  228loPI   C3A 3641   6.777  10.906   9.303 -0.3133 -0.1905  0.0294
  228loPI   C4A 3642   6.783  10.942   8.857 -0.0465  0.0769  0.0831
  228loPI   C5A 3643   6.854  11.063   8.399 -0.3598  0.1880 -0.1757
  228loPI   C6A 3644   6.984  10.898   8.042  0.1372 -0.0268 -0.0456
  228loPI   C1B 3645   7.251  11.052   9.978 -0.0304 -0.1989  0.0546
  228loPI   C2B 3646   7.277  11.108   9.585  0.1034 -0.2639  0.1420
  228loPI   C3B 3647   7.263  11.085   9.150 -0.0308 -0.0480  0.0387
  228loPI   C4B 3648   7.245  11.045   8.714 -0.3943  0.3676 -0.1679
  229loPI    C1 3649   8.421  10.535  11.146  0.2786 -0.0154 -0.1745
  229loPI    C2 3650   8.472  10.880  10.950  0.0462  0.1087 -0.0212
  229loPI    C3 3651   8.418  10.882  11.346  0.1229 -0.1113 -0.0085
  229loPI   PO4 3652   8.233  10.400  11.069  0.6029 -0.0342  0.0520
  229loPI   GL1 3653   8.043  10.554  10.801  0.0201 -0.3422  0.1621
  229loPI   GL2 3654   8.192  10.234  10.578 -0.0751  0.1502  0.0761
  229loPI   C1A 3655   8.042  10.827  10.490 -0.1524  0.2250 -0.1513
  229loPI   C2A 3656   8.098  10.741  10.034  0.1498 -0.3872 -0.0528
  229loPI   C3A 3657   8.051  10.686   9.662  0.0599 -0.1360  0.1089
  229loPI   C4A 3658   8.003  10.742   9.279 -0.3269 -0.6681 -0.3366
  229loPI   C5A 3659   8.041  10.666   8.804  0.3095  0.0346  0.1234
  229loPI   C6A 3660   7.905  10.644   8.375  0.0820 -0.0035  0.0292
  229loPI   C1B 3661   8.394  10.336  10.230 -0.3370 -0.1858  0.3880
  229loPI   C2B 3662   8.371  10.349   9.760 -0.0847  0.2168  0.1462
  229loPI   C3B 3663   8.323  10.340   9.309 -0.2060  0.1052  0.0906
  229loPI   C4B 3664   8.446  10.356   8.912  0.0164  0.0067 -0.1022
  230loPI    C1 3665  13.808   8.545  11.113 -0.0216 -0.1434  0.0029
  230loPI    C2 3666  14.070   8.712  11.365 -0.0868 -0.0369  0.0002
  230loPI    C3 3667  13.859   8.393  11.480  0.0724 -0.1475 -0.0115
  230loPI   PO4 3668  13.993   8.592  10.877 -0.0463 -0.0356  0.3430
  230loPI   GL1 3669  14.073   8.697  10.471 -0.1001 -0.0468  0.0002
  230loPI   GL2 3670  13.913   8.594  10.230  0.1053  0.0727 -0.0244
  230loPI   C1A 3671  14.427   8.611  10.153  0.1196  0.0904  0.1705
  230loPI   C2A 3672  14.512   8.587   9.704  0.2621  0.2338 -0.1884
  230loPI   C3A 3673  14.563   8.619   9.303 -0.1735  0.1680  0.0038
  230loPI   C4A 3674  14.604   8.533   8.815  0.0812  0.1074  0.1235
  230loPI   C5A 3675  14.586   8.620   8.375  0.1146  0.0867 -0.1389
  230loPI   C6A 3676  14.330   8.605   8.033  0.2800  0.0539 -0.0219
  230loPI   C1B 3677  13.961   8.671   9.876  0.0925 -0.3923 -0.0701
  230loPI   C2B 3678  14.020   8.739   9.456 -0.3469  0.0303 -0.2617
  230loPI   C3B 3679  14.117   8.747   9.038  0.2188 -0.0680 -0.2288
  230loPI   C4B 3680  14.145   8.520   8.567 -0.1576  0.1111  0.0757
  231loPI    C1 3681  13.695   7.067  11.042 -0.3031  0.0194 -0.2112
  231loPI    C2 3682  13.841   7.421  11.157 -0.1667 -0.0738 -0.0937
  231loPI    C3 3683  13.527   7.263  11.347 -0.0729 -0.1298  0.0164
  231loPI   PO4 3684  13.699   7.039  10.799 -0.2024  0.2952 -0.3284
  231loPI   GL1 3685  13.546   7.208  10.446  0.0414 -0.0900 -0.0651
  231loPI   GL2 3686  13.918   7.242  10.373 -0.2515  0.0844 -0.0967
  231loPI   C1A 3687  13.554   7.414  10.080  0.1983  0.4248 -0.1509
  231loPI   C2A 3688  13.587   7.399   9.589  0.0475  0.1827  0.1087
  231loPI   C3A 3689  13.654   7.368   9.229  0.1588  0.1569 -0.0762
  231loPI   C4A 3690  13.658   7.325   8.830 -0.1877  0.3018 -0.1179
  231loPI   C5A 3691  13.826   7.195   8.448 -0.1669  0.0970 -0.0586
  231loPI   C6A 3692  13.874   7.039   7.995  0.2285  0.2666  0.0611
  231loPI   C1B 3693  14.066   7.360   9.861  0.1248  0.0444 -0.0323
  231loPI   C2B 3694  14.109   7.315   9.561  0.0329 -0.1144 -0.1048
  231loPI   C3B 3695  14.123   7.332   9.152  0.0956  0.2651 -0.0203
  231loPI   C4B 3696  14.185   7.325   8.765  0.0352 -0.2264  0.0550
  232loPI    C1 3697  10.049  16.504  10.778  0.1408 -0.1007 -0.1345
  232loPI    C2 3698  10.242  16.813  10.941  0.0867 -0.1013 -0.0688
  232loPI    C3 3699  10.206  16.471  11.144 -0.2621  0.0039  0.0536
  232loPI   PO4 3700  10.051  16.518  10.580 -0.0501 -0.1255  0.1228
  232loPI   GL1 3701   9.947  16.732  10.275 -0.2190 -0.3051 -0.0091
  232loPI   GL2 3702  10.024  16.951  10.055  0.1266 -0.2636 -0.1568
  232loPI   C1A 3703   9.808  16.465   9.939  0.1512 -0.3160 -0.1022
  232loPI   C2A 3704   9.751  16.372   9.541 -0.0526 -0.2992  0.1887
  232loPI   C3A 3705   9.757  16.499   9.115 -0.0767 -0.2564 -0.0745
  232loPI   C4A 3706   9.798  16.454   8.661 -0.0319  0.1728  0.0983
  232loPI   C5A 3707   9.588  16.423   8.246  0.2529 -0.1005 -0.4195
  232loPI   C6A 3708   9.328  16.676   8.097 -0.1553  0.2081  0.0148
  232loPI   C1B 3709   9.988  16.908   9.688  0.0851  0.2228  0.0766
  232loPI   C2B 3710   9.964  16.915   9.259  0.0960  0.2963 -0.3462
  232loPI   C3B 3711   9.957  16.936   8.844  0.0716  0.0513  0.0994
  232loPI   C4B 3712   9.771  16.834   8.379 -0.1991  0.1032  0.2962
  233loPI    C1 3713  11.826   9.391  10.885 -0.1273 -0.1725 -0.0776
  233loPI    C2 3714  11.913   9.023  11.015  0.0465 -0.1592 -0.1526
  233loPI    C3 3715  11.853   9.319  11.277  0.0431 -0.2102 -0.0955
  233loPI   PO4 3716  11.886   9.412  10.628  0.0318 -0.2297  0.2604
  233loPI   GL1 3717  11.681   9.267  10.224  0.0472 -0.0391  0.0747
  233loPI   GL2 3718  11.461   9.435  10.095 -0.1866  0.1553  0.1228
  233loPI   C1A 3719  11.584   8.994   9.829 -0.0934  0.3473 -0.2290
  233loPI   C2A 3720  11.734   8.862   9.393 -0.0852 -0.2577 -0.1394
  233loPI   C3A 3721  11.935   8.833   9.066 -0.0741  0.0747 -0.2373
  233loPI   C4A 3722  11.952   9.048   8.649 -0.0969 -0.2650 -0.0652
  233loPI   C5A 3723  12.220   8.888   8.286  0.1944  0.0364 -0.0469
  233loPI   C6A 3724  12.582   8.613   8.198  0.0575  0.0329 -0.0454
  233loPI   C1B 3725  11.446   9.449   9.578 -0.1010 -0.1203 -0.1554
  233loPI   C2B 3726  11.652   9.350   9.197 -0.2514  0.1409 -0.0376
  233loPI   C3B 3727  11.583   9.380   8.699 -0.1529 -0.1008  0.2788
  233loPI   C4B 3728  11.527   9.401   8.256 -0.0360 -0.2528 -0.0517
  234loPI    C1 3729  10.216   4.383  10.728 -0.1800 -0.0176  0.1846
  234loPI    C2 3730  10.124   4.558  11.076  0.0062  0.2256  0.1144
  234loPI    C3 3731  10.396   4.264  11.065 -0.6570 -0.4243  0.3069
  234loPI   PO4 3732  10.136   4.681  10.588  0.2109  0.2069 -0.2369
  234loPI   GL1 3733  10.043   4.690  10.114  0.0336 -0.0812 -0.0044
  234loPI   GL2 3734   9.915   4.912  10.189 -0.2530 -0.3362  0.1673
  234loPI   C1A 3735  10.189   4.745   9.706  0.1263  0.0435 -0.0815
  234loPI   C2A 3736  10.614   4.867   9.519  0.0480 -0.1695 -0.2185
  234loPI   C3A 3737  10.895   4.816   9.306 -0.1699 -0.1086  0.1639
  234loPI   C4A 3738  11.315   4.866   9.119  0.0875  0.0845  0.1332
  234loPI   C5A 3739  11.489   4.751   8.714 -0.2560  0.0021  0.2155
  234loPI   C6A 3740  11.557   4.435   8.429 -0.2454 -0.2631  0.0117
  234loPI   C1B 3741   9.752   4.976   9.782  0.1125 -0.2681 -0.0243
  234loPI   C2B 3742   9.693   5.053   9.319  0.1883 -0.2106 -0.0951
  234loPI   C3B 3743   9.859   5.236   8.965 -0.0858  0.3464 -0.0858
  234loPI   C4B 3744  10.085   4.999   8.590 -0.1480 -0.0316 -0.1185
  235loPI    C1 3745   7.530   4.816  10.918  0.0406 -0.0779 -0.1423
  235loPI    C2 3746   7.807   4.676  11.171  0.0223 -0.0585 -0.1116
  235loPI    C3 3747   7.421   4.678  11.278  0.0087 -0.0985 -0.1598
  235loPI   PO4 3748   7.593   4.727  10.601  0.2422 -0.0574  0.1251
  235loPI   GL1 3749   7.736   4.801  10.224  0.1040 -0.0211  0.0691
  235loPI   GL2 3750   7.955   4.492  10.217  0.1040  0.2119  0.1557
  235loPI   C1A 3751   7.610   4.742   9.836 -0.1034  0.0506  0.2744
  235loPI   C2A 3752   7.692   4.770   9.383 -0.1455  0.0289  0.0290
  235loPI   C3A 3753   7.731   4.693   8.951 -0.1452  0.0514  0.3162
  235loPI   C4A 3754   7.624   4.738   8.502  0.2774  0.1883  0.0192
  235loPI   C5A 3755   7.517   4.758   8.155  0.2676 -0.0918 -0.0784
  235loPI   C6A 3756   7.616   4.807   7.745 -0.1499  0.1006 -0.0154
  235loPI   C1B 3757   8.025   4.399   9.792  0.4210 -0.0267 -0.2083
  235loPI   C2B 3758   7.989   4.294   9.371 -0.1574  0.0012 -0.3112
  235loPI   C3B 3759   7.959   4.293   8.964  0.0450 -0.3956  0.1497
  235loPI   C4B 3760   7.932   4.341   8.603 -0.0284 -0.0799 -0.2981
  236loPI    C1 3761   2.992   0.977  11.237 -0.0585  0.2410 -0.1607
  236loPI    C2 3762   2.752   0.660  11.282  0.1782  0.0704 -0.0768
  236loPI    C3 3763   2.763   0.944  11.563  0.0671  0.0847 -0.0866
  236loPI   PO4 3764   3.192   0.901  10.997  0.0705  0.0782  0.0659
  236loPI   GL1 3765   3.097   0.888  10.541  0.1737 -0.0242 -0.0633
  236loPI   GL2 3766   3.353   0.658  10.282 -0.0536 -0.2363 -0.0890
  236loPI   C1A 3767   3.055   1.009  10.043 -0.0312  0.0784  0.1346
  236loPI   C2A 3768   3.044   1.110   9.597 -0.1641 -0.2730  0.1683
  236loPI   C3A 3769   2.945   1.090   9.199 -0.2324 -0.1539  0.2340
  236loPI   C4A 3770   3.092   1.296   9.017 -0.1822  0.0402 -0.0788
  236loPI   C5A 3771   3.349   1.345   8.737  0.2349 -0.2002 -0.1068
  236loPI   C6A 3772   3.495   1.210   8.253  0.4009  0.0183  0.1171
  236loPI   C1B 3773   3.269   0.603   9.804  0.0689 -0.0742  0.0047
  236loPI   C2B 3774   3.199   0.672   9.399 -0.0463  0.0745 -0.1815
  236loPI   C3B 3775   3.183   0.694   8.960  0.0393  0.2603  0.0548
  236loPI   C4B 3776   3.115   0.836   8.486 -0.0377  0.3325 -0.3617
  237loPI    C1 3777   2.082   5.185  11.027 -0.1804  0.1483 -0.1227
  237loPI    C2 3778   2.204   5.566  11.026  0.1785  0.0372 -0.1931
  237loPI    C3 3779   2.219   5.352  11.364  0.0394  0.0646 -0.1689
  237loPI   PO4 3780   2.084   5.172  10.718 -0.0202 -0.1267 -0.0759
  237loPI   GL1 3781   1.945   5.407  10.330 -0.1876 -0.0733 -0.0425
  237loPI   GL2 3782   1.677   5.311  10.429  0.2104  0.1899  0.0732
  237loPI   C1A 3783   2.111   5.394   9.951  0.0727 -0.2224 -0.2109
  237loPI   C2A 3784   2.053   5.138   9.587  0.1549 -0.0468  0.2000
  237loPI   C3A 3785   1.978   5.260   9.183  0.0231 -0.0614  0.2153
  237loPI   C4A 3786   1.922   5.276   8.791 -0.0118  0.0238 -0.1103
  237loPI   C5A 3787   1.756   5.602   8.363 -0.1273 -0.0838 -0.2293
  237loPI   C6A 3788   1.924   5.786   7.996 -0.2230 -0.0155 -0.2278
  237loPI   C1B 3789   1.623   5.236   9.972  0.2743  0.0870  0.1443
  237loPI   C2B 3790   1.558   5.274   9.579 -0.2941 -0.1107 -0.1062
  237loPI   C3B 3791   1.473   5.298   9.191 -0.0886 -0.1481 -0.0399
  237loPI   C4B 3792   1.534   5.505   8.825 -0.0341  0.1013  0.0735
  238loPI    C1 3793  15.414  12.726  11.141  0.2578  0.0907 -0.1157
  238loPI    C2 3794  15.796  12.845  11.163  0.2477  0.0942  0.0549
  238loPI    C3 3795  15.676  12.519  11.363  0.1849  0.0300 -0.0859
  238loPI   PO4 3796  15.365  12.829  10.878  0.0811 -0.0467 -0.2732
  238loPI   GL1 3797  15.235  12.804  10.519  0.1297  0.0745  0.5699
  238loPI   GL2 3798  15.450  12.560  10.381 -0.0590 -0.0757 -0.2057
  238loPI   C1A 3799  15.288  13.103  10.199  0.2845  0.3578  0.1699
  238loPI   C2A 3800  15.332  13.088   9.744  0.3780  0.0007  0.0120
  238loPI   C3A 3801  15.272  13.151   9.403  0.0919  0.0384  0.3372
  238loPI   C4A 3802  15.247  13.086   8.980  0.0844  0.1668  0.3439
  238loPI   C5A 3803  15.186  13.137   8.493  0.0919 -0.0744 -0.0470
  238loPI   C6A 3804  15.324  12.909   8.267 -0.0701 -0.1416 -0.1993
  238loPI   C1B 3805  15.483  12.665   9.972  0.1031  0.1527  0.2979
  238loPI   C2B 3806  15.488  12.576   9.570 -0.0567  0.1115  0.0305
  238loPI   C3B 3807  15.560  12.709   9.210 -0.1302  0.1197 -0.1086
  238loPI   C4B 3808  15.523  12.629   8.835 -0.0983 -0.0826  0.2477
  239loPI    C1 3809  14.742  15.584  11.134  0.1981  0.0380 -0.0852
  239loPI    C2 3810  14.674  15.867  11.409  0.1021 -0.0548 -0.0125
  239loPI    C3 3811  15.016  15.659  11.416  0.0219 -0.1839  0.1505
  239loPI   PO4 3812  14.736  15.666  10.922  0.1719 -0.1727  0.0963
  239loPI   GL1 3813  14.448  15.686  10.580  0.1979  0.1337 -0.0467
  239loPI   GL2 3814  14.323  15.377  10.637 -0.0913  0.2434 -0.2731
  239loPI   C1A 3815  14.469  15.715  10.153  0.3678 -0.0478  0.2811
  239loPI   C2A 3816  14.462  15.825   9.718 -0.3547 -0.2153 -0.4602
  239loPI   C3A 3817  14.431  15.907   9.290 -0.1560  0.0646 -0.1139
  239loPI   C4A 3818  14.443  15.870   8.857 -0.0083  0.2650 -0.0616
  239loPI   C5A 3819  14.451  15.796   8.536 -0.1794  0.2077  0.0272
  239loPI   C6A 3820  14.278  15.610   8.071 -0.0177  0.0570 -0.2171
  239loPI   C1B 3821  14.224  15.278  10.227 -0.1241 -0.1305 -0.1007
  239loPI   C2B 3822  14.059  15.343   9.840 -0.0424  0.0247 -0.1617
  239loPI   C3B 3823  14.193  15.433   9.493 -0.3716  0.1038 -0.1827
  239loPI   C4B 3824  14.169  15.509   9.091 -0.0848 -0.0309  0.0512
  240loPI    C1 3825  11.367  11.173  11.224  0.0272 -0.2956 -0.1936
  240loPI    C2 3826  11.565  10.932  11.475 -0.0514 -0.2072 -0.0454
  240loPI    C3 3827  11.166  10.946  11.485 -0.0418  0.0445  0.0546
  240loPI   PO4 3828  11.402  11.104  11.001 -0.0296 -0.0921  0.0040
  240loPI   GL1 3829  11.486  11.429  10.733 -0.1463 -0.0374  0.0996
  240loPI   GL2 3830  11.490  11.747  10.685  0.2165 -0.0691  0.0268
  240loPI   C1A 3831  11.532  11.294  10.301  0.0094 -0.0239 -0.1896
  240loPI   C2A 3832  11.646  11.260   9.774  0.2276 -0.1298 -0.1492
  240loPI   C3A 3833  11.616  11.251   9.333  0.1644 -0.0474 -0.2027
  240loPI   C4A 3834  11.751  11.137   8.928  0.2602  0.1675  0.0041
  240loPI   C5A 3835  11.535  10.823   8.536 -0.1241  0.0037  0.1275
  240loPI   C6A 3836  11.062  10.780   8.465  0.3760 -0.0853  0.0605
  240loPI   C1B 3837  11.276  11.753  10.382 -0.0793 -0.0286  0.1070
  240loPI   C2B 3838  11.267  11.601   9.963 -0.2582 -0.3307  0.2197
  240loPI   C3B 3839  11.243  11.638   9.559 -0.1402  0.0785 -0.3666
  240loPI   C4B 3840  11.342  11.610   9.122 -0.1858  0.0321 -0.1525
  241loPI    C1 3841   3.043   8.908  11.298 -0.0244  0.0203  0.1135
  241loPI    C2 3842   3.352   8.670  11.386 -0.0676 -0.0811 -0.0062
  241loPI    C3 3843   3.267   8.982  11.621  0.1176 -0.0599  0.0344
  241loPI   PO4 3844   2.946   8.698  11.130 -0.0142  0.0259 -0.0246
  241loPI   GL1 3845   2.825   8.436  10.713 -0.0226  0.0596  0.4417
  241loPI   GL2 3846   2.719   8.193  10.691  0.1518 -0.4297  0.0371
  241loPI   C1A 3847   2.821   8.584  10.255 -0.2989 -0.1437  0.0074
  241loPI   C2A 3848   2.794   8.568   9.762 -0.1317  0.1185  0.1502
  241loPI   C3A 3849   2.894   8.607   9.417 -0.2016 -0.0049 -0.1386
  241loPI   C4A 3850   2.817   8.523   8.961  0.0031 -0.0064 -0.3416
  241loPI   C5A 3851   3.109   8.538   8.587  0.0653  0.1961  0.1162
  241loPI   C6A 3852   3.355   8.550   8.225  0.0396  0.0501 -0.0266
  241loPI   C1B 3853   2.597   8.048  10.265 -0.1795  0.0168 -0.1756
  241loPI   C2B 3854   2.621   8.049   9.812 -0.2936 -0.1116  0.1542
  241loPI   C3B 3855   2.682   8.141   9.407  0.0785 -0.2544  0.0615
  241loPI   C4B 3856   2.611   8.012   8.985 -0.3760 -0.3431 -0.3866
  242loPI    C1 3857   9.428   8.642  11.456  0.0163  0.0356  0.2389
  242loPI    C2 3858   9.148   8.911  11.359 -0.0319 -0.0202  0.2232
  242loPI    C3 3859   9.262   8.869  11.740  0.1331  0.1756  0.1967
  242loPI   PO4 3860   9.473   8.493  11.130 -0.1992 -0.1412  0.1327
  242loPI   GL1 3861   9.446   8.409  10.688 -0.0991  0.2241 -0.3209
  242loPI   GL2 3862   9.159   8.432  10.440  0.0312  0.1144  0.1426
  242loPI   C1A 3863   9.576   8.239  10.198 -0.0003  0.2786  0.1633
  242loPI   C2A 3864   9.463   8.241   9.784 -0.0904  0.1136 -0.1575
  242loPI   C3A 3865   9.521   8.181   9.349 -0.0742  0.0880 -0.2623
  242loPI   C4A 3866   9.610   8.106   8.997  0.1734  0.2463  0.0496
  242loPI   C5A 3867   9.819   8.116   8.573 -0.0793  0.0620  0.0545
  242loPI   C6A 3868  10.219   8.020   8.383  0.2324 -0.1062  0.0431
  242loPI   C1B 3869   9.231   8.602  10.098  0.0200 -0.1681 -0.1851
  242loPI   C2B 3870   9.247   8.701   9.663  0.0191 -0.0957  0.1794
  242loPI   C3B 3871   9.202   8.518   9.148 -0.0336 -0.0112 -0.1985
  242loPI   C4B 3872   9.253   8.421   8.765  0.1191 -0.2756 -0.1518
  243loPI    C1 3873  17.170  12.662  11.492 -0.1947  0.1020 -0.1935
  243loPI    C2 3874  17.428  12.944  11.610 -0.1629  0.0675 -0.1799
  243loPI    C3 3875  17.207  12.750  11.881  0.0391 -0.1370 -0.1586
  243loPI   PO4 3876  17.350  12.648  11.210  0.2480 -0.0051  0.2831
  243loPI   GL1 3877  17.412  12.870  10.731 -0.2319 -0.0262 -0.2466
  243loPI   GL2 3878  17.800  12.873  10.661  0.0304 -0.0801  0.2540
  243loPI   C1A 3879  17.345  12.938  10.329 -0.0278 -0.3377  0.0788
  243loPI   C2A 3880  17.325  12.929   9.868  0.3387  0.0978  0.0121
  243loPI   C3A 3881  17.356  12.993   9.430  0.2597  0.1046  0.2300
  243loPI   C4A 3882  17.393  12.979   8.973 -0.2399 -0.0388  0.0170
  243loPI   C5A 3883  17.511  13.062   8.576  0.0317  0.2103 -0.2383
  243loPI   C6A 3884  17.590  13.423   8.257 -0.2250 -0.0054  0.1730
  243loPI   C1B 3885  17.872  12.958  10.206 -0.3010 -0.2930  0.1320
  243loPI   C2B 3886  17.802  12.974   9.751 -0.1972  0.2940 -0.2499
  243loPI   C3B 3887  17.910  12.916   9.346  0.1987  0.1142  0.2484
  243loPI   C4B 3888  17.950  12.941   8.902  0.2544 -0.1583 -0.0025
  244loPI    C1 3889   4.435   0.348  10.935  0.1790 -0.1497  0.1020
  244loPI    C2 3890   4.107   0.132  11.011 -0.0491  0.1905  0.1052
  244loPI    C3 3891   4.350   0.238  11.310  0.1666 -0.2158  0.0799
  244loPI   PO4 3892   4.536   0.247  10.724  0.0308 -0.1573  0.0084
  244loPI   GL1 3893   4.490   0.113  10.219 -0.1776 -0.1105  0.0792
  244loPI   GL2 3894   4.841   0.029  10.313 -0.0885 -0.3456 -0.0850
  244loPI   C1A 3895   4.645  -0.208   9.859 -0.1218 -0.2506 -0.0326
  244loPI   C2A 3896   4.660  -0.306   9.490  0.1121 -0.5509 -0.0805
  244loPI   C3A 3897   4.568  -0.265   9.062  0.0652  0.1661 -0.0360
  244loPI   C4A 3898   4.588  -0.245   8.640 -0.0600 -0.0926 -0.1239
  244loPI   C5A 3899   4.874  -0.146   8.236  0.2309  0.1175 -0.1916
  244loPI   C6A 3900   4.975  -0.327   7.782  0.0552 -0.0730 -0.1183
  244loPI   C1B 3901   4.843   0.265   9.873 -0.4258  0.0107 -0.0459
  244loPI   C2B 3902   4.783   0.223   9.395 -0.2016  0.1519  0.0188
  244loPI   C3B 3903   4.647   0.250   8.946 -0.1583  0.1052 -0.2512
  244loPI   C4B 3904   4.719   0.267   8.586  0.1755  0.1833  0.0005
  245loPI    C1 3905  11.845   0.275  11.268 -0.0180  0.2030 -0.1426
  245loPI    C2 3906  12.019   0.434  11.591 -0.0389 -0.1892  0.0680
  245loPI    C3 3907  11.808   0.666  11.343  0.0066  0.1230  0.3146
  245loPI   PO4 3908  12.034   0.141  11.151  0.1437 -0.0490  0.0621
  245loPI   GL1 3909  12.045   0.168  10.745 -0.1832  0.0380  0.2702
  245loPI   GL2 3910  11.950  -0.073  10.613 -0.0061  0.1493 -0.0757
  245loPI   C1A 3911  12.200   0.249  10.400  0.0145 -0.5240 -0.0820
  245loPI   C2A 3912  12.214   0.365   9.937 -0.1211  0.0666 -0.0082
  245loPI   C3A 3913  12.269   0.424   9.496  0.1660  0.2038  0.1302
  245loPI   C4A 3914  12.284   0.347   9.100 -0.2698  0.1740  0.2814
  245loPI   C5A 3915  12.377   0.391   8.787  0.2339  0.1153  0.2844
  245loPI   C6A 3916  12.212   0.114   8.531 -0.2963 -0.1731  0.1222
  245loPI   C1B 3917  11.999  -0.149  10.154 -0.2826  0.0324 -0.1378
  245loPI   C2B 3918  11.964  -0.062   9.731 -0.0781 -0.2203 -0.2927
  245loPI   C3B 3919  11.910  -0.070   9.347 -0.0143 -0.1728 -0.3004
  245loPI   C4B 3920  11.877  -0.172   8.840  0.0217 -0.3940  0.0395
  246loPI    C1 3921  12.448   6.201  11.193  0.0147  0.1457 -0.0102
  246loPI    C2 3922  12.599   5.850  11.313 -0.0733  0.0534 -0.1668
  246loPI    C3 3923  12.241   5.969  11.445 -0.0211  0.1084 -0.0739
  246loPI   PO4 3924  12.554   6.230  10.972  0.3868 -0.1367 -0.0547
  246loPI   GL1 3925  12.442   6.253  10.526 -0.1440  0.0819 -0.0168
  246loPI   GL2 3926  12.604   6.568  10.252  0.0618 -0.0080 -0.0822
  246loPI   C1A 3927  12.091   6.268  10.268  0.4609 -0.1149  0.1469
  246loPI   C2A 3928  12.236   6.118   9.842 -0.0803  0.0409 -0.1534
  246loPI   C3A 3929  12.192   6.178   9.425  0.3323  0.1038  0.0678
  246loPI   C4A 3930  12.151   6.134   9.028 -0.1465 -0.0711 -0.0272
  246loPI   C5A 3931  12.302   6.030   8.735  0.0878 -0.0346 -0.1452
  246loPI   C6A 3932  12.502   5.665   8.567  0.0659  0.1278 -0.3116
  246loPI   C1B 3933  12.485   6.508   9.858 -0.0727 -0.2081  0.1616
  246loPI   C2B 3934  12.476   6.611   9.396 -0.0256  0.1467  0.1263
  246loPI   C3B 3935  12.483   6.569   8.995  0.1346  0.1146  0.0786
  246loPI   C4B 3936  12.484   6.606   8.555 -0.1390 -0.0564  0.0911
  247loPI    C1 3937  12.805   1.503  11.258  0.2307  0.0357 -0.0162
  247loPI    C2 3938  12.945   1.143  11.155  0.1076 -0.1181  0.3373
  247loPI    C3 3939  13.116   1.346  11.454  0.0802  0.0516  0.2392
  247loPI   PO4 3940  12.758   1.634  11.089  0.0725 -0.0445  0.1137
  247loPI   GL1 3941  12.848   1.499  10.756  0.6044  0.0746  0.4423
  247loPI   GL2 3942  13.076   1.597  10.654  0.2304 -0.0245 -0.1173
  247loPI   C1A 3943  12.760   1.202  10.435 -0.1473 -0.1411  0.1519
  247loPI   C2A 3944  12.772   1.136   9.988  0.2180  0.2057  0.0773
  247loPI   C3A 3945  12.705   1.199   9.566 -0.2970 -0.1498 -0.1213
  247loPI   C4A 3946  12.768   1.212   9.088  0.0358  0.0383  0.2770
  247loPI   C5A 3947  12.686   1.313   8.709 -0.0300 -0.1703  0.0436
  247loPI   C6A 3948  12.568   1.391   8.222  0.0767 -0.1866  0.1555
  247loPI   C1B 3949  12.928   1.609  10.257 -0.3000 -0.0014  0.1009
  247loPI   C2B 3950  12.987   1.656   9.809 -0.1604 -0.0440 -0.2916
  247loPI   C3B 3951  12.943   1.644   9.426  0.3865 -0.1404  0.0263
  247loPI   C4B 3952  13.031   1.631   8.953 -0.2983 -0.1545 -0.1331
  248loPI    C1 3953   4.920   1.004  11.101 -0.0448 -0.1209  0.1940
  248loPI    C2 3954   5.174   1.128  11.384  0.0249 -0.0313  0.0929
  248loPI    C3 3955   4.779   1.137  11.452  0.0372  0.0740  0.1544
  248loPI   PO4 3956   5.077   0.949  10.910 -0.1522 -0.2306  0.1334
  248loPI   GL1 3957   5.036   0.965  10.469 -0.3455  0.1048  0.0167
  248loPI   GL2 3958   5.287   1.105  10.272 -0.1834 -0.2214  0.0332
  248loPI   C1A 3959   4.971   0.792  10.002 -0.0203  0.1986 -0.1051
  248loPI   C2A 3960   5.019   0.639   9.626 -0.1715 -0.0586 -0.0169
  248loPI   C3A 3961   4.954   0.660   9.207  0.0393  0.3752 -0.0452
  248loPI   C4A 3962   5.052   0.684   8.824 -0.0934  0.0117 -0.2125
  248loPI   C5A 3963   4.902   0.755   8.348  0.0786 -0.2474 -0.1698
  248loPI   C6A 3964   4.542   0.791   8.019  0.0398 -0.0863 -0.3426
  248loPI   C1B 3965   5.254   1.254   9.884  0.1145 -0.1332 -0.0781
  248loPI   C2B 3966   5.187   1.171   9.477 -0.1425 -0.0462  0.0147
  248loPI   C3B 3967   5.215   1.141   9.079  0.1273  0.1071  0.0926
  248loPI   C4B 3968   5.115   1.201   8.598 -0.1054 -0.0362 -0.3634
  249loPI    C1 3969   4.723  12.050  11.220 -0.0057 -0.1672 -0.1687
  249loPI    C2 3970   4.806  11.725  11.439 -0.2677 -0.0056  0.1803
  249loPI    C3 3971   4.546  11.997  11.575 -0.1679  0.2770 -0.1774
  249loPI   PO4 3972   4.614  12.081  10.961  0.0875  0.0987  0.1481
  249loPI   GL1 3973   4.792  12.224  10.602  0.2117  0.2555 -0.1274
  249loPI   GL2 3974   4.431  12.092  10.493  0.1203 -0.1999  0.0259
  249loPI   C1A 3975   5.064  12.207  10.233 -0.3647 -0.0281  0.1561
  249loPI   C2A 3976   5.122  12.053   9.833  0.1129  0.1647  0.0016
  249loPI   C3A 3977   5.317  12.021   9.353 -0.0344  0.1555 -0.1705
  249loPI   C4A 3978   5.282  12.223   8.973 -0.0741 -0.2092 -0.0851
  249loPI   C5A 3979   5.136  12.308   8.555 -0.0513 -0.0751  0.2204
  249loPI   C6A 3980   5.023  12.036   8.321 -0.0858  0.1764 -0.1543
  249loPI   C1B 3981   4.602  12.058  10.073  0.1100  0.0065  0.0897
  249loPI   C2B 3982   4.600  12.105   9.581  0.1820 -0.2172 -0.2634
  249loPI   C3B 3983   4.773  11.939   9.137 -0.1501  0.2953  0.0322
  249loPI   C4B 3984   4.802  11.974   8.765  0.0720 -0.1762  0.0790
  250loPI    C1 3985  10.962   0.817  11.188 -0.1842  0.0553  0.0715
  250loPI    C2 3986  11.113   0.839  11.558 -0.0889  0.0379  0.0337
  250loPI    C3 3987  10.720   0.881  11.500 -0.0918  0.1410  0.1262
  250loPI   PO4 3988  11.272   0.772  11.081  0.0772 -0.0255 -0.0865
  250loPI   GL1 3989  11.430   0.654  10.725  0.1378  0.6322 -0.1061
  250loPI   GL2 3990  11.636   0.480  10.864  0.0440  0.4724  0.1987
  250loPI   C1A 3991  11.464   0.818  10.386  0.3203  0.1220  0.3204
  250loPI   C2A 3992  11.428   0.888   9.965 -0.0968  0.2827  0.3280
  250loPI   C3A 3993  11.396   0.829   9.507  0.2214 -0.2306 -0.1021
  250loPI   C4A 3994  11.538   0.804   9.057  0.0031  0.0361  0.1543
  250loPI   C5A 3995  11.479   0.803   8.626  0.0068 -0.3021 -0.2005
  250loPI   C6A 3996  11.779   0.797   8.297  0.1390 -0.3022 -0.1664
  250loPI   C1B 3997  11.675   0.374  10.440 -0.1200 -0.0103 -0.1326
  250loPI   C2B 3998  11.685   0.358   9.967  0.0709 -0.1291 -0.1223
  250loPI   C3B 3999  11.723   0.384   9.560  0.0061  0.0098 -0.2454
  250loPI   C4B 4000  11.798   0.369   9.056 -0.0373 -0.3514  0.0265
  251loPI    C1 4001   7.772   9.008  11.202  0.3481 -0.2016  0.0044
  251loPI    C2 4002   7.920   9.310  11.419 -0.1666  0.0185  0.0637
  251loPI    C3 4003   7.820   8.966  11.597  0.0678 -0.0543  0.0572
  251loPI   PO4 4004   7.864   9.049  10.923 -0.0869 -0.0845  0.3773
  251loPI   GL1 4005   7.860   8.861  10.505  0.1921 -0.2997  0.1881
  251loPI   GL2 4006   8.226   8.924  10.542 -0.3643 -0.2214 -0.0008
  251loPI   C1A 4007   7.929   8.751  10.039  0.2991  0.2046  0.1785
  251loPI   C2A 4008   7.847   8.805   9.634  0.1329  0.2140  0.1567
  251loPI   C3A 4009   7.750   8.754   9.193 -0.1704 -0.1758 -0.1554
  251loPI   C4A 4010   7.815   8.909   8.784  0.1798  0.0479 -0.0669
  251loPI   C5A 4011   7.704   9.202   8.448  0.0549 -0.0785  0.0958
  251loPI   C6A 4012   7.446   9.580   8.346  0.0074  0.1007  0.0877
  251loPI   C1B 4013   8.391   8.906  10.150  0.2777 -0.1660  0.0644
  251loPI   C2B 4014   8.305   8.886   9.621  0.1330 -0.1572 -0.0664
  251loPI   C3B 4015   8.431   8.867   9.156  0.0588 -0.0496  0.0553
  251loPI   C4B 4016   8.347   8.876   8.783  0.2294 -0.0739 -0.0084
  252loPI    C1 4017  10.841   4.516  11.218  0.1335  0.1944  0.2578
  252loPI    C2 4018  11.015   4.481  11.576  0.3636  0.2241  0.1507
  252loPI    C3 4019  10.838   4.824  11.473  0.2092  0.1825  0.2734
  252loPI   PO4 4020  10.969   4.300  11.056 -0.0106  0.1086  0.2648
  252loPI   GL1 4021  10.752   4.143  10.729 -0.1844  0.2803 -0.4461
  252loPI   GL2 4022  10.584   4.067  10.486 -0.0253  0.3128 -0.0037
  252loPI   C1A 4023  11.048   4.266  10.413  0.0367  0.0578 -0.0594
  252loPI   C2A 4024  11.118   4.463   9.946 -0.1159 -0.0634 -0.0256
  252loPI   C3A 4025  11.080   4.382   9.549  0.2963  0.2408 -0.0888
  252loPI   C4A 4026  11.086   4.415   9.073 -0.2484 -0.0194 -0.2659
  252loPI   C5A 4027  11.058   4.427   8.655  0.0079 -0.2000 -0.0258
  252loPI   C6A 4028  10.999   4.635   8.284 -0.0672  0.2145  0.1530
  252loPI   C1B 4029  10.700   4.051  10.110  0.0208  0.2036  0.3002
  252loPI   C2B 4030  10.786   3.940   9.655  0.1471  0.0626 -0.1737
  252loPI   C3B 4031  10.791   4.006   9.274 -0.1942 -0.3309 -0.2000
  252loPI   C4B 4032  10.758   4.086   8.878 -0.0460 -0.1691  0.0458
  253loPI    C1 4033  16.577  17.098  11.157  0.2841  0.3478  0.0625
  253loPI    C2 4034  16.745  16.805  11.370 -0.2118  0.0432  0.0516
  253loPI    C3 4035  16.582  17.119  11.556  0.0222  0.1511  0.0788
  253loPI   PO4 4036  16.759  17.157  10.980 -0.1926 -0.0346 -0.1444
  253loPI   GL1 4037  16.902  17.199  10.603 -0.3020  0.0972  0.0005
  253loPI   GL2 4038  17.196  16.964  10.415  0.1295 -0.4847 -0.3110
  253loPI   C1A 4039  16.768  17.060  10.170  0.1526  0.2902  0.0981
  253loPI   C2A 4040  16.876  16.909   9.726 -0.1901 -0.1982 -0.0039
  253loPI   C3A 4041  16.802  16.991   9.254 -0.1065  0.1659  0.2520
  253loPI   C4A 4042  16.812  17.132   8.931  0.0852 -0.1288 -0.2879
  253loPI   C5A 4043  16.546  17.223   8.526 -0.0247  0.2040 -0.3374
  253loPI   C6A 4044  16.510  17.623   8.371 -0.3214  0.0612 -0.0991
  253loPI   C1B 4045  17.296  16.976   9.984 -0.0730  0.1495 -0.1237
  253loPI   C2B 4046  17.340  16.888   9.435 -0.1845  0.2189  0.0328
  253loPI   C3B 4047  17.288  17.091   9.055  0.1650  0.1068 -0.0818
  253loPI   C4B 4048  17.492  17.243   8.696  0.1757  0.1297 -0.2169
  254loPI    C1 4049   6.532  16.198  10.899 -0.0004  0.1668  0.0697
  254loPI    C2 4050   6.211  16.280  11.124 -0.1989  0.0723 -0.1729
  254loPI    C3 4051   6.297  15.901  11.028 -0.0876  0.1081 -0.2165
  254loPI   PO4 4052   6.467  16.285  10.691  0.4058 -0.2856  0.2024
  254loPI   GL1 4053   6.311  16.097  10.383 -0.1431  0.1110 -0.1871
  254loPI   GL2 4054   6.276  16.429  10.214  0.1206 -0.4793  0.1251
  254loPI   C1A 4055   6.539  16.045   9.952  0.1901 -0.0246 -0.0068
  254loPI   C2A 4056   6.587  16.023   9.472  0.0282  0.0316  0.2450
  254loPI   C3A 4057   6.784  16.045   9.094 -0.3289 -0.0221  0.5335
  254loPI   C4A 4058   6.548  16.087   8.727  0.1939 -0.2809  0.2921
  254loPI   C5A 4059   6.644  16.169   8.333 -0.0859  0.0556  0.0029
  254loPI   C6A 4060   7.038  16.568   8.225  0.3765 -0.0696  0.2115
  254loPI   C1B 4061   6.247  16.484   9.842 -0.0331 -0.0234  0.1610
  254loPI   C2B 4062   6.304  16.498   9.363  0.1641  0.1138 -0.1346
  254loPI   C3B 4063   6.509  16.445   9.046 -0.0265  0.0363 -0.1108
  254loPI   C4B 4064   6.572  16.548   8.678  0.2533 -0.1729 -0.1460
  255loPI    C1 4065   6.960  11.972  11.172 -0.1322 -0.0205 -0.1519
  255loPI    C2 4066   6.721  11.891  11.482 -0.0548 -0.0510 -0.1000
  255loPI    C3 4067   6.850  12.265  11.421  0.0914 -0.0806  0.0211
  255loPI   PO4 4068   6.924  11.839  10.881 -0.0644 -0.1358 -0.1306
  255loPI   GL1 4069   6.812  11.922  10.432 -0.2338 -0.4278  0.0657
  255loPI   GL2 4070   6.808  11.648  10.376 -0.0472 -0.1136  0.0410
  255loPI   C1A 4071   7.123  12.018   9.981  0.0505  0.3542 -0.0901
  255loPI   C2A 4072   7.111  11.911   9.563  0.0451  0.1488 -0.5159
  255loPI   C3A 4073   7.221  12.005   9.153  0.1017 -0.0343 -0.0041
  255loPI   C4A 4074   7.160  11.975   8.713  0.0789  0.0713  0.1019
  255loPI   C5A 4075   7.353  11.835   8.391 -0.0139  0.0113  0.0571
  255loPI   C6A 4076   7.382  12.019   8.006 -0.0080  0.1107 -0.1218
  255loPI   C1B 4077   6.927  11.491   9.958 -0.1205  0.2338 -0.2257
  255loPI   C2B 4078   6.908  11.446   9.519 -0.0850 -0.2396 -0.2493
  255loPI   C3B 4079   6.953  11.525   9.194 -0.2172 -0.5306  0.1582
  255loPI   C4B 4080   7.052  11.487   8.741  0.0390  0.2957 -0.0440
  256loPI    C1 4081  15.597   5.803  11.011 -0.0045  0.0835 -0.1163
  256loPI    C2 4082  15.845   5.496  11.077 -0.0771  0.0274 -0.1046
  256loPI    C3 4083  15.449   5.436  11.071 -0.1025  0.1601  0.1234
  256loPI   PO4 4084  15.693   5.939  10.770 -0.1853  0.1963 -0.1154
  256loPI   GL1 4085  15.483   5.885  10.370  0.0287  0.3528  0.0404
  256loPI   GL2 4086  15.308   5.605  10.621 -0.1245 -0.2271  0.2632
  256loPI   C1A 4087  15.275   5.993   9.931  0.0452  0.1443 -0.5381
  256loPI   C2A 4088  15.282   5.936   9.480 -0.1323 -0.1928 -0.0473
  256loPI   C3A 4089  15.433   5.892   9.005 -0.1979  0.1543 -0.1029
  256loPI   C4A 4090  15.399   5.652   8.551  0.0887 -0.2255 -0.2082
  256loPI   C5A 4091  15.654   5.583   8.303  0.0746  0.0598 -0.0377
  256loPI   C6A 4092  15.751   5.297   8.128 -0.1128 -0.3094  0.1270
  256loPI   C1B 4093  15.177   5.296  10.216  0.0777 -0.1326  0.0573
  256loPI   C2B 4094  15.396   5.004   9.984  0.0835  0.1585 -0.2805
  256loPI   C3B 4095  15.290   5.037   9.560  0.0799  0.2990 -0.0551
  256loPI   C4B 4096  15.304   5.076   9.124 -0.2037 -0.0192  0.0636
  257loPI    C1 4097  15.242   7.549  11.262 -0.1568 -0.0683 -0.0938
  257loPI    C2 4098  15.214   7.158  11.179 -0.0343 -0.0248 -0.3512
  257loPI    C3 4099  15.172   7.287  11.556 -0.4319 -0.2480 -0.3139
  257loPI   PO4 4100  15.144   7.667  10.970  0.4782  0.0112  0.1911
  257loPI   GL1 4101  15.193   7.904  10.555  0.0206  0.0972  0.1191
  257loPI   GL2 4102  15.194   7.543  10.472  0.0560 -0.0308  0.1650
  257loPI   C1A 4103  15.192   8.068  10.137  0.2079 -0.1737  0.0328
  257loPI   C2A 4104  15.239   8.087   9.654 -0.0831 -0.1896  0.0104
  257loPI   C3A 4105  15.170   8.156   9.331 -0.0367  0.1948  0.2010
  257loPI   C4A 4106  15.235   8.147   8.878  0.1222 -0.0797  0.3354
  257loPI   C5A 4107  14.890   8.145   8.598 -0.1938  0.0803  0.2699
  257loPI   C6A 4108  15.044   8.405   8.263 -0.0872 -0.2070 -0.0700
  257loPI   C1B 4109  15.160   7.224  10.108 -0.1377 -0.0807  0.1042
  257loPI   C2B 4110  15.189   7.248   9.659 -0.1741  0.1583  0.1016
  257loPI   C3B 4111  15.154   7.248   9.266  0.0835  0.0819 -0.0422
  257loPI   C4B 4112  15.170   7.278   8.823 -0.2439 -0.1598  0.1398
  258loPI    C1 4113   5.632  16.626  10.880 -0.0972  0.0600 -0.0261
  258loPI    C2 4114   5.492  16.313  11.086 -0.0852 -0.0171 -0.1343
  258loPI    C3 4115   5.442  16.684  11.227  0.0320 -0.0769  0.0685
  258loPI   PO4 4116   5.624  16.598  10.689 -0.0619 -0.0399  0.2603
  258loPI   GL1 4117   5.787  16.376  10.333 -0.0911 -0.1793  0.0007
  258loPI   GL2 4118   5.778  16.035  10.318 -0.0130  0.1495  0.0712
  258loPI   C1A 4119   5.779  16.354   9.905  0.1442 -0.0073 -0.4042
  258loPI   C2A 4120   5.811  16.398   9.509 -0.2578 -0.0610 -0.2376
  258loPI   C3A 4121   5.692  16.392   9.160  0.2611 -0.0179  0.1478
  258loPI   C4A 4122   5.461  16.320   8.826  0.2441  0.2119  0.0046
  258loPI   C5A 4123   5.057  16.306   8.660  0.2212  0.0341 -0.1114
  258loPI   C6A 4124   4.987  16.625   8.335 -0.0425 -0.0398  0.0373
  258loPI   C1B 4125   5.983  15.930   9.989 -0.0937  0.0660  0.1011
  258loPI   C2B 4126   6.100  15.982   9.634 -0.2037  0.3206 -0.0982
  258loPI   C3B 4127   6.221  16.011   9.123  0.0991 -0.1095 -0.2666
  258loPI   C4B 4128   6.063  16.312   8.876  0.0108  0.1614  0.4218
  259loPI    C1 4129   5.447   8.964  11.149 -0.1715  0.2211  0.2188
  259loPI    C2 4130   5.467   8.617  11.346 -0.2734 -0.0092 -0.1667
  259loPI    C3 4131   5.309   8.938  11.523 -0.0850 -0.1290  0.2299
  259loPI   PO4 4132   5.646   8.891  10.948 -0.3848 -0.0552 -0.1222
  259loPI   GL1 4133   5.686   8.719  10.604  0.2381  0.1370 -0.1223
  259loPI   GL2 4134   5.725   8.578  10.422  0.2090  0.1528 -0.1957
  259loPI   C1A 4135   5.967   8.939  10.226  0.0243 -0.1086 -0.0051
  259loPI   C2A 4136   5.900   8.941   9.783  0.2064  0.0919  0.0871
  259loPI   C3A 4137   5.908   8.919   9.333  0.0202  0.1022 -0.1192
  259loPI   C4A 4138   5.848   8.947   8.882  0.0577 -0.1890 -0.1298
  259loPI   C5A 4139   6.058   9.049   8.574  0.0235  0.2742  0.0795
  259loPI   C6A 4140   5.984   9.133   8.109  0.2332  0.1680  0.1414
  259loPI   C1B 4141   5.826   8.530   9.994  0.0944  0.0127  0.2549
  259loPI   C2B 4142   5.740   8.498   9.485 -0.0445  0.4529 -0.0291
  259loPI   C3B 4143   5.719   8.505   9.071 -0.1046 -0.1660 -0.1185
  259loPI   C4B 4144   5.885   8.474   8.685  0.3469  0.0529 -0.0121
  260loPI    C1 4145   5.519   5.997  11.486  0.1167 -0.1323 -0.1416
  260loPI    C2 4146   5.216   5.809  11.668 -0.0298  0.1734 -0.0634
  260loPI    C3 4147   5.554   5.612  11.588 -0.2906 -0.2059 -0.2604
  260loPI   PO4 4148   5.456   6.097  11.205  0.0947 -0.0670  0.2092
  260loPI   GL1 4149   5.637   6.059  10.823 -0.0334  0.1726 -0.1686
  260loPI   GL2 4150   5.916   6.204  10.690 -0.0466  0.1746 -0.3590
  260loPI   C1A 4151   5.454   6.094  10.481  0.0918 -0.0442 -0.1095
  260loPI   C2A 4152   5.297   6.130  10.020  0.1064 -0.1862 -0.1028
  260loPI   C3A 4153   5.269   6.147   9.581 -0.2788 -0.0155  0.0686
  260loPI   C4A 4154   5.386   6.076   9.085 -0.0648 -0.1514 -0.1629
  260loPI   C5A 4155   5.371   5.995   8.666  0.0622 -0.0030 -0.1431
  260loPI   C6A 4156   5.047   5.704   8.382  0.0410  0.0739 -0.0709
  260loPI   C1B 4157   5.981   6.259  10.235 -0.2468  0.1045  0.1009
  260loPI   C2B 4158   5.804   6.298   9.755 -0.2379 -0.0283  0.2188
  260loPI   C3B 4159   5.817   6.296   9.263 -0.1909 -0.0120  0.1367
  260loPI   C4B 4160   5.941   6.184   8.846 -0.1788  0.0840 -0.0385
  261loPI    C1 4161   1.972  16.127  10.672 -0.3256 -0.0911  0.2021
  261loPI    C2 4162   1.625  16.314  10.740 -0.1242  0.2689  0.2655
  261loPI    C3 4163   1.862  16.217  11.046 -0.3017 -0.2495  0.2475
  261loPI   PO4 4164   1.903  16.030  10.434 -0.1946 -0.0458 -0.1469
  261loPI   GL1 4165   1.606  15.913  10.167  0.1508  0.1336  0.1696
  261loPI   GL2 4166   1.250  16.081  10.103 -0.0806 -0.1343 -0.0506
  261loPI   C1A 4167   1.585  15.974   9.713  0.3780  0.1465  0.1603
  261loPI   C2A 4168   1.533  15.986   9.315  0.0506  0.0722 -0.0066
  261loPI   C3A 4169   1.615  15.918   8.910  0.1811 -0.0112 -0.4962
  261loPI   C4A 4170   1.575  15.901   8.472  0.0541 -0.1732  0.0402
  261loPI   C5A 4171   1.669  15.754   8.013  0.1251  0.0224 -0.2271
  261loPI   C6A 4172   1.861  15.732   7.653 -0.0412 -0.2654  0.1540
  261loPI   C1B 4173   1.046  16.062   9.792 -0.0055 -0.2192  0.0234
  261loPI   C2B 4174   0.958  16.030   9.340  0.0165 -0.0441 -0.0629
  261loPI   C3B 4175   1.091  15.895   8.895  0.2229  0.0751  0.0127
  261loPI   C4B 4176   1.037  15.957   8.508  0.3137 -0.0669  0.0933
  262loPI    C1 4177  12.214  13.584  11.118 -0.1263  0.1824  0.0213
  262loPI    C2 4178  11.914  13.448  11.344  0.0257 -0.1110  0.0503
  262loPI    C3 4179  12.231  13.620  11.516 -0.0075 -0.0369  0.0375
  262loPI   PO4 4180  12.077  13.723  10.894  0.2083 -0.0069 -0.2371
  262loPI   GL1 4181  11.962  13.783  10.497 -0.1840 -0.0066 -0.1043
  262loPI   GL2 4182  11.750  14.074  10.532  0.1058 -0.0785 -0.0943
  262loPI   C1A 4183  11.988  13.684  10.046  0.0954 -0.1789  0.0953
  262loPI   C2A 4184  12.066  13.648   9.595 -0.0147  0.3002 -0.1442
  262loPI   C3A 4185  12.130  13.490   9.253 -0.0715 -0.1452 -0.0882
  262loPI   C4A 4186  12.156  13.522   8.810 -0.0242 -0.0777 -0.0518
  262loPI   C5A 4187  12.520  13.646   8.432  0.0312 -0.2228  0.0833
  262loPI   C6A 4188  12.885  13.846   8.326 -0.1533  0.0246 -0.1422
  262loPI   C1B 4189  11.675  14.076  10.178  0.1620  0.4073  0.2922
  262loPI   C2B 4190  11.680  14.121   9.735  0.0893  0.0306  0.0989
  262loPI   C3B 4191  11.725  13.962   9.371 -0.5020 -0.1206  0.1792
  262loPI   C4B 4192  11.822  13.862   8.963  0.1451 -0.1556  0.0646
  263loPI    C1 4193   8.552   0.721  10.976  0.0439  0.1338  0.0061
  263loPI    C2 4194   8.218   0.908  11.092  0.0373  0.1025  0.0376
  263loPI    C3 4195   8.541   0.912  11.327  0.0813  0.1908 -0.0236
  263loPI   PO4 4196   8.636   0.886  10.760  0.1485  0.2333 -0.1417
  263loPI   GL1 4197   8.730   1.083  10.386  0.0473  0.1144 -0.0460
  263loPI   GL2 4198   8.721   1.345  10.185 -0.4392 -0.0437 -0.0714
  263loPI   C1A 4199   8.647   0.530  10.104  0.2932 -0.2321 -0.1227
  263loPI   C2A 4200   8.789   0.367   9.687  0.2520 -0.1408 -0.0658
  263loPI   C3A 4201   8.679   0.325   9.262  0.0443 -0.3300 -0.1769
  263loPI   C4A 4202   8.715   0.364   8.896 -0.0118  0.1563  0.0763
  263loPI   C5A 4203   8.454   0.319   8.516 -0.0561  0.0634  0.1361
  263loPI   C6A 4204   8.111   0.290   8.145  0.0824  0.1192 -0.1741
  263loPI   C1B 4205   8.730   1.233   9.763 -0.1018 -0.0373  0.2223
  263loPI   C2B 4206   8.759   1.279   9.249 -0.2199  0.2515 -0.2253
  263loPI   C3B 4207   8.649   1.201   8.771  0.0517  0.0563 -0.1178
  263loPI   C4B 4208   8.688   1.227   8.238  0.0325 -0.2630 -0.0368
  264loPI    C1 4209   5.154  16.568  10.862 -0.0340 -0.1971 -0.0242
  264loPI    C2 4210   4.940  16.855  11.039  0.1933 -0.0302 -0.0164
  264loPI    C3 4211   4.966  16.493  11.207  0.1628  0.0382  0.1370
  264loPI   PO4 4212   5.114  16.663  10.626 -0.1329 -0.3069  0.0380
  264loPI   GL1 4213   5.109  16.546  10.142  0.2520 -0.1106 -0.0896
  264loPI   GL2 4214   5.323  16.425  10.008  0.3102 -0.2268  0.0163
  264loPI   C1A 4215   4.965  16.656   9.689  0.1800  0.0958 -0.3162
  264loPI   C2A 4216   4.651  16.675   9.338  0.1102  0.1447  0.0404
  264loPI   C3A 4217   4.415  17.017   9.020 -0.1604  0.0302  0.0279
  264loPI   C4A 4218   4.438  17.134   8.589  0.0201 -0.1650 -0.1261
  264loPI   C5A 4219   4.394  17.372   8.229  0.0646  0.2595 -0.0191
  264loPI   C6A 4220   4.198  17.283   7.876 -0.0993  0.1071 -0.0853
  264loPI   C1B 4221   5.283  16.230   9.608  0.0741 -0.3796  0.2533
  264loPI   C2B 4222   4.987  16.336   9.276 -0.0521 -0.1230  0.0518
  264loPI   C3B 4223   4.688  16.280   8.989  0.1488  0.0298  0.0490
  264loPI   C4B 4224   4.393  16.563   8.855  0.5137 -0.1309  0.0182
  265loPI    C1 4225   1.364  10.324  11.191 -0.0199  0.0887 -0.0156
  265loPI    C2 4226   1.666  10.124  11.361  0.0370 -0.0143 -0.2337
  265loPI    C3 4227   1.289  10.003  11.417  0.0277  0.1564  0.0971
  265loPI   PO4 4228   1.437  10.314  10.973  0.0010  0.1733 -0.0082
  265loPI   GL1 4229   1.391  10.307  10.624  0.1400  0.0039  0.2986
  265loPI   GL2 4230   1.286  10.012  10.631 -0.1633 -0.1476 -0.3141
  265loPI   C1A 4231   1.387  10.425  10.211 -0.0661 -0.0052 -0.2304
  265loPI   C2A 4232   1.269  10.414   9.793 -0.0081 -0.0028 -0.2295
  265loPI   C3A 4233   1.241  10.598   9.454  0.0474  0.1643  0.2226
  265loPI   C4A 4234   1.276  10.558   8.986  0.0935 -0.1957 -0.4093
  265loPI   C5A 4235   1.072  10.452   8.606  0.1671 -0.1266 -0.3477
  265loPI   C6A 4236   0.664  10.426   8.649 -0.0579 -0.0128  0.3430
  265loPI   C1B 4237   1.278   9.889  10.204 -0.1267 -0.3248  0.3049
  265loPI   C2B 4238   1.145   9.816   9.820 -0.0267  0.0737 -0.0736
  265loPI   C3B 4239   1.198   9.687   9.378  0.0260 -0.0829  0.1599
  265loPI   C4B 4240   1.472   9.688   9.064 -0.0098  0.0432  0.3744
  266loPI    C1 4241  10.856   3.375  10.992 -0.0945  0.2179 -0.0107
  266loPI    C2 4242  10.537   3.304  11.222  0.0522 -0.0381  0.1184
  266loPI    C3 4243  10.880   3.424  11.388  0.0352  0.2020 -0.0161
  266loPI   PO4 4244  10.757   3.490  10.774 -0.4079 -0.2663  0.1321
  266loPI   GL1 4245  10.764   3.497  10.343  0.0496  0.0437 -0.2433
  266loPI   GL2 4246  10.957   3.735  10.353 -0.0031  0.1589  0.1795
  266loPI   C1A 4247  10.506   3.608   9.988 -0.1222 -0.4258  0.1185
  266loPI   C2A 4248  10.452   3.466   9.516  0.1073  0.0560 -0.0657
  266loPI   C3A 4249  10.527   3.598   9.097 -0.2820  0.1184 -0.1274
  266loPI   C4A 4250  10.478   3.569   8.685  0.1722 -0.2183 -0.0740
  266loPI   C5A 4251  10.330   3.401   8.301  0.1168 -0.3175 -0.1787
  266loPI   C6A 4252  10.436   3.225   7.949  0.0889 -0.3171  0.1695
  266loPI   C1B 4253  11.024   3.537   9.938  0.0585  0.0611  0.1330
  266loPI   C2B 4254  11.105   3.440   9.470 -0.0088 -0.1152 -0.1921
  266loPI   C3B 4255  11.042   3.496   8.963  0.0030  0.0807  0.0268
  266loPI   C4B 4256  10.998   3.575   8.499  0.1504  0.4471 -0.1445
  267loPI    C1 4257  17.340   5.846  11.113  0.0162  0.1429 -0.1439
  267loPI    C2 4258  17.286   5.558  11.385 -0.0538  0.0370 -0.2682
  267loPI    C3 4259  17.499   5.884  11.478  0.0048 -0.0428 -0.1185
  267loPI   PO4 4260  17.425   5.670  10.862  0.2725  0.2338  0.3250
  267loPI   GL1 4261  17.561   5.504  10.480  0.0929  0.0703 -0.0808
  267loPI   GL2 4262  17.211   5.391  10.473 -0.0693 -0.1266  0.0626
  267loPI   C1A 4263  17.574   5.819  10.162 -0.0308 -0.0471 -0.1660
  267loPI   C2A 4264  17.549   5.818   9.760 -0.2761  0.0044 -0.2675
  267loPI   C3A 4265  17.472   5.800   9.328 -0.1155  0.0672 -0.3947
  267loPI   C4A 4266  17.395   5.903   8.861  0.1304  0.1575 -0.5447
  267loPI   C5A 4267  17.612   6.083   8.625 -0.1728 -0.1962  0.1046
  267loPI   C6A 4268  17.566   6.332   8.176  0.1273  0.0385 -0.1028
  267loPI   C1B 4269  17.264   5.354   9.958  0.0957  0.0844  0.0405
  267loPI   C2B 4270  17.311   5.379   9.486  0.0283 -0.2028  0.2199
  267loPI   C3B 4271  17.220   5.410   9.016  0.0961 -0.0955 -0.1736
  267loPI   C4B 4272  17.301   5.492   8.569 -0.0673  0.4166  0.0511
  268loPI    C1 4273   3.008  13.684  10.994  0.2226 -0.0267  0.0155
  268loPI    C2 4274   2.710  13.661  11.259 -0.0650  0.1775 -0.2812
  268loPI    C3 4275   3.088  13.610  11.378 -0.2121 -0.0577  0.1055
  268loPI   PO4 4276   2.903  13.847  10.794  0.1080  0.0624 -0.2539
  268loPI   GL1 4277   2.922  13.753  10.350  0.0688  0.1570 -0.2347
  268loPI   GL2 4278   2.619  13.757  10.360 -0.0784  0.1273  0.2020
  268loPI   C1A 4279   3.232  13.715   9.995  0.0398  0.2487 -0.1205
  268loPI   C2A 4280   3.304  13.642   9.625 -0.2593 -0.0733 -0.0421
  268loPI   C3A 4281   3.240  13.601   9.185 -0.0172  0.2058  0.0747
  268loPI   C4A 4282   3.497  13.558   8.887  0.0570  0.2134 -0.0922
  268loPI   C5A 4283   3.808  13.499   8.542 -0.2559  0.1005  0.0365
  268loPI   C6A 4284   3.971  13.179   8.284  0.0402  0.1876  0.1965
  268loPI   C1B 4285   2.775  13.603   9.893  0.3733  0.1155  0.0068
  268loPI   C2B 4286   2.794  13.519   9.369  0.0569 -0.0032 -0.1325
  268loPI   C3B 4287   2.829  13.547   8.909 -0.2063  0.0461 -0.0798
  268loPI   C4B 4288   3.091  13.378   8.601 -0.3019  0.0294 -0.4740
  269loPI    C1 4289  16.936  14.849  11.032  0.1927  0.2225  0.1064
  269loPI    C2 4290  17.125  14.551  11.220 -0.0258  0.0327  0.0295
  269loPI    C3 4291  16.827  14.745  11.402 -0.0898 -0.0032 -0.0361
  269loPI   PO4 4292  17.118  14.974  10.864  0.3953  0.0025 -0.2607
  269loPI   GL1 4293  16.974  15.223  10.521  0.0540  0.0439  0.1231
  269loPI   GL2 4294  17.222  15.203  10.425 -0.1802  0.3000  0.0559
  269loPI   C1A 4295  16.760  15.223  10.205  0.0249 -0.2664  0.2195
  269loPI   C2A 4296  16.768  15.221   9.756 -0.0613 -0.2553  0.1458
  269loPI   C3A 4297  16.737  15.291   9.234  0.1554  0.2068 -0.2118
  269loPI   C4A 4298  16.620  15.292   8.801  0.0601 -0.1699 -0.0588
  269loPI   C5A 4299  16.759  15.166   8.371 -0.0935  0.3745 -0.0763
  269loPI   C6A 4300  16.619  14.878   7.958  0.1562  0.0970 -0.0761
  269loPI   C1B 4301  17.290  15.160   9.979 -0.0615 -0.3837 -0.2144
  269loPI   C2B 4302  17.251  15.130   9.534 -0.0793 -0.1295 -0.1957
  269loPI   C3B 4303  17.233  15.246   9.128 -0.1979 -0.1213  0.2232
  269loPI   C4B 4304  17.159  15.259   8.715 -0.3559 -0.0383  0.0714
  270loPI    C1 4305   2.259  11.378  10.950 -0.1028  0.0618  0.0629
  270loPI    C2 4306   2.015  11.572  11.201  0.0049  0.0159  0.2041
  270loPI    C3 4307   1.972  11.179  11.145 -0.1321  0.0566  0.0145
  270loPI   PO4 4308   2.310  11.559  10.738  0.4917  0.3186  0.1994
  270loPI   GL1 4309   2.666  11.429  10.405 -0.0562 -0.4118  0.0326
  270loPI   GL2 4310   2.939  11.317  10.406  0.0694  0.1406 -0.0945
  270loPI   C1A 4311   2.834  11.360   9.953 -0.1145  0.1251  0.0843
  270loPI   C2A 4312   2.908  11.351   9.509  0.0277  0.0545 -0.1736
  270loPI   C3A 4313   3.023  11.310   9.204 -0.1470  0.0607 -0.0448
  270loPI   C4A 4314   3.037  11.244   8.768  0.1692 -0.0627 -0.0487
  270loPI   C5A 4315   2.806  11.371   8.410 -0.1402  0.2158  0.1780
  270loPI   C6A 4316   2.389  11.620   8.354 -0.4598  0.3497  0.3185
  270loPI   C1B 4317   3.181  11.026  10.236 -0.1765  0.2703 -0.0387
  270loPI   C2B 4318   3.311  10.931   9.791  0.2299  0.3760 -0.0467
  270loPI   C3B 4319   3.245  10.911   9.390 -0.1910 -0.1442 -0.1798
  270loPI   C4B 4320   3.281  10.859   8.886 -0.0730 -0.0107  0.0447
  271loPI    C1 4321   4.429  15.443  10.915  0.0261  0.0362  0.2778
  271loPI    C2 4322   4.202  15.655  11.168 -0.0925  0.0652  0.1484
  271loPI    C3 4323   4.399  15.332  11.298  0.2912  0.3947  0.4072
  271loPI   PO4 4324   4.341  15.493  10.678 -0.0786 -0.5344  0.1041
  271loPI   GL1 4325   4.385  15.472  10.229 -0.1261  0.1655 -0.0551
  271loPI   GL2 4326   4.821  15.384  10.267  0.2518  0.0685  0.2298
  271loPI   C1A 4327   4.294  15.275   9.734 -0.1412 -0.0867 -0.2225
  271loPI   C2A 4328   4.440  15.249   9.307 -0.2405 -0.0758 -0.1909
  271loPI   C3A 4329   4.503  15.335   8.883 -0.1699 -0.3770 -0.2449
  271loPI   C4A 4330   4.477  15.418   8.466 -0.0742 -0.0712 -0.0141
  271loPI   C5A 4331   4.224  15.731   8.414  0.2133  0.0620  0.1647
  271loPI   C6A 4332   3.898  16.074   8.621  0.0419  0.3546  0.0144
  271loPI   C1B 4333   4.811  15.306   9.824 -0.2482 -0.0367 -0.0702
  271loPI   C2B 4334   4.906  15.283   9.488  0.2469  0.1012  0.2998
  271loPI   C3B 4335   5.024  15.342   9.033 -0.2907 -0.1319 -0.0867
  271loPI   C4B 4336   4.999  15.460   8.566  0.3660  0.0531 -0.0369
  272loPI    C1 4337   3.152   6.374  10.951  0.0236 -0.0179 -0.1666
  272loPI    C2 4338   3.342   6.651  10.734 -0.0377 -0.0641 -0.2806
  272loPI    C3 4339   3.057   6.760  10.992  0.1489  0.0065 -0.1009
  272loPI   PO4 4340   3.331   6.131  10.960 -0.2138  0.0093  0.3827
  272loPI   GL1 4341   3.263   5.908  10.587  0.2399  0.2489 -0.0669
  272loPI   GL2 4342   3.025   5.990  10.431 -0.1062  0.0245  0.1057
  272loPI   C1A 4343   3.542   5.922  10.212 -0.1753 -0.0484 -0.1502
  272loPI   C2A 4344   3.666   5.999   9.805 -0.2562  0.3226 -0.0684
  272loPI   C3A 4345   3.822   5.976   9.415 -0.2330  0.0968  0.0609
  272loPI   C4A 4346   3.806   5.970   8.915  0.0637  0.1637 -0.1109
  272loPI   C5A 4347   3.968   6.254   8.481 -0.1209  0.3119 -0.4484
  272loPI   C6A 4348   4.183   6.451   8.065 -0.0011  0.1494 -0.1377
  272loPI   C1B 4349   3.063   5.962  10.061 -0.0158  0.1022 -0.0160
  272loPI   C2B 4350   3.212   5.823   9.713  0.0267 -0.1181 -0.1558
  272loPI   C3B 4351   3.323   5.776   9.349  0.0954  0.0366  0.1700
  272loPI   C4B 4352   3.283   5.975   8.906  0.2405  0.1146 -0.0259
  273loPI    C1 4353   1.724  17.356  10.848  0.1308 -0.1613 -0.1062
  273loPI    C2 4354   1.943  17.292  11.176  0.1148  0.0560 -0.0518
  273loPI    C3 4355   1.557  17.186  11.170  0.1315 -0.0074 -0.0239
  273loPI   PO4 4356   1.800  17.622  10.772 -0.0475  0.1155  0.0268
  273loPI   GL1 4357   1.810  17.712  10.361 -0.1544 -0.2380 -0.3295
  273loPI   GL2 4358   2.040  17.510  10.203 -0.0878 -0.3396  0.0229
  273loPI   C1A 4359   1.596  17.732   9.904 -0.1234  0.4898 -0.0592
  273loPI   C2A 4360   1.584  17.686   9.465 -0.4495 -0.4380  0.1594
  273loPI   C3A 4361   1.625  17.652   9.042 -0.1632 -0.0139 -0.4825
  273loPI   C4A 4362   1.677  17.808   8.605  0.0422 -0.3251 -0.0876
  273loPI   C5A 4363   1.694  17.915   8.177 -0.2040  0.0491 -0.3359
  273loPI   C6A 4364   1.587  18.332   8.122 -0.0922 -0.0703  0.0890
  273loPI   C1B 4365   1.846  17.315   9.714 -0.2793 -0.0914  0.0772
  273loPI   C2B 4366   1.882  17.236   9.308  0.4666  0.1595 -0.1895
  273loPI   C3B 4367   1.937  17.287   8.826 -0.1696 -0.2983  0.0549
  273loPI   C4B 4368   1.889  17.229   8.406 -0.0009 -0.0056  0.1098
  274loPI    C1 4369   8.519   2.891  10.938  0.1365 -0.0034  0.0613
  274loPI    C2 4370   8.782   2.904  11.239 -0.0974 -0.0172  0.2691
  274loPI    C3 4371   8.508   2.613  11.225  0.0544 -0.1482 -0.0807
  274loPI   PO4 4372   8.727   2.947  10.705 -0.1440  0.2612  0.0741
  274loPI   GL1 4373   8.723   3.131  10.355  0.0837  0.1807  0.3804
  274loPI   GL2 4374   8.755   3.458  10.299  0.2350  0.0120 -0.2358
  274loPI   C1A 4375   8.664   3.072  10.017  0.0181 -0.0471  0.0894
  274loPI   C2A 4376   8.477   3.053   9.610  0.3260 -0.1141  0.0481
  274loPI   C3A 4377   8.429   3.073   9.234  0.0144 -0.3327  0.0613
  274loPI   C4A 4378   8.662   3.054   8.785  0.1462  0.1630  0.2980
  274loPI   C5A 4379   8.600   3.190   8.448  0.1190 -0.0172  0.0135
  274loPI   C6A 4380   8.648   3.362   8.012 -0.2635 -0.1569  0.0042
  274loPI   C1B 4381   8.886   3.588   9.879  0.0562 -0.0552 -0.1958
  274loPI   C2B 4382   8.688   3.513   9.533 -0.1831 -0.0882 -0.0059
  274loPI   C3B 4383   8.920   3.527   9.180  0.2529  0.1547  0.0778
  274loPI   C4B 4384   9.002   3.560   8.791  0.1240 -0.0450 -0.4918
  275loPI    C1 4385   8.922   3.469  10.816  0.0147  0.0399  0.0430
  275loPI    C2 4386   9.147   3.409  11.141 -0.1909 -0.1632  0.1507
  275loPI    C3 4387   8.860   3.688  11.145 -0.0923 -0.0603  0.0902
  275loPI   PO4 4388   9.118   3.411  10.622  0.0530 -0.1616 -0.1945
  275loPI   GL1 4389   9.283   3.207  10.386 -0.2539 -0.0425  0.0617
  275loPI   GL2 4390   9.427   2.894  10.282  0.2714  0.0143 -0.1712
  275loPI   C1A 4391   9.172   3.124   9.932 -0.0357 -0.2421  0.0723
  275loPI   C2A 4392   9.177   3.193   9.556 -0.2035 -0.0811 -0.0506
  275loPI   C3A 4393   9.152   2.977   9.285 -0.0409  0.1340 -0.1618
  275loPI   C4A 4394   9.195   3.093   9.000  0.2413  0.0187  0.3519
  275loPI   C5A 4395   9.113   3.145   8.582 -0.4665 -0.2067 -0.1624
  275loPI   C6A 4396   9.095   3.312   8.203  0.0839  0.1318 -0.0564
  275loPI   C1B 4397   9.389   2.671   9.856 -0.2139  0.0163 -0.0522
  275loPI   C2B 4398   9.398   2.562   9.495  0.1049  0.2140 -0.0210
  275loPI   C3B 4399   9.368   2.595   9.057  0.0757 -0.3512 -0.0493
  275loPI   C4B 4400   9.391   2.616   8.622 -0.1875 -0.2430  0.3730
  276loPI    C1 4401   1.660   4.881  10.854 -0.1493  0.1084 -0.3019
  276loPI    C2 4402   1.571   4.547  11.056  0.0302  0.2722  0.0562
  276loPI    C3 4403   1.907   4.748  11.139 -0.1199  0.5916 -0.0935
  276loPI   PO4 4404   1.608   4.863  10.646 -0.1063  0.2664 -0.1469
  276loPI   GL1 4405   1.813   4.847  10.276  0.1435 -0.1411 -0.1202
  276loPI   GL2 4406   2.196   4.989  10.248  0.0456  0.1202 -0.0932
  276loPI   C1A 4407   1.751   4.806   9.797 -0.1233 -0.3644  0.0282
  276loPI   C2A 4408   1.743   4.754   9.292 -0.2099 -0.0634 -0.4297
  276loPI   C3A 4409   1.633   4.867   8.840  0.2262  0.0034 -0.3787
  276loPI   C4A 4410   1.784   4.662   8.498 -0.0993  0.0707  0.3580
  276loPI   C5A 4411   1.578   4.552   8.248  0.4559 -0.4054 -0.2365
  276loPI   C6A 4412   1.572   4.836   7.940  0.0267 -0.0745  0.0830
  276loPI   C1B 4413   2.310   4.831   9.857  0.0858  0.1590  0.0859
  276loPI   C2B 4414   2.403   4.799   9.344  0.2163 -0.2666 -0.1689
  276loPI   C3B 4415   2.158   4.820   8.936  0.0342  0.1235 -0.2137
  276loPI   C4B 4416   2.313   4.951   8.510 -0.2007 -0.0368  0.1599
  277loPI    C1 4417   4.646   1.454  10.890 -0.0463 -0.1045 -0.1298
  277loPI    C2 4418   4.313   1.333  11.076 -0.0517 -0.0958 -0.1337
  277loPI    C3 4419   4.585   1.551  11.273 -0.1078  0.0052 -0.1668
  277loPI   PO4 4420   4.639   1.274  10.675  0.1594  0.0085  0.4469
  277loPI   GL1 4421   4.825   1.370  10.185 -0.1028 -0.0531  0.1105
  277loPI   GL2 4422   4.946   1.661  10.197 -0.1496 -0.0477  0.0399
  277loPI   C1A 4423   4.695   1.207   9.824  0.1468  0.1466 -0.3458
  277loPI   C2A 4424   4.704   1.116   9.436 -0.0497  0.2467  0.1310
  277loPI   C3A 4425   4.715   1.133   8.997 -0.4525 -0.0101  0.1754
  277loPI   C4A 4426   4.603   1.228   8.586 -0.0457  0.0445 -0.1289
  277loPI   C5A 4427   4.383   1.399   8.210  0.0927 -0.2794 -0.0204
  277loPI   C6A 4428   4.428   1.643   7.906 -0.1077  0.3990  0.2601
  277loPI   C1B 4429   4.883   1.637   9.728 -0.0060  0.0640  0.2199
  277loPI   C2B 4430   4.894   1.565   9.313  0.2554 -0.2357 -0.1490
  277loPI   C3B 4431   4.862   1.605   8.884 -0.1260  0.1370  0.3789
  277loPI   C4B 4432   4.738   1.671   8.415 -0.0122  0.0501  0.2038
  278loPI    C1 4433   2.735   4.420  11.055 -0.0567  0.0841  0.0693
  278loPI    C2 4434   2.353   4.426  11.172 -0.0818 -0.1520  0.0052
  278loPI    C3 4435   2.565   4.088  11.202  0.1604  0.0110  0.1593
  278loPI   PO4 4436   2.702   4.583  10.803 -0.1825 -0.2206  0.3317
  278loPI   GL1 4437   2.482   4.614  10.368  0.1134 -0.0648 -0.1425
  278loPI   GL2 4438   2.736   4.381  10.339  0.1649 -0.1866 -0.0045
  278loPI   C1A 4439   2.529   4.347   9.893  0.2597  0.1008 -0.1620
  278loPI   C2A 4440   2.470   4.245   9.430  0.1181 -0.2527 -0.1193
  278loPI   C3A 4441   2.613   4.181   8.991 -0.2237 -0.1870  0.1521
  278loPI   C4A 4442   2.801   4.004   8.640 -0.2051 -0.1322  0.1101
  278loPI   C5A 4443   3.132   3.923   8.383 -0.2574  0.1998 -0.1159
  278loPI   C6A 4444   3.408   4.180   8.190  0.0634  0.0140 -0.0368
  278loPI   C1B 4445   2.784   4.726  10.022 -0.1525  0.1827 -0.0253
  278loPI   C2B 4446   2.798   4.892   9.626  0.0724 -0.0136  0.2295
  278loPI   C3B 4447   2.703   5.233   9.284 -0.0601 -0.1034  0.0832
  278loPI   C4B 4448   2.556   5.254   8.874  0.1600  0.4935  0.2386
  279loPI    C1 4449  13.848   0.492  11.399 -0.0363 -0.0890  0.0049
  279loPI    C2 4450  14.170   0.582  11.180  0.0041 -0.2477 -0.0018
  279loPI    C3 4451  14.190   0.294  11.458 -0.0006  0.0603  0.3257
  279loPI   PO4 4452  13.666   0.468  11.198  0.1429 -0.1155  0.1924
  279loPI   GL1 4453  13.734   0.776  10.903  0.0523  0.1092  0.3438
  279loPI   GL2 4454  13.984   0.574  10.762 -0.3073  0.0530 -0.0963
  279loPI   C1A 4455  13.577   0.749  10.463  0.1126 -0.1168 -0.2946
  279loPI   C2A 4456  13.527   0.660   9.964  0.0461 -0.1302  0.1678
  279loPI   C3A 4457  13.434   0.717   9.578  0.2340 -0.1312  0.0377
  279loPI   C4A 4458  13.442   0.729   9.135 -0.2434 -0.3164 -0.0858
  279loPI   C5A 4459  13.553   0.879   8.736 -0.0980 -0.1592  0.1436
  279loPI   C6A 4460  13.577   0.949   8.321  0.0996 -0.0968  0.0956
  279loPI   C1B 4461  14.078   0.727  10.268  0.0134  0.2209  0.0362
  279loPI   C2B 4462  14.036   0.708   9.823 -0.0137  0.0134  0.0709
  279loPI   C3B 4463  14.067   0.764   9.464 -0.1689 -0.1646  0.0173
  279loPI   C4B 4464  13.993   0.776   8.975 -0.2491 -0.1074 -0.3490
  280loPI    C1 4465  12.939  17.433  11.742 -0.0047 -0.1546  0.0664
  280loPI    C2 4466  12.643  17.669  11.873  0.0869 -0.0274  0.0462
  280loPI    C3 4467  12.923  17.539  12.127  0.0379 -0.1132  0.0568
  280loPI   PO4 4468  12.925  17.529  11.422  0.0643  0.1870  0.2066
  280loPI   GL1 4469  12.868  17.353  10.960 -0.2489 -0.1053  0.0080
  280loPI   GL2 4470  12.985  17.604  10.817 -0.1837  0.1046 -0.1620
  280loPI   C1A 4471  12.752  17.236  10.542  0.0293  0.0627  0.2109
  280loPI   C2A 4472  12.839  17.215  10.123 -0.0663 -0.2094  0.0219
  280loPI   C3A 4473  12.655  17.255   9.683 -0.2570 -0.2351  0.1526
  280loPI   C4A 4474  12.667  17.334   9.277  0.0692 -0.0036  0.0399
  280loPI   C5A 4475  12.725  17.233   8.883  0.1131 -0.0769  0.0850
  280loPI   C6A 4476  13.123  17.014   8.716  0.1874  0.1861 -0.1551
  280loPI   C1B 4477  13.067  17.618  10.471  0.4011 -0.1712 -0.3011
  280loPI   C2B 4478  12.923  17.759  10.063 -0.3488  0.2358  0.2838
  280loPI   C3B 4479  12.902  17.723   9.575 -0.1912  0.1405 -0.0321
  280loPI   C4B 4480  12.937  17.803   9.129 -0.0278  0.0417  0.2705
  281loPI    C1 4481   6.725  10.284  11.508 -0.0087 -0.4317 -0.1910
  281loPI    C2 4482   6.353  10.426  11.542  0.1854  0.0431  0.0503
  281loPI    C3 4483   6.480  10.137  11.788 -0.0314 -0.1495 -0.0594
  281loPI   PO4 4484   6.737  10.291  11.215 -0.0441 -0.3171 -0.0615
  281loPI   GL1 4485   6.809  10.338  10.851 -0.0304 -0.1327  0.1276
  281loPI   GL2 4486   6.922  10.047  10.704  0.0136 -0.1467 -0.0426
  281loPI   C1A 4487   6.753  10.485  10.460 -0.3293  0.0748  0.0586
  281loPI   C2A 4488   6.543  10.434  10.078  0.1948 -0.0285 -0.2435
  281loPI   C3A 4489   6.524  10.448   9.662  0.2333  0.1619  0.2592
  281loPI   C4A 4490   6.502  10.394   9.207 -0.1698  0.0493 -0.1998
  281loPI   C5A 4491   6.531  10.460   8.843 -0.1666 -0.0411 -0.2655
  281loPI   C6A 4492   6.499  10.537   8.430  0.0258  0.0259 -0.0077
  281loPI   C1B 4493   6.890  10.054  10.302  0.1355  0.2838  0.0161
  281loPI   C2B 4494   6.930  10.081   9.859 -0.1521  0.0087 -0.0778
  281loPI   C3B 4495   6.779  10.011   9.400 -0.2850 -0.1554 -0.0905
  281loPI   C4B 4496   6.877  10.034   8.982  0.1634 -0.2693 -0.2725
  282loPI    C1 4497  14.967  10.648  11.307 -0.0024  0.0710 -0.0667
  282loPI    C2 4498  14.661  10.507  11.522  0.1456 -0.2639 -0.0701
  282loPI    C3 4499  14.966  10.689  11.705 -0.1672  0.3001 -0.0890
  282loPI   PO4 4500  14.948  10.603  11.139 -0.1837  0.1653 -0.2665
  282loPI   GL1 4501  14.860  10.489  10.721  0.0390 -0.1067  0.0286
  282loPI   GL2 4502  15.069  10.402  10.463  0.1907  0.0997  0.2510
  282loPI   C1A 4503  14.572  10.391  10.374  0.1285  0.2030 -0.0608
  282loPI   C2A 4504  14.509  10.389   9.932 -0.1875  0.1739  0.1392
  282loPI   C3A 4505  14.505  10.435   9.586  0.0805 -0.1795  0.1450
  282loPI   C4A 4506  14.578  10.509   9.082 -0.1804 -0.1545  0.0386
  282loPI   C5A 4507  14.613  10.442   8.632  0.0692 -0.0229  0.0784
  282loPI   C6A 4508  14.531  10.453   8.193  0.0327 -0.0786 -0.0466
  282loPI   C1B 4509  15.026  10.377  10.104  0.2959  0.0997 -0.1193
  282loPI   C2B 4510  15.020  10.423   9.592 -0.2139  0.2493 -0.0631
  282loPI   C3B 4511  15.100  10.471   9.070  0.1066  0.2157 -0.0749
  282loPI   C4B 4512  15.161  10.387   8.731  0.2263  0.0137 -0.1661
  283loPI    C1 4513   0.266  15.420  11.167 -0.0496 -0.1008  0.0936
  283loPI    C2 4514   0.238  15.749  11.394 -0.0764 -0.0990  0.0877
  283loPI    C3 4515   0.594  15.630  11.256 -0.0160 -0.2690  0.3802
  283loPI   PO4 4516   0.020  15.502  10.985 -0.0382 -0.1832 -0.1022
  283loPI   GL1 4517  -0.218  15.522  10.587  0.2791 -0.0517 -0.1327
  283loPI   GL2 4518   0.028  15.380  10.501  0.1548 -0.1250 -0.1416
  283loPI   C1A 4519  -0.295  15.670  10.237 -0.0915  0.1249  0.2203
  283loPI   C2A 4520  -0.349  15.676   9.798  0.0963 -0.0076  0.0322
  283loPI   C3A 4521  -0.330  15.655   9.310  0.0198 -0.0950 -0.0678
  283loPI   C4A 4522  -0.444  15.748   8.927  0.0271  0.1122  0.0963
  283loPI   C5A 4523  -0.348  15.740   8.558  0.0516  0.0544  0.2417
  283loPI   C6A 4524  -0.415  15.976   8.259 -0.0149 -0.0776  0.1135
  283loPI   C1B 4525  -0.089  15.217  10.165  0.1871 -0.4383  0.0118
  283loPI   C2B 4526  -0.102  15.143   9.793 -0.2047 -0.1438 -0.0083
  283loPI   C3B 4527  -0.146  15.127   9.313  0.0849 -0.0467 -0.1650
  283loPI   C4B 4528  -0.079  15.191   8.922  0.5486 -0.1712  0.0368
  284loPI    C1 4529   9.797   5.246  11.037 -0.1951  0.1927  0.0470
  284loPI    C2 4530   9.778   5.407  11.403  0.0408  0.0166  0.1398
  284loPI    C3 4531  10.020   5.097  11.334 -0.0366  0.0191 -0.1563
  284loPI   PO4 4532   9.777   5.419  10.847 -0.0496  0.3727  0.1098
  284loPI   GL1 4533   9.923   5.571  10.445  0.1276 -0.0590  0.1135
  284loPI   GL2 4534   9.602   5.394  10.377 -0.1411  0.1678 -0.1854
  284loPI   C1A 4535   9.983   5.506  10.062 -0.0008  0.5440 -0.3401
  284loPI   C2A 4536   9.979   5.535   9.646  0.0032 -0.1723 -0.1941
  284loPI   C3A 4537   9.964   5.622   9.270 -0.5104 -0.0212 -0.1271
  284loPI   C4A 4538   9.924   5.811   8.836 -0.3153 -0.5622  0.0303
  284loPI   C5A 4539  10.345   5.880   8.673  0.0103  0.0978  0.2785
  284loPI   C6A 4540  10.733   5.748   8.691 -0.1640  0.2177 -0.0407
  284loPI   C1B 4541   9.478   5.373   9.998  0.0429  0.2742 -0.0612
  284loPI   C2B 4542   9.417   5.453   9.605 -0.0698 -0.0962 -0.1520
  284loPI   C3B 4543   9.505   5.480   9.208  0.0126  0.1305  0.1901
  284loPI   C4B 4544   9.337   5.505   8.784 -0.1194  0.0402 -0.2424
  285loPI    C1 4545  13.528  16.115  11.186  0.0459 -0.0384  0.1315
  285loPI    C2 4546  13.682  15.874  11.465  0.1262  0.1224  0.2272
  285loPI    C3 4547  13.851  15.894  11.103  0.2777  0.2287  0.3021
  285loPI   PO4 4548  13.287  16.076  11.176  0.0293 -0.2745  0.3056
  285loPI   GL1 4549  12.946  16.271  10.931 -0.0047 -0.0024  0.0314
  285loPI   GL2 4550  12.632  16.349  10.865 -0.2384  0.0772  0.0357
  285loPI   C1A 4551  13.219  16.324  10.535  0.1144  0.1072  0.0952
  285loPI   C2A 4552  13.286  16.299  10.139 -0.0455  0.0881  0.1598
  285loPI   C3A 4553  13.219  16.364   9.713  0.2879  0.1839  0.2437
  285loPI   C4A 4554  13.119  16.388   9.286  0.0344  0.3174  0.0119
  285loPI   C5A 4555  13.235  16.568   8.905 -0.0348  0.5267  0.0937
  285loPI   C6A 4556  13.281  16.610   8.425  0.2336  0.0662 -0.1707
  285loPI   C1B 4557  12.741  16.362  10.486 -0.3201 -0.1220  0.3130
  285loPI   C2B 4558  12.740  16.295  10.010  0.0331 -0.0532 -0.0335
  285loPI   C3B 4559  12.710  16.467   9.636 -0.0227 -0.0049  0.1266
  285loPI   C4B 4560  12.626  16.445   9.217  0.2228  0.4317 -0.1902
  286loPI    C1 4561  13.686  14.537  11.235 -0.1277  0.1608 -0.0780
  286loPI    C2 4562  13.894  14.770  11.485  0.1483 -0.0611 -0.0955
  286loPI    C3 4563  13.505  14.702  11.552  0.1524  0.1092  0.1120
  286loPI   PO4 4564  13.696  14.598  10.920 -0.3243  0.0462  0.1999
  286loPI   GL1 4565  13.467  14.474  10.486 -0.2740 -0.2439 -0.1182
  286loPI   GL2 4566  13.415  14.834  10.565  0.0508  0.0255 -0.0211
  286loPI   C1A 4567  13.563  14.496  10.009 -0.0950  0.2062  0.4239
  286loPI   C2A 4568  13.537  14.507   9.516 -0.1387  0.1469 -0.1068
  286loPI   C3A 4569  13.454  14.622   9.077 -0.2503  0.0764  0.1270
  286loPI   C4A 4570  13.544  14.712   8.626  0.0157 -0.0437 -0.0937
  286loPI   C5A 4571  13.358  14.439   8.365 -0.1845  0.0624  0.0341
  286loPI   C6A 4572  13.110  14.267   8.131 -0.3739 -0.2632  0.2593
  286loPI   C1B 4573  13.399  14.993  10.182  0.1145 -0.2442 -0.0531
  286loPI   C2B 4574  13.281  14.961   9.777 -0.0641 -0.3017  0.2210
  286loPI   C3B 4575  13.246  15.109   9.338  0.1348 -0.2221 -0.3366
  286loPI   C4B 4576  13.187  15.515   9.169  0.2221 -0.0902  0.3338
  287loPI    C1 4577  15.871   1.733  11.229 -0.1734  0.1912  0.2275
  287loPI    C2 4578  16.129   1.661  11.526 -0.0141 -0.0544  0.0340
  287loPI    C3 4579  15.884   1.977  11.546  0.4179  0.2829  0.1447
  287loPI   PO4 4580  15.869   1.430  11.125  0.1633 -0.0685  0.2378
  287loPI   GL1 4581  15.750   1.107  10.764 -0.0866  0.0157  0.1903
  287loPI   GL2 4582  15.611   0.817  10.764  0.2357  0.1419 -0.1751
  287loPI   C1A 4583  15.959   1.073  10.314 -0.0317 -0.0555  0.1652
  287loPI   C2A 4584  15.898   1.087   9.931 -0.1079  0.1340  0.0221
  287loPI   C3A 4585  15.893   1.073   9.505  0.2056 -0.3028 -0.0406
  287loPI   C4A 4586  15.934   1.061   9.065 -0.1216  0.2471  0.0610
  287loPI   C5A 4587  16.225   1.246   8.727 -0.1144  0.0563  0.1173
  287loPI   C6A 4588  16.431   1.418   8.388  0.0225 -0.2663  0.1876
  287loPI   C1B 4589  15.652   0.630  10.355  0.4420  0.2793  0.2099
  287loPI   C2B 4590  15.583   0.660   9.958 -0.2774 -0.2022  0.1866
  287loPI   C3B 4591  15.610   0.668   9.537 -0.0336  0.2256 -0.2230
  287loPI   C4B 4592  15.604   0.641   9.084  0.0060  0.1581 -0.1868
  288loPI    C1 4593   0.385  11.450  11.434 -0.2593 -0.2140  0.1612
  288loPI    C2 4594   0.532  11.109  11.582  0.1634 -0.1056  0.0063
  288loPI    C3 4595   0.455  11.416  11.826  0.0567 -0.2116  0.1076
  288loPI   PO4 4596   0.638  11.483  11.183  0.0636  0.0611 -0.1108
  288loPI   GL1 4597   0.607  11.439  10.815 -0.2520 -0.0285  0.0825
  288loPI   GL2 4598   0.834  11.599  10.609 -0.0721 -0.0911 -0.1449
  288loPI   C1A 4599   0.442  11.319  10.453 -0.3059 -0.0964  0.0765
  288loPI   C2A 4600   0.503  11.272   9.954 -0.1994 -0.2235 -0.0701
  288loPI   C3A 4601   0.521  11.225   9.507 -0.2251 -0.1044 -0.5528
  288loPI   C4A 4602   0.557  11.354   9.095 -0.2343 -0.1664 -0.1002
  288loPI   C5A 4603   0.543  11.477   8.665  0.2305  0.2043  0.0373
  288loPI   C6A 4604   0.349  11.617   8.305 -0.0161 -0.1904  0.1541
  288loPI   C1B 4605   0.693  11.631  10.225  0.0380 -0.1684  0.2635
  288loPI   C2B 4606   0.772  11.693   9.770  0.2380 -0.1482 -0.3081
  288loPI   C3B 4607   0.905  11.581   9.405 -0.0522 -0.2480 -0.0607
  288loPI   C4B 4608   1.202  11.384   9.227  0.1433 -0.3188 -0.0993
  289loPI    C1 4609   6.992   8.354  10.808 -0.1207  0.1934 -0.1457
  289loPI    C2 4610   6.778   8.603  11.036 -0.0332  0.2099 -0.0809
  289loPI    C3 4611   7.127   8.459  11.170 -0.1964 -0.1387 -0.0174
  289loPI   PO4 4612   7.056   8.403  10.590 -0.1069  0.0036 -0.0741
  289loPI   GL1 4613   7.308   8.338  10.281  0.1973  0.1827 -0.4094
  289loPI   GL2 4614   7.443   8.627  10.316  0.0975  0.0738 -0.0890
  289loPI   C1A 4615   7.073   8.277   9.918 -0.2435  0.1479  0.1181
  289loPI   C2A 4616   7.107   8.277   9.566 -0.1811 -0.2225 -0.0193
  289loPI   C3A 4617   7.097   8.186   9.145 -0.1384  0.1520 -0.1759
  289loPI   C4A 4618   7.120   8.226   8.713  0.1490  0.1020  0.1047
  289loPI   C5A 4619   6.926   8.156   8.269 -0.1972  0.0332  0.0692
  289loPI   C6A 4620   6.659   8.402   8.027 -0.1466 -0.1871  0.2201
  289loPI   C1B 4621   7.374   8.658   9.815 -0.2698  0.0395 -0.2087
  289loPI   C2B 4622   7.279   8.671   9.363  0.1589 -0.0060  0.0148
  289loPI   C3B 4623   7.310   8.694   9.006  0.0864  0.0054 -0.1763
  289loPI   C4B 4624   7.380   8.764   8.635 -0.0029  0.2366 -0.3734
  290loPI    C1 4625   8.859  11.875  11.240  0.0526 -0.0524  0.1261
  290loPI    C2 4626   8.623  11.852  11.562  0.0016 -0.0829  0.0867
  290loPI    C3 4627   8.926  12.112  11.554 -0.0920  0.0275  0.0975
  290loPI   PO4 4628   8.716  11.777  11.051  0.2022  0.0472  0.2842
  290loPI   GL1 4629   8.786  11.807  10.684  0.0265 -0.0269 -0.0064
  290loPI   GL2 4630   8.577  12.151  10.783 -0.2261 -0.2086 -0.0844
  290loPI   C1A 4631   8.921  11.771  10.245  0.2052 -0.1274  0.0977
  290loPI   C2A 4632   8.908  11.801   9.809  0.2186  0.1666 -0.0827
  290loPI   C3A 4633   8.921  11.870   9.393  0.1354  0.0351 -0.0797
  290loPI   C4A 4634   8.845  11.923   8.922  0.0789  0.3410  0.1696
  290loPI   C5A 4635   8.774  12.055   8.560  0.0317  0.0924  0.1724
  290loPI   C6A 4636   9.104  12.234   8.226 -0.0909 -0.2375  0.1277
  290loPI   C1B 4637   8.588  12.274  10.417  0.3361  0.1345 -0.3637
  290loPI   C2B 4638   8.596  12.255   9.974  0.0330 -0.1424 -0.1483
  290loPI   C3B 4639   8.611  12.334   9.568  0.0191 -0.1625  0.2795
  290loPI   C4B 4640   8.671  12.277   9.241  0.1479 -0.3131 -0.1332
  291loPI    C1 4641   5.361   5.063  11.297  0.1148  0.2250 -0.1279
  291loPI    C2 4642   5.180   5.400  11.414  0.1766  0.1929  0.0642
  291loPI    C3 4643   5.303   5.135  11.686 -0.0224 -0.0653 -0.0920
  291loPI   PO4 4644   5.468   5.127  11.085  0.0778 -0.3287  0.0881
  291loPI   GL1 4645   5.552   5.329  10.660  0.2051  0.3761 -0.1126
  291loPI   GL2 4646   5.547   5.582  10.540 -0.3049 -0.0733  0.0846
  291loPI   C1A 4647   5.439   5.261  10.171 -0.0492  0.2987 -0.1752
  291loPI   C2A 4648   5.437   5.325   9.812 -0.0665 -0.2711  0.1909
  291loPI   C3A 4649   5.457   5.301   9.378 -0.0719  0.2724 -0.1334
  291loPI   C4A 4650   5.339   5.208   8.954  0.1644 -0.0442 -0.1388
  291loPI   C5A 4651   5.059   5.300   8.645 -0.0047  0.3004 -0.1479
  291loPI   C6A 4652   4.859   5.222   8.166 -0.0711  0.2311  0.2311
  291loPI   C1B 4653   5.204   5.711  10.264  0.2677 -0.0456  0.3641
  291loPI   C2B 4654   5.059   5.669   9.912  0.1199 -0.2599 -0.0236
  291loPI   C3B 4655   5.189   5.690   9.441  0.0487 -0.1675 -0.1719
  291loPI   C4B 4656   5.158   5.645   9.046  0.3253 -0.1482  0.3675
  292loPI    C1 4657  14.179   9.969  11.213 -0.0814 -0.0896  0.0871
  292loPI    C2 4658  14.234   9.712  11.515  0.0302 -0.1463  0.0191
  292loPI    C3 4659  14.406  10.073  11.525 -0.1590 -0.0578  0.1333
  292loPI   PO4 4660  14.251   9.877  11.030  0.1926  0.0402 -0.0512
  292loPI   GL1 4661  14.545   9.793  10.703 -0.1809  0.1826 -0.0300
  292loPI   GL2 4662  14.701  10.020  10.714 -0.4826 -0.0889  0.2693
  292loPI   C1A 4663  14.228   9.950  10.362  0.0462 -0.0049  0.1616
  292loPI   C2A 4664  14.187   9.964   9.925  0.0989  0.0549 -0.1150
  292loPI   C3A 4665  14.215  10.096   9.503  0.0353  0.0649 -0.2178
  292loPI   C4A 4666  14.345  10.070   9.129  0.4178  0.1267 -0.1194
  292loPI   C5A 4667  14.376  10.020   8.693  0.1227  0.0395 -0.3350
  292loPI   C6A 4668  14.111   9.801   8.400  0.2475  0.0442 -0.0181
  292loPI   C1B 4669  14.669   9.988  10.158 -0.2969  0.4366  0.1347
  292loPI   C2B 4670  14.750   9.998   9.703 -0.0394 -0.2472  0.0862
  292loPI   C3B 4671  14.830  10.058   9.261  0.0863  0.2979 -0.2994
  292loPI   C4B 4672  14.855  10.055   8.845 -0.0502 -0.0596 -0.0868
  293loPI    C1 4673   1.670  15.780  10.776  0.1633  0.2023 -0.0244
  293loPI    C2 4674   1.723  15.658  11.153 -0.2084  0.1487  0.0150
  293loPI    C3 4675   2.039  15.717  10.915  0.0120 -0.2029  0.2111
  293loPI   PO4 4676   1.552  15.568  10.641  0.0827 -0.2246 -0.2728
  293loPI   GL1 4677   1.442  15.483  10.259  0.1157  0.2111 -0.0495
  293loPI   GL2 4678   1.229  15.531  10.194  0.0587 -0.1669  0.0096
  293loPI   C1A 4679   1.512  15.197   9.965 -0.2605  0.1685  0.2096
  293loPI   C2A 4680   1.388  15.115   9.567  0.0465  0.4715  0.3175
  293loPI   C3A 4681   1.435  14.991   9.112  0.0329 -0.0824  0.4239
  293loPI   C4A 4682   1.629  14.869   8.726  0.0060 -0.1375 -0.2458
  293loPI   C5A 4683   1.458  15.069   8.335  0.0831 -0.1880 -0.0766
  293loPI   C6A 4684   1.087  15.131   8.029 -0.2291 -0.2243 -0.1849
  293loPI   C1B 4685   1.229  15.623   9.720 -0.2156  0.1916  0.1680
  293loPI   C2B 4686   1.183  15.539   9.249  0.2112  0.1467  0.3466
  293loPI   C3B 4687   1.350  15.499   8.872 -0.0247 -0.1786 -0.0708
  293loPI   C4B 4688   1.244  15.527   8.333  0.3022 -0.1027  0.1353
  294loPI    C1 4689   1.540   7.543  11.204  0.0279  0.0716  0.0450
  294loPI    C2 4690   1.512   7.497  11.600  0.0794  0.0086  0.0415
  294loPI    C3 4691   1.219   7.680  11.398  0.1278  0.1861  0.1307
  294loPI   PO4 4692   1.877   7.554  11.114  0.2183  0.0719  0.0765
  294loPI   GL1 4693   2.057   7.586  10.771  0.1377  0.2089 -0.2050
  294loPI   GL2 4694   1.689   7.633  10.640 -0.2041  0.0214 -0.1776
  294loPI   C1A 4695   2.325   7.629  10.478 -0.0394  0.1267 -0.0431
  294loPI   C2A 4696   2.372   7.634   9.987 -0.0170 -0.2901 -0.0985
  294loPI   C3A 4697   2.441   7.633   9.594 -0.1583 -0.0570 -0.0669
  294loPI   C4A 4698   2.452   7.596   9.175 -0.0691  0.0287 -0.1957
  294loPI   C5A 4699   2.463   7.567   8.837  0.2527  0.0954 -0.0513
  294loPI   C6A 4700   2.491   7.592   8.365 -0.0646 -0.1439 -0.1072
  294loPI   C1B 4701   1.538   7.220  10.451  0.0605 -0.1396 -0.0352
  294loPI   C2B 4702   1.459   7.156  10.020  0.1077 -0.0310  0.0774
  294loPI   C3B 4703   1.426   7.059   9.570 -0.1104  0.0993 -0.0654
  294loPI   C4B 4704   1.532   6.968   9.199  0.1354 -0.0966  0.0629
  295loPI    C1 4705   6.703  15.700  10.908  0.0007  0.1401  0.0827
  295loPI    C2 4706   7.100  15.692  10.864 -0.0444  0.1724 -0.3879
  295loPI    C3 4707   6.924  16.007  11.038  0.1479  0.0634  0.0151
  295loPI   PO4 4708   6.541  15.678  10.634 -0.0648 -0.0148  0.0380
  295loPI   GL1 4709   6.315  15.506  10.220 -0.0127 -0.1943  0.1596
  295loPI   GL2 4710   6.532  15.319  10.212 -0.1143 -0.0033 -0.0589
  295loPI   C1A 4711   6.440  15.604   9.782  0.1319  0.2378 -0.1666
  295loPI   C2A 4712   6.458  15.558   9.445 -0.0222  0.0781 -0.1125
  295loPI   C3A 4713   6.606  15.578   8.971  0.1494 -0.0660 -0.2305
  295loPI   C4A 4714   6.798  15.655   8.596  0.4303 -0.1104  0.0736
  295loPI   C5A 4715   6.809  15.451   8.259 -0.0958  0.2967  0.0300
  295loPI   C6A 4716   6.887  15.012   8.190 -0.1065  0.2141 -0.2324
  295loPI   C1B 4717   6.674  15.140   9.836  0.0285 -0.1042  0.2387
  295loPI   C2B 4718   6.821  15.192   9.454 -0.0154  0.2255 -0.0358
  295loPI   C3B 4719   6.960  15.186   9.068 -0.0277  0.3120 -0.0035
  295loPI   C4B 4720   7.082  15.194   8.708  0.2284  0.1618  0.0470
  296loPI    C1 4721   8.261  13.022  10.831 -0.3829  0.0319  0.1417
  296loPI    C2 4722   8.343  13.187  11.186  0.3337 -0.0293  0.0199
  296loPI    C3 4723   8.235  12.802  11.164 -0.1603  0.0912  0.1996
  296loPI   PO4 4724   8.148  13.192  10.717 -0.0668 -0.4743  0.1495
  296loPI   GL1 4725   8.258  13.438  10.345  0.2686 -0.2961 -0.1246
  296loPI   GL2 4726   8.000  13.387  10.233  0.0848 -0.0442  0.0008
  296loPI   C1A 4727   8.478  13.606  10.067 -0.0172 -0.0652  0.0120
  296loPI   C2A 4728   8.575  13.611   9.753  0.0796  0.1985  0.0448
  296loPI   C3A 4729   8.627  13.600   9.296 -0.0234  0.0142 -0.2027
  296loPI   C4A 4730   8.648  13.535   8.859 -0.0496  0.1489  0.3234
  296loPI   C5A 4731   8.633  13.630   8.418  0.2625  0.1191 -0.3274
  296loPI   C6A 4732   8.512  13.943   8.098  0.1097 -0.0139  0.4666
  296loPI   C1B 4733   8.053  13.556   9.829  0.0164 -0.1866  0.2355
  296loPI   C2B 4734   8.132  13.496   9.440  0.2299  0.0124 -0.1447
  296loPI   C3B 4735   8.102  13.575   8.970  0.0842  0.2118 -0.0650
  296loPI   C4B 4736   8.177  13.517   8.536 -0.0409  0.1286 -0.2513
  297loPI    C1 4737   9.064   7.884  11.075 -0.4283 -0.0170 -0.0555
  297loPI    C2 4738   9.186   8.100  11.389 -0.0109 -0.2556 -0.0458
  297loPI    C3 4739   8.825   7.929  11.393 -0.1042 -0.0592  0.2008
  297loPI   PO4 4740   9.084   8.101  10.844  0.1304 -0.0239 -0.1566
  297loPI   GL1 4741   8.788   8.114  10.508 -0.1068  0.2893  0.2031
  297loPI   GL2 4742   9.037   7.872  10.307  0.0995  0.0306  0.1995
  297loPI   C1A 4743   8.759   8.484  10.184  0.2461 -0.1866  0.3384
  297loPI   C2A 4744   8.702   8.542   9.787 -0.2258 -0.1666 -0.1648
  297loPI   C3A 4745   8.709   8.544   9.379  0.1076 -0.1585  0.0651
  297loPI   C4A 4746   8.764   8.476   8.958 -0.0508  0.0828 -0.1327
  297loPI   C5A 4747   8.726   8.519   8.559  0.1628 -0.3242  0.1017
  297loPI   C6A 4748   8.495   8.578   8.150 -0.0011  0.1456 -0.2217
  297loPI   C1B 4749   8.990   8.106  10.025 -0.4424  0.3074  0.0670
  297loPI   C2B 4750   8.921   8.134   9.570  0.0906  0.2117  0.3326
  297loPI   C3B 4751   8.986   8.049   9.126  0.0863 -0.3440 -0.1798
  297loPI   C4B 4752   8.910   8.075   8.675  0.0721  0.0299  0.0213
  298loPI    C1 4753  10.633  11.780  11.117 -0.0558  0.0666  0.0382
  298loPI    C2 4754  10.667  12.128  11.310 -0.1642  0.1235 -0.0448
  298loPI    C3 4755  10.365  11.880  11.396 -0.0769  0.0415  0.0269
  298loPI   PO4 4756  10.628  11.828  10.846  0.3426  0.1487  0.3003
  298loPI   GL1 4757  10.840  12.014  10.533 -0.2254  0.1605 -0.0388
  298loPI   GL2 4758  10.537  12.191  10.501 -0.0748  0.1220  0.1211
  298loPI   C1A 4759  10.523  11.906  10.079  0.0295 -0.1415  0.3764
  298loPI   C2A 4760  10.427  11.955   9.645 -0.0654  0.0181  0.0235
  298loPI   C3A 4761  10.509  12.066   9.174  0.0178 -0.0547 -0.2180
  298loPI   C4A 4762  10.540  12.047   8.832 -0.1919 -0.0563  0.0046
  298loPI   C5A 4763  10.300  12.187   8.534  0.2839 -0.2808 -0.1158
  298loPI   C6A 4764  10.246  12.349   8.131  0.2871 -0.0813 -0.0265
  298loPI   C1B 4765  10.260  12.319  10.123 -0.0124  0.1994 -0.2597
  298loPI   C2B 4766  10.248  12.458   9.727  0.5273 -0.1833  0.1807
  298loPI   C3B 4767  10.171  12.438   9.334  0.0614 -0.0404 -0.0248
  298loPI   C4B 4768  10.263  12.448   8.948 -0.0847  0.0116  0.3188
  299loPI    C1 4769  13.037  11.424  10.992 -0.1286  0.0378  0.2239
  299loPI    C2 4770  13.376  11.318  10.807 -0.3644 -0.0905 -0.1436
  299loPI    C3 4771  13.390  11.555  11.128  0.0851 -0.2435 -0.0432
  299loPI   PO4 4772  12.942  11.503  10.747 -0.2927  0.2083  0.1418
  299loPI   GL1 4773  13.107  11.424  10.415 -0.0786  0.4645  0.1815
  299loPI   GL2 4774  13.083  11.013  10.237  0.3383 -0.3155  0.1004
  299loPI   C1A 4775  13.209  11.565  10.086 -0.0655 -0.2892  0.0815
  299loPI   C2A 4776  13.347  11.772   9.805 -0.1892  0.0494  0.2178
  299loPI   C3A 4777  13.377  11.844   9.392 -0.0284 -0.1413 -0.2227
  299loPI   C4A 4778  13.342  11.916   8.961  0.0413 -0.1214 -0.1331
  299loPI   C5A 4779  13.429  11.761   8.494 -0.1289  0.2689  0.2120
  299loPI   C6A 4780  13.747  11.840   8.293 -0.0892 -0.0580  0.3195
  299loPI   C1B 4781  13.206  10.908   9.920  0.0914  0.0249 -0.1247
  299loPI   C2B 4782  13.314  11.040   9.460  0.2000 -0.0543  0.1615
  299loPI   C3B 4783  13.368  10.887   9.028 -0.0794  0.0200 -0.3092
  299loPI   C4B 4784  13.321  10.940   8.518  0.2042 -0.1386 -0.0724
  300loPI    C1 4785  14.772  11.488  11.226  0.0292  0.3164 -0.0838
  300loPI    C2 4786  14.466  11.677  11.401 -0.0780 -0.0547  0.1416
  300loPI    C3 4787  14.774  11.549  11.622 -0.0935 -0.3027  0.0226
  300loPI   PO4 4788  14.754  11.582  10.969 -0.0971  0.3508 -0.3442
  300loPI   GL1 4789  14.689  11.795  10.586 -0.0266 -0.0032  0.1064
  300loPI   GL2 4790  14.499  12.092  10.471 -0.2893  0.0326  0.1191
  300loPI   C1A 4791  14.866  11.720  10.146  0.1406  0.0147 -0.1244
  300loPI   C2A 4792  15.020  11.718   9.691  0.3575 -0.1951  0.0516
  300loPI   C3A 4793  14.945  11.846   9.262 -0.2988  0.1389 -0.0167
  300loPI   C4A 4794  14.949  11.778   8.822 -0.1001 -0.4621  0.1553
  300loPI   C5A 4795  15.234  11.695   8.476  0.0263  0.3849  0.0903
  300loPI   C6A 4796  15.008  11.574   8.039 -0.0362  0.1499  0.1467
  300loPI   C1B 4797  14.638  12.150  10.057 -0.0152 -0.0035  0.0697
  300loPI   C2B 4798  14.716  12.158   9.649  0.1753 -0.0102  0.1091
  300loPI   C3B 4799  14.645  12.306   9.268  0.1813 -0.0133  0.2380
  300loPI   C4B 4800  14.681  12.226   8.808  0.1012 -0.0655  0.0542
  301loPI    C1 4801  16.583   2.032  11.508 -0.0140 -0.1871 -0.2612
  301loPI    C2 4802  16.295   2.106  11.776  0.2995  0.2982 -0.0450
  301loPI    C3 4803  16.582   1.840  11.859  0.1151  0.0754 -0.1138
  301loPI   PO4 4804  16.452   1.951  11.321 -0.2811 -0.0162  0.0369
  301loPI   GL1 4805  16.316   1.928  10.968 -0.2322  0.1149 -0.0442
  301loPI   GL2 4806  16.094   1.855  10.780 -0.1034 -0.0521  0.1190
  301loPI   C1A 4807  16.484   2.046  10.545 -0.0354 -0.1994 -0.5369
  301loPI   C2A 4808  16.506   1.902  10.067 -0.0881 -0.0254 -0.1099
  301loPI   C3A 4809  16.414   1.962   9.608 -0.0745  0.0453  0.1603
  301loPI   C4A 4810  16.481   1.844   9.223  0.1428  0.2467 -0.0896
  301loPI   C5A 4811  16.452   1.688   8.800  0.1778 -0.2962 -0.2688
  301loPI   C6A 4812  16.034   1.924   8.600 -0.1829  0.0434 -0.3810
  301loPI   C1B 4813  16.000   1.937  10.294  0.0080 -0.2848  0.1548
  301loPI   C2B 4814  16.002   1.966   9.860  0.0159 -0.0384  0.2598
  301loPI   C3B 4815  15.879   1.892   9.459  0.0082 -0.2086  0.0117
  301loPI   C4B 4816  15.967   1.943   9.085 -0.5758  0.0321  0.2750
  302loPI    C1 4817   7.641  11.331  11.449  0.3285  0.0984 -0.1286
  302loPI    C2 4818   7.919  11.091  11.608  0.0131 -0.2341 -0.0670
  302loPI    C3 4819   7.728  11.357  11.838  0.2934  0.0143 -0.1150
  302loPI   PO4 4820   7.490  11.128  11.207  0.1177  0.0022  0.2743
  302loPI   GL1 4821   7.442  11.229  10.765 -0.2128 -0.0705  0.2869
  302loPI   GL2 4822   7.545  10.957  10.700  0.1299  0.0764  0.0498
  302loPI   C1A 4823   7.726  11.298  10.426  0.0558  0.1785 -0.1284
  302loPI   C2A 4824   7.748  11.155   9.980  0.2886  0.0386 -0.0681
  302loPI   C3A 4825   7.778  11.084   9.532 -0.4726 -0.1434  0.2971
  302loPI   C4A 4826   7.734  11.183   9.113  0.0971 -0.3639  0.1889
  302loPI   C5A 4827   7.747  11.053   8.718  0.1000  0.2186 -0.1981
  302loPI   C6A 4828   7.699  11.481   8.410 -0.1469  0.0804  0.0341
  302loPI   C1B 4829   7.503  10.856  10.308 -0.0361 -0.0256 -0.1053
  302loPI   C2B 4830   7.611  10.676   9.917 -0.3502  0.0724  0.2511
  302loPI   C3B 4831   7.536  10.586   9.436 -0.0519  0.1175  0.1803
  302loPI   C4B 4832   7.506  10.631   8.952 -0.1793  0.1705  0.0676
  303loPI    C1 4833  16.944   2.392  11.503  0.0119 -0.2660  0.1458
  303loPI    C2 4834  17.014   2.681  11.771 -0.2476  0.2456 -0.3185
  303loPI    C3 4835  16.672   2.475  11.784 -0.0130 -0.1351  0.0840
  303loPI   PO4 4836  16.856   2.463  11.283  0.0098 -0.4294  0.1632
  303loPI   GL1 4837  17.060   2.451  10.889  0.1470 -0.4885  0.0908
  303loPI   GL2 4838  17.393   2.345  10.757 -0.1388 -0.0398  0.0883
  303loPI   C1A 4839  16.912   2.363  10.471  0.1433 -0.0505  0.1898
  303loPI   C2A 4840  16.793   2.491  10.105 -0.0686 -0.3772  0.0172
  303loPI   C3A 4841  16.729   2.367   9.760 -0.0121 -0.1173  0.0217
  303loPI   C4A 4842  16.660   2.322   9.249  0.3508  0.0918 -0.2538
  303loPI   C5A 4843  16.749   2.361   8.811 -0.1801 -0.2487  0.1135
  303loPI   C6A 4844  17.031   2.550   8.526  0.0241  0.0643  0.1137
  303loPI   C1B 4845  17.390   2.449  10.227 -0.2227  0.4158 -0.0895
  303loPI   C2B 4846  17.246   2.372   9.746  0.1680  0.2345 -0.0728
  303loPI   C3B 4847  17.344   2.242   9.343  0.1600  0.0320 -0.0644
  303loPI   C4B 4848  17.203   2.245   8.991 -0.0684 -0.0322  0.1182
  304loPI    C1 4849   0.620   8.519  11.356  0.0421 -0.0404  0.0613
  304loPI    C2 4850   0.349   8.329  11.580  0.2422 -0.2855  0.0995
  304loPI    C3 4851   0.666   8.502  11.753  0.1746 -0.1040  0.0439
  304loPI   PO4 4852   0.699   8.330  11.201  0.2345 -0.2109 -0.1406
  304loPI   GL1 4853   0.868   8.327  10.815  0.0058  0.0825  0.1357
  304loPI   GL2 4854   0.750   8.607  10.745 -0.3956 -0.0983  0.4118
  304loPI   C1A 4855   1.031   8.097  10.457 -0.0559 -0.3139  0.1484
  304loPI   C2A 4856   1.073   8.025   9.989 -0.1824  0.1764 -0.1282
  304loPI   C3A 4857   1.005   8.006   9.546  0.0533 -0.0093  0.1644
  304loPI   C4A 4858   0.986   7.813   9.120  0.3613 -0.1925  0.0657
  304loPI   C5A 4859   0.779   7.749   8.667  0.1205 -0.2183  0.0466
  304loPI   C6A 4860   0.501   7.467   8.676  0.0613 -0.2572 -0.1837
  304loPI   C1B 4861   0.783   8.547  10.315 -0.2456 -0.0345  0.0781
  304loPI   C2B 4862   0.743   8.420   9.879 -0.1524 -0.0913  0.0396
  304loPI   C3B 4863   0.737   8.468   9.466  0.0774  0.1022  0.0314
  304loPI   C4B 4864   0.820   8.372   9.008 -0.0883  0.4175 -0.0531
  305loPI    C1 4865   9.771  13.169  11.320  0.0331  0.1131  0.0275
  305loPI    C2 4866  10.008  13.445  11.486  0.0060  0.0762  0.1279
  305loPI    C3 4867   9.639  13.544  11.367  0.0508  0.1196  0.0247
  305loPI   PO4 4868  10.011  13.072  11.075  0.0803  0.1457 -0.2784
  305loPI   GL1 4869  10.129  12.991  10.551  0.1853 -0.1199  0.1271
  305loPI   GL2 4870  10.526  13.187  10.412 -0.2494  0.0407  0.1143
  305loPI   C1A 4871  10.056  13.206  10.137 -0.0469 -0.2508 -0.0878
  305loPI   C2A 4872  10.047  13.333   9.720  0.2852  0.0965 -0.0264
  305loPI   C3A 4873  10.150  13.298   9.363  0.0467 -0.0472  0.0423
  305loPI   C4A 4874  10.040  13.349   8.904 -0.3078  0.1992 -0.1060
  305loPI   C5A 4875  10.127  13.276   8.425 -0.0092  0.2230 -0.0082
  305loPI   C6A 4876  10.006  13.287   7.984  0.0808  0.1324  0.0864
  305loPI   C1B 4877  10.481  13.389   9.984 -0.1652 -0.1065  0.1284
  305loPI   C2B 4878  10.571  13.435   9.531  0.0357  0.1856 -0.1601
  305loPI   C3B 4879  10.648  13.297   9.023  0.0334  0.2319 -0.2892
  305loPI   C4B 4880  10.601  13.322   8.595  0.0041  0.1044  0.2572
  306loPI    C1 4881   9.735  15.470  10.846 -0.0558 -0.2537 -0.0560
  306loPI    C2 4882   9.838  15.133  11.035 -0.1638 -0.1719  0.1518
  306loPI    C3 4883  10.028  15.474  11.118 -0.1619 -0.1500  0.0580
  306loPI   PO4 4884   9.748  15.347  10.575  0.0632 -0.1380 -0.0435
  306loPI   GL1 4885  10.015  15.207  10.194  0.0974 -0.1645  0.1363
  306loPI   GL2 4886  10.190  15.074   9.989 -0.1821 -0.3223 -0.2769
  306loPI   C1A 4887   9.685  15.124   9.827 -0.2808 -0.0981  0.1313
  306loPI   C2A 4888   9.773  15.071   9.403 -0.2483  0.0370  0.0472
  306loPI   C3A 4889   9.853  15.090   8.987 -0.0098 -0.2161 -0.0739
  306loPI   C4A 4890   9.825  15.013   8.568 -0.1986 -0.1830  0.2066
  306loPI   C5A 4891   9.919  14.812   8.169  0.2080  0.0843 -0.0462
  306loPI   C6A 4892   9.682  14.792   7.809 -0.0174 -0.1428  0.2217
  306loPI   C1B 4893  10.263  15.108   9.620 -0.2030 -0.1493 -0.2347
  306loPI   C2B 4894  10.306  15.191   9.168  0.0502 -0.0028  0.0312
  306loPI   C3B 4895  10.327  15.153   8.795  0.1431 -0.1876  0.1157
  306loPI   C4B 4896  10.593  15.165   8.467 -0.0383  0.3040  0.0013
  307loPI    C1 4897   3.056  11.843  11.135 -0.0012  0.1166  0.0372
  307loPI    C2 4898   3.160  12.204  11.273 -0.0010  0.1849 -0.1385
  307loPI    C3 4899   2.823  12.031  11.400  0.0810  0.1744  0.0691
  307loPI   PO4 4900   3.176  11.878  10.844 -0.0866 -0.0960 -0.0842
  307loPI   GL1 4901   3.166  11.787  10.394 -0.0776 -0.0393  0.1080
  307loPI   GL2 4902   3.472  11.925  10.402 -0.0065  0.3715 -0.4166
  307loPI   C1A 4903   3.092  11.798   9.997 -0.0342  0.3067  0.1332
  307loPI   C2A 4904   3.138  11.788   9.519  0.0189  0.0815 -0.0267
  307loPI   C3A 4905   3.129  11.769   9.073  0.1375  0.0274 -0.0035
  307loPI   C4A 4906   3.242  11.770   8.612  0.1375 -0.1402  0.1020
  307loPI   C5A 4907   3.488  11.634   8.260  0.0009 -0.1952  0.1121
  307loPI   C6A 4908   3.845  11.408   8.132  0.0086  0.5391  0.0716
  307loPI   C1B 4909   3.627  11.959   9.941 -0.3619 -0.0562  0.0194
  307loPI   C2B 4910   3.614  11.968   9.512  0.0294  0.0700 -0.1139
  307loPI   C3B 4911   3.737  11.917   9.108 -0.1047 -0.0290  0.1402
  307loPI   C4B 4912   3.801  11.752   8.604 -0.1182  0.0986  0.0265
  308loPI    C1 4913  15.251  11.639  11.330  0.1876 -0.0014  0.0410
  308loPI    C2 4914  15.625  11.744  11.425  0.2348 -0.1770  0.0540
  308loPI    C3 4915  15.383  11.592  11.705  0.0915  0.1085  0.0892
  308loPI   PO4 4916  15.285  11.496  11.144 -0.0119 -0.2393  0.1502
  308loPI   GL1 4917  15.389  11.402  10.717  0.0118 -0.0774  0.2442
  308loPI   GL2 4918  15.123  11.481  10.603  0.2963  0.0592 -0.1612
  308loPI   C1A 4919  15.597  11.295  10.360  0.1504  0.2228 -0.0362
  308loPI   C2A 4920  15.601  11.236   9.944 -0.0051  0.2036  0.4839
  308loPI   C3A 4921  15.698  11.291   9.552 -0.0147 -0.1676  0.1728
  308loPI   C4A 4922  15.619  11.317   9.115  0.0559 -0.4090  0.2811
  308loPI   C5A 4923  15.685  11.371   8.644  0.2269 -0.1537  0.1658
  308loPI   C6A 4924  15.673  11.658   8.113  0.0225  0.1963 -0.3295
  308loPI   C1B 4925  15.104  11.320  10.188 -0.4282 -0.0127 -0.4465
  308loPI   C2B 4926  15.186  11.272   9.666 -0.1780  0.0304  0.0727
  308loPI   C3B 4927  15.131  11.316   9.220  0.1589  0.1147  0.3111
  308loPI   C4B 4928  15.199  11.294   8.853  0.0205  0.0823  0.1781
  309loPI    C1 4929  14.639   4.111  11.168  0.0531 -0.4343 -0.2717
  309loPI    C2 4930  14.264   4.139  11.304  0.0871 -0.0377 -0.2492
  309loPI    C3 4931  14.566   4.081  11.560  0.0652 -0.1301 -0.2441
  309loPI   PO4 4932  14.500   4.171  10.888 -0.0538 -0.1221  0.1160
  309loPI   GL1 4933  14.573   4.397  10.541 -0.0177  0.2125 -0.1414
  309loPI   GL2 4934  14.662   4.617  10.488 -0.0695 -0.2666  0.1260
  309loPI   C1A 4935  14.648   4.163  10.169  0.3228 -0.1041 -0.0624
  309loPI   C2A 4936  14.786   4.175   9.747  0.0200 -0.1935  0.2658
  309loPI   C3A 4937  14.843   4.177   9.277  0.1746  0.3425  0.0882
  309loPI   C4A 4938  14.773   4.139   8.897 -0.1232 -0.0660 -0.1013
  309loPI   C5A 4939  14.858   4.324   8.630  0.1418  0.0929  0.0475
  309loPI   C6A 4940  14.893   4.756   8.497  0.1717 -0.1353 -0.1870
  309loPI   C1B 4941  14.479   4.567   9.949  0.2666  0.2762 -0.1181
  309loPI   C2B 4942  14.489   4.647   9.481  0.1280 -0.3131  0.0517
  309loPI   C3B 4943  14.549   4.620   9.014  0.3942 -0.0225 -0.1536
  309loPI   C4B 4944  14.422   4.627   8.531 -0.1185 -0.3521  0.2511
  310loPI    C1 4945   4.239   6.191  11.108 -0.2299 -0.1476 -0.0262
  310loPI    C2 4946   4.567   6.184  10.879 -0.2333  0.0470 -0.0391
  310loPI    C3 4947   4.573   6.016  11.242 -0.0514  0.2387  0.0483
  310loPI   PO4 4948   4.036   6.173  10.885 -0.1009 -0.0233 -0.3511
  310loPI   GL1 4949   3.875   6.030  10.518  0.0735 -0.1795 -0.2006
  310loPI   GL2 4950   3.656   6.287  10.581  0.1402  0.2931 -0.0744
  310loPI   C1A 4951   4.093   6.029  10.082  0.3013  0.0508 -0.1571
  310loPI   C2A 4952   4.239   6.051   9.685  0.0330  0.0872 -0.0508
  310loPI   C3A 4953   4.330   5.996   9.274  0.1424  0.2064  0.1208
  310loPI   C4A 4954   4.416   5.980   8.880  0.0112  0.2335 -0.3325
  310loPI   C5A 4955   4.338   5.908   8.445  0.0163  0.2489  0.4084
  310loPI   C6A 4956   4.102   5.667   8.199  0.0489 -0.3266  0.0899
  310loPI   C1B 4957   3.352   6.410  10.258  0.0608 -0.1575 -0.0622
  310loPI   C2B 4958   3.259   6.445   9.808  0.0271 -0.1514 -0.3588
  310loPI   C3B 4959   3.396   6.284   9.440  0.1698  0.3526  0.0871
  310loPI   C4B 4960   3.543   6.414   8.986  0.2035 -0.0633  0.2018
  311loPI    C1 4961   0.041   3.519  11.360  0.2847 -0.0450 -0.0611
  311loPI    C2 4962   0.382   3.637  11.532  0.2548  0.0336 -0.0553
  311loPI    C3 4963   0.095   3.467  11.753  0.3271 -0.1180 -0.0763
  311loPI   PO4 4964   0.117   3.484  11.117 -0.3291  0.0629 -0.1509
  311loPI   GL1 4965  -0.101   3.578  10.687 -0.3160  0.3697 -0.0167
  311loPI   GL2 4966   0.103   3.327  10.553  0.3199 -0.0206  0.0486
  311loPI   C1A 4967  -0.145   3.610  10.222  0.0897  0.1237 -0.3445
  311loPI   C2A 4968  -0.138   3.580   9.849  0.2158  0.1676 -0.2644
  311loPI   C3A 4969  -0.100   3.587   9.491 -0.1045 -0.1526  0.1757
  311loPI   C4A 4970  -0.270   3.629   9.044  0.0366  0.0191  0.2366
  311loPI   C5A 4971  -0.378   3.558   8.586  0.0324  0.0610  0.1010
  311loPI   C6A 4972  -0.400   3.407   8.178  0.0372 -0.4482 -0.0032
  311loPI   C1B 4973   0.155   3.170  10.112  0.1906  0.1572 -0.0155
  311loPI   C2B 4974   0.139   3.105   9.664  0.0629 -0.0767  0.0330
  311loPI   C3B 4975  -0.040   3.117   9.305 -0.0503 -0.0699 -0.0824
  311loPI   C4B 4976  -0.150   3.074   8.862 -0.0381 -0.0937  0.0559
  312loPI    C1 4977   7.625  10.671  11.280 -0.0447  0.0655 -0.1224
  312loPI    C2 4978   7.970  10.598  11.470 -0.0714  0.1379 -0.0459
  312loPI    C3 4979   7.623  10.494  11.638 -0.0909  0.1308 -0.0904
  312loPI   PO4 4980   7.624  10.622  11.049  0.0200  0.3883  0.1565
  312loPI   GL1 4981   7.477  10.387  10.658 -0.0681  0.1293 -0.1089
  312loPI   GL2 4982   7.209  10.494  10.497 -0.0628 -0.4855 -0.0694
  312loPI   C1A 4983   7.791  10.302  10.309 -0.2445 -0.1493  0.1660
  312loPI   C2A 4984   7.920  10.259   9.937 -0.0219  0.2536 -0.1306
  312loPI   C3A 4985   7.912  10.154   9.553 -0.1827 -0.2900  0.3017
  312loPI   C4A 4986   7.885  10.267   9.097 -0.2342 -0.3011  0.1843
  312loPI   C5A 4987   7.979  10.163   8.677  0.0380 -0.0374 -0.0449
  312loPI   C6A 4988   8.234  10.057   8.303 -0.0193  0.0900  0.0503
  312loPI   C1B 4989   7.096  10.528  10.026  0.0697  0.0733 -0.1254
  312loPI   C2B 4990   7.075  10.575   9.557  0.1956 -0.1374  0.2555
  312loPI   C3B 4991   7.051  10.539   9.013 -0.2288 -0.0878 -0.0762
  312loPI   C4B 4992   6.999  10.457   8.592 -0.1448 -0.0576  0.2328
  313loPI    C1 4993   9.073   9.994  11.190 -0.0452  0.1751  0.0355
  313loPI    C2 4994   9.417  10.153  11.319 -0.0367  0.1910 -0.0064
  313loPI    C3 4995   9.299   9.795  11.453  0.1730  0.0225 -0.2621
  313loPI   PO4 4996   9.122   9.999  10.926 -0.1040 -0.0026  0.0013
  313loPI   GL1 4997   9.258  10.045  10.620 -0.1767 -0.0623 -0.1784
  313loPI   GL2 4998   9.375   9.660  10.600  0.1209  0.0563 -0.2732
  313loPI   C1A 4999   9.117   9.973  10.239  0.0270  0.3745  0.0271
  313loPI   C2A 5000   9.132  10.014   9.855  0.1514 -0.0541 -0.1861
  313loPI   C3A 5001   9.143  10.005   9.371 -0.2627 -0.1973  0.0448
  313loPI   C4A 5002   9.259   9.988   8.911  0.4380  0.3288  0.1353
  313loPI   C5A 5003   9.548   9.981   8.578 -0.3031  0.1227  0.1229
  313loPI   C6A 5004   9.542  10.334   8.348 -0.0358  0.2471  0.1264
  313loPI   C1B 5005   9.498   9.560  10.165  0.0442 -0.1541  0.2667
  313loPI   C2B 5006   9.479   9.580   9.772 -0.0329  0.0709 -0.4937
  313loPI   C3B 5007   9.498   9.582   9.397  0.0126 -0.0419 -0.0096
  313loPI   C4B 5008   9.586   9.634   8.981 -0.1358  0.1659 -0.2555
  314loPI    C1 5009   6.083  12.729  10.868 -0.6288  0.0550  0.0687
  314loPI    C2 5010   6.172  13.073  11.053 -0.6697  0.0944  0.0152
  314loPI    C3 5011   6.123  12.738  11.266  0.0104 -0.0181  0.0174
  314loPI   PO4 5012   5.902  12.788  10.692  0.0463  0.0033  0.1415
  314loPI   GL1 5013   5.777  12.846  10.257  0.1678 -0.0144  0.1731
  314loPI   GL2 5014   5.924  13.174  10.209  0.4182  0.0337  0.0154
  314loPI   C1A 5015   5.836  12.660   9.877 -0.2413  0.2663  0.4036
  314loPI   C2A 5016   5.939  12.620   9.497  0.0574  0.1431 -0.1977
  314loPI   C3A 5017   5.985  12.675   9.042 -0.2694  0.0251  0.3925
  314loPI   C4A 5018   5.979  12.571   8.591  0.3558  0.0483  0.3177
  314loPI   C5A 5019   6.351  12.570   8.227  0.0455 -0.3438  0.0822
  314loPI   C6A 5020   6.375  12.654   7.766 -0.1575  0.0546 -0.1359
  314loPI   C1B 5021   6.001  13.122   9.778 -0.1603  0.1094  0.0084
  314loPI   C2B 5022   6.053  13.126   9.367  0.0150 -0.0502 -0.1566
  314loPI   C3B 5023   6.123  13.191   8.899 -0.3337 -0.1726 -0.2383
  314loPI   C4B 5024   6.045  13.030   8.450 -0.0794 -0.1431 -0.1940
  315loPI    C1 5025   2.194  13.200  11.076  0.1195  0.1503 -0.0965
  315loPI    C2 5026   2.329  12.871  11.260  0.0941  0.2617  0.1235
  315loPI    C3 5027   2.327  13.222  11.452 -0.4284  0.2798  0.0985
  315loPI   PO4 5028   2.245  13.079  10.795 -0.0793  0.1355  0.0874
  315loPI   GL1 5029   2.271  12.816  10.400 -0.2093 -0.2026 -0.0540
  315loPI   GL2 5030   2.437  12.625  10.191 -0.1275  0.1181 -0.0688
  315loPI   C1A 5031   2.127  12.885   9.945  0.1141  0.1381 -0.1989
  315loPI   C2A 5032   2.194  12.939   9.365  0.4156  0.0207 -0.1934
  315loPI   C3A 5033   2.225  12.937   8.950 -0.1118  0.3679  0.1529
  315loPI   C4A 5034   2.130  12.932   8.567 -0.3780 -0.2405  0.1459
  315loPI   C5A 5035   2.328  13.022   8.144 -0.2766 -0.1343 -0.2201
  315loPI   C6A 5036   2.718  12.871   7.871 -0.2049  0.2157 -0.6275
  315loPI   C1B 5037   2.489  12.681   9.735 -0.0071  0.1861 -0.1168
  315loPI   C2B 5038   2.539  12.517   9.249 -0.2422 -0.1419 -0.0879
  315loPI   C3B 5039   2.477  12.560   8.850  0.0844  0.4650  0.2525
  315loPI   C4B 5040   2.673  12.684   8.444  0.1976  0.0012 -0.0962
  316loPI    C1 5041  12.543  12.532  10.973 -0.0497 -0.3360  0.2050
  316loPI    C2 5042  12.916  12.460  11.101  0.0272 -0.1022  0.1183
  316loPI    C3 5043  12.604  12.376  11.337  0.1281 -0.3908  0.1531
  316loPI   PO4 5044  12.583  12.407  10.680 -0.0583  0.2538 -0.1263
  316loPI   GL1 5045  12.758  12.360  10.293  0.1703 -0.0778 -0.0133
  316loPI   GL2 5046  12.956  12.660  10.257  0.1728 -0.2341  0.1422
  316loPI   C1A 5047  12.498  12.303   9.926 -0.0178  0.0915  0.2168
  316loPI   C2A 5048  12.519  12.245   9.490 -0.0930  0.1339  0.0136
  316loPI   C3A 5049  12.636  12.366   9.092  0.0830  0.0863  0.0311
  316loPI   C4A 5050  12.541  12.352   8.640 -0.1947  0.0499  0.3508
  316loPI   C5A 5051  12.496  12.062   8.376  0.0184  0.1515  0.0249
  316loPI   C6A 5052  12.472  11.785   8.065 -0.0466  0.0915  0.0324
  316loPI   C1B 5053  12.773  12.722   9.949 -0.2372 -0.4062  0.0355
  316loPI   C2B 5054  12.679  12.752   9.445  0.0193 -0.1417  0.0022
  316loPI   C3B 5055  12.859  12.819   9.074 -0.0417  0.2351  0.0376
  316loPI   C4B 5056  12.813  12.811   8.683  0.4511 -0.2037 -0.2538
  317loPI    C1 5057  16.163  16.833  11.602  0.0392  0.0328 -0.0454
  317loPI    C2 5058  16.263  16.942  11.974  0.1524 -0.1061 -0.0341
  317loPI    C3 5059  16.474  16.659  11.785 -0.0188 -0.1680 -0.1348
  317loPI   PO4 5060  16.092  17.060  11.356  0.3139  0.0942 -0.0335
  317loPI   GL1 5061  16.018  16.974  10.956 -0.4773  0.1617  0.1809
  317loPI   GL2 5062  16.024  16.782  10.648 -0.2528  0.2470  0.0637
  317loPI   C1A 5063  15.919  17.239  10.524  0.3205  0.1148 -0.2867
  317loPI   C2A 5064  15.778  17.172  10.094  0.2457 -0.3423 -0.1224
  317loPI   C3A 5065  15.789  17.096   9.677  0.2335  0.0282 -0.0983
  317loPI   C4A 5066  15.747  17.101   9.247  0.1022 -0.0337 -0.2551
  317loPI   C5A 5067  15.660  17.071   8.822 -0.0601 -0.1061 -0.0469
  317loPI   C6A 5068  15.669  17.055   8.352  0.1071  0.1252  0.1151
  317loPI   C1B 5069  15.924  16.701  10.246  0.1842 -0.3576  0.0155
  317loPI   C2B 5070  15.915  16.709   9.882  0.3149  0.0126  0.0076
  317loPI   C3B 5071  16.030  16.678   9.457  0.2575  0.1135 -0.0391
  317loPI   C4B 5072  16.063  16.683   8.982 -0.2086 -0.1752 -0.1507
  318loPI    C1 5073   3.565  15.261  10.910  0.0119  0.3761 -0.0632
  318loPI    C2 5074   3.921  15.218  11.088 -0.2056  0.2263  0.3472
  318loPI    C3 5075   3.839  15.551  10.882  0.1996  0.2256  0.1755
  318loPI   PO4 5076   3.561  15.053  10.714  0.2528 -0.0705 -0.3553
  318loPI   GL1 5077   3.472  14.986  10.395 -0.0128  0.3247  0.1189
  318loPI   GL2 5078   3.689  14.855  10.261 -0.0588 -0.0406 -0.1401
  318loPI   C1A 5079   3.298  15.063  10.041  0.0032 -0.1706  0.4724
  318loPI   C2A 5080   3.191  15.054   9.711  0.0301  0.0049  0.1167
  318loPI   C3A 5081   3.042  14.935   9.383  0.1419  0.4309 -0.0598
  318loPI   C4A 5082   3.115  14.807   8.986  0.0458  0.2784 -0.2153
  318loPI   C5A 5083   3.037  14.780   8.646  0.1757 -0.2998 -0.1523
  318loPI   C6A 5084   3.211  14.882   8.190 -0.0859  0.1402  0.2169
  318loPI   C1B 5085   3.572  14.663   9.875 -0.0156  0.0300 -0.1074
  318loPI   C2B 5086   3.646  14.518   9.417 -0.1160 -0.2715 -0.3496
  318loPI   C3B 5087   3.568  14.617   9.003 -0.2527 -0.3170  0.2104
  318loPI   C4B 5088   3.794  14.786   8.614 -0.0917  0.0997  0.3624
  319loPI    C1 5089  12.425  17.616  11.354 -0.0545  0.1160 -0.1400
  319loPI    C2 5090  12.420  17.977  11.526 -0.0290  0.0421  0.0173
  319loPI    C3 5091  12.120  17.721  11.590  0.0427 -0.0332  0.0549
  319loPI   PO4 5092  12.520  17.661  11.029  0.0433 -0.0061  0.1023
  319loPI   GL1 5093  12.635  17.862  10.644  0.0661  0.2576  0.0442
  319loPI   GL2 5094  12.756  18.141  10.603 -0.1313  0.2159  0.0557
  319loPI   C1A 5095  12.489  17.677  10.300  0.2392 -0.6422  0.1852
  319loPI   C2A 5096  12.362  17.617   9.832 -0.3852 -0.1629 -0.2034
  319loPI   C3A 5097  12.417  17.771   9.431  0.0504 -0.1442 -0.2166
  319loPI   C4A 5098  12.434  17.758   8.993  0.1262 -0.1702 -0.0745
  319loPI   C5A 5099  12.700  17.728   8.608 -0.2131  0.0792 -0.0004
  319loPI   C6A 5100  12.994  17.503   8.565 -0.2721 -0.0454  0.0090
  319loPI   C1B 5101  12.649  18.130  10.183  0.5195 -0.0312 -0.1090
  319loPI   C2B 5102  12.702  18.123   9.742  0.1877 -0.0074 -0.3045
  319loPI   C3B 5103  12.708  18.198   9.326  0.1009  0.0742 -0.0394
  319loPI   C4B 5104  12.825  18.267   8.879  0.2041  0.0793 -0.0852
  320loPI    C1 5105   4.827   9.344  11.261  0.1324  0.0250  0.1587
  320loPI    C2 5106   4.969   9.270  11.628  0.0038 -0.0562  0.1929
  320loPI    C3 5107   4.948   9.647  11.494  0.1284 -0.0329  0.2368
  320loPI   PO4 5108   4.965   9.241  11.079 -0.0848 -0.0999 -0.2386
  320loPI   GL1 5109   5.184   9.072  10.758 -0.0630  0.3987  0.0462
  320loPI   GL2 5110   5.316   9.332  10.734 -0.0306 -0.0710 -0.3301
  320loPI   C1A 5111   4.998   8.895  10.381 -0.1345 -0.1749  0.3392
  320loPI   C2A 5112   4.899   8.752   9.919 -0.0165 -0.1749 -0.1756
  320loPI   C3A 5113   4.910   8.764   9.481 -0.1396 -0.1825 -0.0202
  320loPI   C4A 5114   4.837   8.737   9.012 -0.1917 -0.1655 -0.0796
  320loPI   C5A 5115   4.993   8.838   8.611 -0.0148 -0.0100  0.0171
  320loPI   C6A 5116   5.087   9.218   8.434  0.0820  0.1243 -0.0511
  320loPI   C1B 5117   5.445   9.044  10.318  0.0624 -0.2348 -0.0146
  320loPI   C2B 5118   5.446   8.847   9.966 -0.0691  0.4645  0.0151
  320loPI   C3B 5119   5.428   8.946   9.509  0.0623 -0.0267  0.4197
  320loPI   C4B 5120   5.341   8.889   9.013  0.4225  0.2844 -0.1618
  321loPI    C1 5121  11.162   5.134  11.173  0.0673  0.0248 -0.0141
  321loPI    C2 5122  11.067   5.521  11.205 -0.1396 -0.0365  0.1380
  321loPI    C3 5123  11.451   5.408  11.214 -0.0697  0.1766 -0.0522
  321loPI   PO4 5124  11.059   5.007  10.944 -0.1720  0.0402  0.0129
  321loPI   GL1 5125  11.247   4.783  10.591  0.0226 -0.0462 -0.0269
  321loPI   GL2 5126  11.374   4.574  10.639 -0.0033 -0.0244  0.0855
  321loPI   C1A 5127  11.307   4.929  10.217 -0.0099 -0.0039  0.0222
  321loPI   C2A 5128  11.426   5.309  10.098 -0.0955 -0.2172  0.0254
  321loPI   C3A 5129  11.558   5.376   9.658  0.0344  0.0760 -0.0636
  321loPI   C4A 5130  11.633   5.164   9.272 -0.1480 -0.0419 -0.1492
  321loPI   C5A 5131  11.762   5.154   8.880  0.3554  0.0807 -0.2640
  321loPI   C6A 5132  11.666   5.260   8.518  0.2249  0.0714 -0.2719
  321loPI   C1B 5133  11.565   4.440  10.233  0.0680 -0.3812  0.2065
  321loPI   C2B 5134  11.634   4.407   9.793  0.1093  0.5354 -0.0192
  321loPI   C3B 5135  11.536   4.438   9.370  0.0506  0.5013 -0.3159
  321loPI   C4B 5136  11.606   4.335   9.020  0.0914  0.3000  0.0208
  322loPI    C1 5137   6.207  13.784  11.080 -0.0544 -0.0295  0.1413
  322loPI    C2 5138   5.923  13.512  11.154 -0.0575 -0.0351  0.1089
  322loPI    C3 5139   6.039  13.765  11.442  0.0598 -0.1769  0.1877
  322loPI   PO4 5140   6.159  13.774  10.754  0.2295  0.0287  0.2326
  322loPI   GL1 5141   6.294  13.898  10.347  0.4220 -0.1560  0.1435
  322loPI   GL2 5142   6.411  14.128  10.240 -0.1264 -0.5484 -0.0027
  322loPI   C1A 5143   6.104  13.632  10.043 -0.0446  0.2992  0.1123
  322loPI   C2A 5144   6.132  13.600   9.596 -0.1446 -0.0631 -0.0682
  322loPI   C3A 5145   6.272  13.593   9.211 -0.2864 -0.1897  0.3631
  322loPI   C4A 5146   6.362  13.645   8.690 -0.2762  0.1144  0.0227
  322loPI   C5A 5147   6.336  13.556   8.318  0.2639 -0.0439 -0.2822
  322loPI   C6A 5148   6.150  13.652   7.887 -0.0305 -0.1249  0.1192
  322loPI   C1B 5149   6.379  14.125   9.813 -0.0694  0.1440  0.2343
  322loPI   C2B 5150   6.445  14.240   9.394 -0.1429 -0.3796 -0.1103
  322loPI   C3B 5151   6.465  14.197   9.005  0.1712  0.0406  0.0294
  322loPI   C4B 5152   6.413  14.221   8.618 -0.0593  0.1651 -0.0840
  323loPI    C1 5153   6.836   4.081  10.992 -0.0520 -0.1436 -0.0636
  323loPI    C2 5154   6.526   3.969  11.219  0.2255  0.2125  0.5135
  323loPI    C3 5155   6.848   3.734  11.190  0.0578  0.0134  0.2098
  323loPI   PO4 5156   6.727   4.151  10.777 -0.0017 -0.0137 -0.0143
  323loPI   GL1 5157   6.491   4.046  10.294 -0.0754 -0.2188  0.1533
  323loPI   GL2 5158   6.855   4.139  10.307 -0.2512  0.0273 -0.2602
  323loPI   C1A 5159   6.404   4.097   9.917  0.1385 -0.0880  0.0019
  323loPI   C2A 5160   6.429   4.047   9.469  0.3402  0.2465  0.0789
  323loPI   C3A 5161   6.402   4.060   9.024 -0.0069  0.1730  0.1671
  323loPI   C4A 5162   6.462   3.990   8.696 -0.1303  0.0942  0.2055
  323loPI   C5A 5163   6.651   4.133   8.266 -0.0824 -0.3520  0.2363
  323loPI   C6A 5164   6.739   4.613   8.107  0.1058  0.1574  0.2774
  323loPI   C1B 5165   6.971   4.187   9.926  0.0494  0.0047  0.4199
  323loPI   C2B 5166   6.928   4.065   9.464 -0.0014  0.1841  0.0734
  323loPI   C3B 5167   6.925   4.172   9.028 -0.0123  0.1973 -0.0829
  323loPI   C4B 5168   6.922   4.305   8.616 -0.0109  0.0206 -0.0637
  324loPI    C1 5169   4.489  10.735  11.179 -0.1948 -0.1983  0.2230
  324loPI    C2 5170   4.863  10.616  11.256 -0.1527 -0.1906  0.0340
  324loPI    C3 5171   4.667  10.845  11.520  0.1341  0.1727 -0.0592
  324loPI   PO4 5172   4.472  10.727  10.943  0.0788  0.2172 -0.1726
  324loPI   GL1 5173   4.599  10.833  10.525  0.0145  0.2115 -0.0084
  324loPI   GL2 5174   4.928  10.750  10.603  0.1112 -0.1255 -0.2568
  324loPI   C1A 5175   4.643  10.666  10.120  0.0316  0.1007 -0.1978
  324loPI   C2A 5176   4.733  10.671   9.672  0.0812 -0.0768 -0.1045
  324loPI   C3A 5177   4.744  10.707   9.167  0.0615 -0.2504 -0.0874
  324loPI   C4A 5178   4.837  10.597   8.828  0.1586 -0.0729  0.2615
  324loPI   C5A 5179   4.667  10.639   8.514  0.0128  0.0614  0.0182
  324loPI   C6A 5180   4.588  10.931   8.332 -0.2986  0.2691  0.0787
  324loPI   C1B 5181   4.969  10.425  10.355 -0.1614  0.0720 -0.3324
  324loPI   C2B 5182   4.973  10.238   9.924 -0.1640 -0.0927 -0.1664
  324loPI   C3B 5183   5.007  10.186   9.434  0.0725 -0.1275 -0.1389
  324loPI   C4B 5184   5.068  10.187   9.015 -0.0683  0.0436  0.0309
  325loPI    C1 5185   7.780  12.169  11.328  0.1822  0.1712 -0.0001
  325loPI    C2 5186   7.953  12.507  11.454  0.1471  0.0446  0.4009
  325loPI    C3 5187   7.999  12.168  11.662  0.0932 -0.1768  0.0619
  325loPI   PO4 5188   7.806  12.017  10.998 -0.0637  0.3633 -0.0881
  325loPI   GL1 5189   8.196  11.830  10.649  0.3792  0.2370  0.3270
  325loPI   GL2 5190   7.881  11.784  10.575 -0.1101  0.0076  0.1898
  325loPI   C1A 5191   8.433  11.786  10.333 -0.0315  0.0682 -0.2396
  325loPI   C2A 5192   8.374  11.682   9.937 -0.3249 -0.1512 -0.3741
  325loPI   C3A 5193   8.401  11.724   9.508 -0.1782 -0.3481 -0.3296
  325loPI   C4A 5194   8.431  11.721   9.157  0.1564 -0.1926  0.0106
  325loPI   C5A 5195   8.467  11.662   8.699  0.0102 -0.0149  0.0860
  325loPI   C6A 5196   8.205  11.497   8.415 -0.2310  0.1336  0.1950
  325loPI   C1B 5197   7.842  11.657  10.138 -0.0660  0.2984  0.2992
  325loPI   C2B 5198   7.939  11.585   9.739  0.1654  0.0876  0.0961
  325loPI   C3B 5199   7.940  11.649   9.251 -0.1001  0.0087 -0.0382
  325loPI   C4B 5200   7.964  11.522   8.858 -0.0762 -0.0057  0.0364
  326loPI    C1 5201   3.989   0.635  10.925  0.0443 -0.0602  0.1502
  326loPI    C2 5202   4.163   0.944  10.739 -0.3760  0.0670 -0.0439
  326loPI    C3 5203   3.924   1.009  11.054 -0.1639 -0.0969  0.1546
  326loPI   PO4 5204   3.858   0.468  10.688  0.0943  0.1391 -0.1636
  326loPI   GL1 5205   3.957   0.445  10.255 -0.0511 -0.0112 -0.0119
  326loPI   GL2 5206   4.262   0.537  10.438 -0.1021  0.5334 -0.1645
  326loPI   C1A 5207   3.925   0.587   9.844 -0.1280 -0.2991 -0.0878
  326loPI   C2A 5208   3.760   0.588   9.499  0.0484  0.1161 -0.0789
  326loPI   C3A 5209   3.801   0.525   9.116  0.1471 -0.1977  0.2459
  326loPI   C4A 5210   4.015   0.588   8.676 -0.1080  0.0477 -0.0865
  326loPI   C5A 5211   3.873   0.763   8.276  0.0818 -0.3850 -0.0508
  326loPI   C6A 5212   3.937   1.206   7.981  0.2188  0.0668  0.0788
  326loPI   C1B 5213   4.448   0.582   9.936 -0.0428  0.0579 -0.0430
  326loPI   C2B 5214   4.448   0.556   9.582 -0.2475 -0.0225 -0.3522
  326loPI   C3B 5215   4.443   0.661   9.096  0.0807  0.3798 -0.2634
  326loPI   C4B 5216   4.550   0.732   8.773  0.0713 -0.2767  0.1501
  327loPI    C1 5217   5.289   3.545  10.935  0.0855  0.0300 -0.2092
  327loPI    C2 5218   5.602   3.297  10.948  0.1101  0.0712  0.0258
  327loPI    C3 5219   5.250   3.183  11.100  0.0645  0.1009 -0.0567
  327loPI   PO4 5220   5.216   3.600  10.705  0.1342  0.1477 -0.2110
  327loPI   GL1 5221   5.171   3.721  10.199 -0.1173  0.0403 -0.0400
  327loPI   GL2 5222   4.997   3.446  10.197  0.0991  0.1940 -0.0564
  327loPI   C1A 5223   5.290   3.972   9.871 -0.1353  0.2632 -0.1199
  327loPI   C2A 5224   5.483   3.975   9.460 -0.1455  0.0901 -0.1812
  327loPI   C3A 5225   5.485   3.875   8.973 -0.3474  0.1900 -0.1985
  327loPI   C4A 5226   5.634   3.848   8.504  0.0123  0.1291  0.1072
  327loPI   C5A 5227   5.843   3.476   8.228  0.0086  0.0867 -0.2423
  327loPI   C6A 5228   5.979   3.279   7.941  0.2343 -0.1692 -0.2188
  327loPI   C1B 5229   5.104   3.411   9.739  0.0142 -0.1743 -0.0303
  327loPI   C2B 5230   5.288   3.406   9.379 -0.2308  0.0928  0.3580
  327loPI   C3B 5231   5.348   3.380   8.946  0.0535 -0.3073 -0.2069
  327loPI   C4B 5232   5.392   3.401   8.487 -0.0802  0.3620 -0.0967
  328loPI    C1 5233  14.936   2.070  10.860  0.1604  0.1767 -0.0584
  328loPI    C2 5234  15.049   2.224  11.211  0.0080 -0.1566  0.1418
  328loPI    C3 5235  14.860   1.872  11.199 -0.2617 -0.0050 -0.2520
  328loPI   PO4 5236  15.138   2.059  10.693 -0.1004 -0.0639  0.1343
  328loPI   GL1 5237  15.321   2.286  10.404 -0.0642  0.3581  0.1083
  328loPI   GL2 5238  15.516   1.984  10.341 -0.2443 -0.0075 -0.0950
  328loPI   C1A 5239  15.152   2.440  10.073 -0.1318 -0.2341 -0.0037
  328loPI   C2A 5240  15.104   2.420   9.676  0.0839  0.0411 -0.0207
  328loPI   C3A 5241  15.126   2.343   9.197  0.0474 -0.0870 -0.1112
  328loPI   C4A 5242  15.186   2.342   8.780  0.2736  0.0031  0.0618
  328loPI   C5A 5243  15.071   2.418   8.387  0.1285 -0.0257  0.1910
  328loPI   C6A 5244  14.706   2.631   8.282  0.2576  0.0233  0.0351
  328loPI   C1B 5245  15.389   1.946   9.942  0.2052  0.1528  0.3303
  328loPI   C2B 5246  15.376   2.002   9.524 -0.0480  0.0667 -0.0507
  328loPI   C3B 5247  15.423   1.944   9.073  0.1114 -0.0309 -0.1548
  328loPI   C4B 5248  15.466   1.888   8.657  0.0474 -0.1613  0.1216
  329loPI    C1 5249   2.572  10.982  11.001 -0.1109 -0.0683  0.5012
  329loPI    C2 5250   2.625  10.589  10.946  0.0080  0.0250 -0.1169
  329loPI    C3 5251   2.280  10.726  11.094 -0.1461 -0.2928 -0.1752
  329loPI   PO4 5252   2.558  11.037  10.734  0.0418 -0.0172 -0.0132
  329loPI   GL1 5253   2.742  10.899  10.414 -0.1571 -0.0966  0.0801
  329loPI   GL2 5254   2.751  10.595  10.455 -0.2638 -0.0201 -0.0680
  329loPI   C1A 5255   2.823  10.853   9.914  0.1524 -0.1744  0.0793
  329loPI   C2A 5256   2.779  10.865   9.462 -0.1570 -0.2595  0.2537
  329loPI   C3A 5257   2.780  10.817   9.034 -0.0596  0.2724 -0.0924
  329loPI   C4A 5258   2.901  10.780   8.607  0.0202 -0.1416  0.1953
  329loPI   C5A 5259   2.909  10.851   8.183 -0.0571  0.0429  0.0422
  329loPI   C6A 5260   2.840  10.999   7.755 -0.3032  0.0812  0.1710
  329loPI   C1B 5261   2.602  10.428  10.023 -0.2673  0.1565  0.1128
  329loPI   C2B 5262   2.574  10.325   9.583 -0.0745 -0.1279  0.0309
  329loPI   C3B 5263   2.574  10.345   9.210  0.0530 -0.0338 -0.0393
  329loPI   C4B 5264   2.638  10.354   8.748 -0.0896  0.0472 -0.2261
  330loPI    C1 5265   2.137   2.738  11.271  0.0258  0.0563 -0.0103
  330loPI    C2 5266   1.866   2.706  11.564  0.1197 -0.1356  0.0572
  330loPI    C3 5267   2.256   2.718  11.652  0.1295  0.3285 -0.0269
  330loPI   PO4 5268   1.912   2.770  11.044 -0.0275  0.1259  0.1506
  330loPI   GL1 5269   1.620   2.839  10.811  0.1361 -0.0037 -0.1571
  330loPI   GL2 5270   1.357   2.970  10.697  0.2438 -0.4437  0.0352
  330loPI   C1A 5271   1.730   2.989  10.293 -0.0901 -0.0065 -0.0449
  330loPI   C2A 5272   1.647   3.004   9.854 -0.3149 -0.0427  0.0155
  330loPI   C3A 5273   1.613   2.965   9.339 -0.0614 -0.2849  0.0272
  330loPI   C4A 5274   1.528   2.968   8.992 -0.2428 -0.1889  0.0646
  330loPI   C5A 5275   1.593   3.023   8.538 -0.2433 -0.2015  0.1296
  330loPI   C6A 5276   1.730   3.115   8.167  0.0244  0.2914 -0.3225
  330loPI   C1B 5277   1.214   3.066  10.211 -0.0601 -0.1156 -0.0318
  330loPI   C2B 5278   1.109   3.063   9.759  0.0363 -0.1778  0.2225
  330loPI   C3B 5279   1.121   3.029   9.293  0.1017  0.1481  0.1710
  330loPI   C4B 5280   0.922   2.972   8.988 -0.0024 -0.1755 -0.0522
  331loPI    C1 5281   3.679   7.955  11.224 -0.1054 -0.0272 -0.2018
  331loPI    C2 5282   3.725   8.335  11.340  0.0935 -0.1080 -0.0070
  331loPI    C3 5283   3.485   8.091  11.546  0.2927 -0.1988  0.1209
  331loPI   PO4 5284   3.994   7.895  11.190  0.2690 -0.0303 -0.1650
  331loPI   GL1 5285   4.188   8.078  10.819  0.0240 -0.1141  0.1054
  331loPI   GL2 5286   3.865   8.243  10.853 -0.0982 -0.0110  0.1025
  331loPI   C1A 5287   4.409   7.898  10.427  0.0277 -0.0763 -0.0291
  331loPI   C2A 5288   4.519   7.805  10.052  0.1821  0.3750  0.0950
  331loPI   C3A 5289   4.506   7.839   9.584  0.1720 -0.2361  0.1297
  331loPI   C4A 5290   4.550   7.746   9.160 -0.1785  0.1116 -0.0369
  331loPI   C5A 5291   4.645   7.755   8.683 -0.0939 -0.0899 -0.1151
  331loPI   C6A 5292   5.112   7.946   8.515 -0.0399  0.1207 -0.3614
  331loPI   C1B 5293   3.636   8.295  10.440 -0.3039 -0.1209  0.1163
  331loPI   C2B 5294   3.701   8.305   9.987  0.1955  0.0724 -0.3431
  331loPI   C3B 5295   3.735   8.132   9.557 -0.1211 -0.2759 -0.1399
  331loPI   C4B 5296   3.676   8.075   9.068  0.0409  0.0629  0.3907
  332loPI    C1 5297   8.941   0.294  10.916 -0.1164  0.0678  0.1329
  332loPI    C2 5298   9.247   0.265  11.171 -0.0892  0.0843  0.1021
  332loPI    C3 5299   8.896   0.410  11.296 -0.1151 -0.0305  0.1636
  332loPI   PO4 5300   9.099   0.328  10.679  0.2861  0.0751 -0.0193
  332loPI   GL1 5301   8.953   0.129  10.304 -0.1465  0.0067 -0.1616
  332loPI   GL2 5302   8.564   0.075  10.171 -0.3373  0.0113  0.0838
  332loPI   C1A 5303   9.221   0.414  10.027  0.1635  0.0030  0.0428
  332loPI   C2A 5304   9.298   0.436   9.650 -0.1856 -0.1717 -0.0053
  332loPI   C3A 5305   9.203   0.424   9.222 -0.1250  0.2007 -0.3082
  332loPI   C4A 5306   9.179   0.365   8.738 -0.1391  0.1189 -0.0682
  332loPI   C5A 5307   8.921   0.330   8.331 -0.0571 -0.0127  0.1354
  332loPI   C6A 5308   9.006  -0.046   8.002  0.0571 -0.1807  0.1906
  332loPI   C1B 5309   8.400  -0.135   9.769 -0.0973 -0.2207  0.0207
  332loPI   C2B 5310   8.472  -0.170   9.330 -0.0481  0.0039  0.0599
  332loPI   C3B 5311   8.338   0.025   8.987  0.0777  0.2100  0.4378
  332loPI   C4B 5312   8.147  -0.097   8.574 -0.2026 -0.2115 -0.1486
  333loPI    C1 5313  10.292   2.018  11.039  0.0919 -0.1710  0.2734
  333loPI    C2 5314  10.226   2.003  11.433 -0.1593  0.3283  0.2583
  333loPI    C3 5315  10.321   2.351  11.259  0.0996  0.0842 -0.1030
  333loPI   PO4 5316  10.043   1.940  10.968  0.2944 -0.3241  0.3192
  333loPI   GL1 5317   9.921   1.813  10.598  0.1407  0.0203  0.2232
  333loPI   GL2 5318  10.246   2.087  10.545 -0.1185 -0.3664 -0.2399
  333loPI   C1A 5319   9.930   1.718  10.156  0.1591 -0.1577  0.1603
  333loPI   C2A 5320   9.966   1.805   9.786  0.0155 -0.0372  0.0446
  333loPI   C3A 5321   9.973   1.771   9.310  0.0104  0.3220 -0.2597
  333loPI   C4A 5322   9.882   1.683   8.841  0.1180 -0.1724 -0.0594
  333loPI   C5A 5323   9.926   1.638   8.421  0.1482  0.0959 -0.1036
  333loPI   C6A 5324  10.188   1.260   8.324  0.0966 -0.2049 -0.3008
  333loPI   C1B 5325  10.152   2.161  10.118  0.1532 -0.1604  0.1075
  333loPI   C2B 5326  10.259   2.175   9.626  0.0240 -0.0434  0.2118
  333loPI   C3B 5327  10.232   2.207   9.150  0.2746 -0.1540  0.0817
  333loPI   C4B 5328  10.143   2.157   8.751 -0.1133 -0.0811  0.2999
  334loPI    C1 5329   2.799   3.913  10.734  0.0450 -0.0142 -0.1297
  334loPI    C2 5330   3.166   4.024  10.623  0.1364 -0.1086  0.0720
  334loPI    C3 5331   3.059   4.046  11.007 -0.0299 -0.1925  0.0313
  334loPI   PO4 5332   2.716   3.876  10.465  0.0801  0.1316  0.0793
  334loPI   GL1 5333   2.769   3.806   9.960  0.0556  0.1921  0.0881
  334loPI   GL2 5334   2.998   4.060  10.079  0.3246  0.1112  0.1501
  334loPI   C1A 5335   2.862   3.826   9.547 -0.0976  0.2205 -0.1421
  334loPI   C2A 5336   2.708   3.702   9.174  0.0185 -0.2452 -0.1554
  334loPI   C3A 5337   2.966   3.624   8.846 -0.1093 -0.1038 -0.0215
  334loPI   C4A 5338   2.874   3.445   8.451  0.0332 -0.0388  0.1445
  334loPI   C5A 5339   2.511   3.234   8.174 -0.0301 -0.2359 -0.1015
  334loPI   C6A 5340   2.171   3.341   8.108  0.1872 -0.1711 -0.1272
  334loPI   C1B 5341   3.273   3.746   9.755  0.0019 -0.0713 -0.4922
  334loPI   C2B 5342   3.263   3.658   9.308 -0.0788  0.0760  0.0867
  334loPI   C3B 5343   3.464   3.589   8.897 -0.2472 -0.1049 -0.0141
  334loPI   C4B 5344   3.427   3.380   8.404  0.2031  0.2138 -0.2003
  335loPI    C1 5345  10.797  16.822  10.758 -0.0343  0.5304  0.0626
  335loPI    C2 5346  10.666  16.548  11.018  0.0147  0.2326 -0.2181
  335loPI    C3 5347  10.857  16.874  11.149 -0.1050  0.1691  0.1254
  335loPI   PO4 5348  10.610  16.846  10.621  0.2060  0.0422  0.1896
  335loPI   GL1 5349  10.527  16.823  10.224  0.1890 -0.0925  0.1520
  335loPI   GL2 5350  10.423  16.512  10.141  0.1704  0.0711 -0.0732
  335loPI   C1A 5351  10.497  16.979   9.839 -0.1228 -0.0985  0.0612
  335loPI   C2A 5352  10.471  16.883   9.478 -0.3041 -0.0601 -0.4024
  335loPI   C3A 5353  10.450  16.885   9.023  0.2135 -0.2475 -0.3004
  335loPI   C4A 5354  10.545  16.957   8.662  0.1065 -0.0242  0.0798
  335loPI   C5A 5355  10.245  17.069   8.396  0.0047  0.0784 -0.2282
  335loPI   C6A 5356  10.115  17.129   8.086 -0.1788 -0.0332 -0.2039
  335loPI   C1B 5357  10.283  16.486   9.732  0.0903  0.1078 -0.1646
  335loPI   C2B 5358  10.267  16.507   9.288 -0.2615 -0.0575  0.0069
  335loPI   C3B 5359  10.253  16.497   8.808  0.0196  0.0361 -0.1580
  335loPI   C4B 5360  10.258  16.608   8.374  0.0609  0.0852  0.0399
  336loPI    C1 5361   4.962  17.551  10.600 -0.2769 -0.0981 -0.0855
  336loPI    C2 5362   4.861  17.384  10.949  0.1260 -0.1724  0.0010
  336loPI    C3 5363   5.204  17.587  10.917  0.0289 -0.0531 -0.3191
  336loPI   PO4 5364   5.032  17.396  10.388  0.0415  0.1229  0.2140
  336loPI   GL1 5365   5.161  17.490   9.998 -0.0670  0.3156 -0.1910
  336loPI   GL2 5366   5.437  17.610  10.100  0.1044 -0.3076  0.0508
  336loPI   C1A 5367   5.144  17.691   9.593 -0.1107  0.3531 -0.1633
  336loPI   C2A 5368   5.060  17.642   9.132 -0.1388 -0.0940  0.0595
  336loPI   C3A 5369   5.078  17.679   8.709 -0.0275  0.0405  0.0131
  336loPI   C4A 5370   5.303  17.505   8.395  0.0315 -0.1771  0.1999
  336loPI   C5A 5371   5.426  17.355   8.046 -0.1515  0.2039  0.1433
  336loPI   C6A 5372   5.445  17.328   7.677  0.3283 -0.1000 -0.0333
  336loPI   C1B 5373   5.592  17.349   9.795 -0.0905 -0.1319  0.0730
  336loPI   C2B 5374   5.365  17.324   9.384  0.1796 -0.0845 -0.1671
  336loPI   C3B 5375   5.386  17.240   8.950 -0.0639  0.0200  0.1735
  336loPI   C4B 5376   5.245  17.036   8.546  0.0322  0.1923 -0.2522
  337loPI    C1 5377   6.684  12.832  11.132  0.1364 -0.0970  0.2996
  337loPI    C2 5378   6.853  13.156  11.294 -0.0355  0.1360  0.0225
  337loPI    C3 5379   6.492  13.036  11.418 -0.0099  0.1020  0.0641
  337loPI   PO4 5380   6.666  12.833  10.920 -0.1389 -0.3758 -0.1496
  337loPI   GL1 5381   6.899  12.678  10.510 -0.1105  0.1195 -0.3178
  337loPI   GL2 5382   7.132  12.347  10.433 -0.2274  0.2529  0.1771
  337loPI   C1A 5383   6.858  12.804  10.093  0.0457 -0.0910  0.0293
  337loPI   C2A 5384   6.891  12.933   9.682 -0.0313  0.2620 -0.1066
  337loPI   C3A 5385   6.955  12.887   9.208  0.0135 -0.0879  0.0962
  337loPI   C4A 5386   6.947  12.921   8.818 -0.1377  0.0790  0.0720
  337loPI   C5A 5387   6.884  12.754   8.439  0.0630 -0.1363  0.3140
  337loPI   C6A 5388   6.767  12.738   7.994  0.0090 -0.3598 -0.1295
  337loPI   C1B 5389   7.216  12.492  10.032 -0.0126  0.0000  0.0857
  337loPI   C2B 5390   7.252  12.364   9.630 -0.0778  0.0833  0.1053
  337loPI   C3B 5391   7.341  12.503   9.142  0.1023 -0.2471  0.0182
  337loPI   C4B 5392   7.244  12.452   8.623 -0.0612 -0.2032 -0.0423
  338loPI    C1 5393  17.499  11.647  11.000 -0.0030  0.1084  0.0417
  338loPI    C2 5394  17.734  11.442  11.250 -0.1911 -0.0876  0.0614
  338loPI    C3 5395  17.424  11.649  11.393  0.0687  0.3157  0.0551
  338loPI   PO4 5396  17.601  11.858  10.877  0.2314 -0.1584  0.0151
  338loPI   GL1 5397  17.596  12.086  10.556  0.0666  0.0511 -0.0790
  338loPI   GL2 5398  17.559  12.465  10.430  0.1553 -0.0968  0.2134
  338loPI   C1A 5399  17.794  12.036  10.140 -0.0143  0.1588  0.3854
  338loPI   C2A 5400  17.865  12.113   9.797 -0.0764 -0.1730 -0.1687
  338loPI   C3A 5401  17.874  12.121   9.335  0.0868  0.1049  0.0807
  338loPI   C4A 5402  17.906  12.211   8.833  0.0127 -0.2442 -0.2150
  338loPI   C5A 5403  18.081  12.569   8.538 -0.1449  0.2068  0.1386
  338loPI   C6A 5404  18.211  12.613   8.083  0.0338 -0.0345  0.1377
  338loPI   C1B 5405  17.592  12.482   9.996 -0.5164  0.0900  0.3484
  338loPI   C2B 5406  17.578  12.541   9.606  0.1200  0.2093 -0.1649
  338loPI   C3B 5407  17.649  12.538   9.164  0.1658  0.0065  0.1410
  338loPI   C4B 5408  17.648  12.601   8.705  0.1416  0.3720  0.0802
  339loPI    C1 5409  15.452   1.926  11.349 -0.0160 -0.0006 -0.0164
  339loPI    C2 5410  15.577   2.306  11.330  0.1026 -0.0354  0.0575
  339loPI    C3 5411  15.366   2.180  11.646  0.2168 -0.0755  0.1184
  339loPI   PO4 5412  15.325   1.786  11.106  0.2214 -0.0825  0.1355
  339loPI   GL1 5413  15.446   1.606  10.735 -0.2065  0.0406  0.0568
  339loPI   GL2 5414  15.222   1.613  10.420  0.2530  0.0248  0.5355
  339loPI   C1A 5415  15.668   1.463  10.379 -0.1539  0.2662 -0.0167
  339loPI   C2A 5416  15.701   1.579   9.982 -0.3640 -0.0859  0.1935
  339loPI   C3A 5417  15.585   1.552   9.597 -0.1756 -0.1033  0.1193
  339loPI   C4A 5418  15.714   1.506   9.194  0.3700 -0.3050  0.0332
  339loPI   C5A 5419  15.797   1.512   8.786 -0.0650  0.0266 -0.3146
  339loPI   C6A 5420  15.685   1.572   8.323  0.0425 -0.0270  0.2047
  339loPI   C1B 5421  15.212   1.503  10.039 -0.0228 -0.0653 -0.0175
  339loPI   C2B 5422  15.070   1.542   9.593 -0.1788 -0.1243 -0.0061
  339loPI   C3B 5423  15.109   1.498   9.205 -0.0522  0.1267  0.0865
  339loPI   C4B 5424  15.079   1.578   8.788  0.2492  0.1288 -0.0634
  340loPI    C1 5425   1.367  13.655  11.075 -0.2501 -0.0720  0.0034
  340loPI    C2 5426   1.332  14.032  11.203 -0.0777  0.0382 -0.2648
  340loPI    C3 5427   1.072  13.754  11.326  0.0310  0.1542  0.2521
  340loPI   PO4 5428   1.434  13.582  10.914  0.0182  0.2728  0.0026
  340loPI   GL1 5429   1.632  13.626  10.471 -0.0442  0.0165  0.0007
  340loPI   GL2 5430   1.659  13.848  10.224 -0.2623  0.1071 -0.1670
  340loPI   C1A 5431   1.388  13.425  10.189 -0.0632  0.1651 -0.0162
  340loPI   C2A 5432   1.216  13.409   9.771 -0.1282  0.1502  0.0271
  340loPI   C3A 5433   1.308  13.323   9.368 -0.0285 -0.0764 -0.1395
  340loPI   C4A 5434   1.366  13.297   8.946  0.0217  0.0949  0.1484
  340loPI   C5A 5435   1.600  13.148   8.582  0.1457  0.1199  0.0639
  340loPI   C6A 5436   1.707  12.777   8.357 -0.1186  0.0259  0.0856
  340loPI   C1B 5437   1.626  13.751   9.823  0.3506  0.0968  0.1422
  340loPI   C2B 5438   1.600  13.764   9.373 -0.0490  0.6064  0.1483
  340loPI   C3B 5439   1.643  13.755   8.926  0.1538  0.2289  0.2933
  340loPI   C4B 5440   1.672  13.635   8.472  0.0180 -0.0723 -0.1022
  341loPI    C1 5441   0.352   7.756  11.117 -0.1143 -0.0834 -0.0894
  341loPI    C2 5442   0.505   7.827  11.480 -0.0232 -0.0061 -0.1422
  341loPI    C3 5443   0.216   7.553  11.434  0.0698 -0.1236 -0.0348
  341loPI   PO4 5444   0.397   7.979  11.039 -0.1778 -0.3931  0.2302
  341loPI   GL1 5445   0.352   8.264  10.640 -0.0983  0.0223  0.0035
  341loPI   GL2 5446   0.529   8.058  10.565  0.0176  0.1039  0.0263
  341loPI   C1A 5447   0.294   8.442  10.225  0.0682  0.0669 -0.1382
  341loPI   C2A 5448   0.225   8.499   9.765 -0.0592  0.0534  0.0840
  341loPI   C3A 5449   0.242   8.411   9.279 -0.0616 -0.0407 -0.1952
  341loPI   C4A 5450   0.197   8.417   8.832  0.0864 -0.0251  0.2199
  341loPI   C5A 5451   0.007   8.565   8.533  0.0557 -0.0474  0.1485
  341loPI   C6A 5452  -0.300   8.883   8.504  0.4734 -0.2323  0.0666
  341loPI   C1B 5453   0.607   8.044  10.136  0.0226 -0.4678 -0.0014
  341loPI   C2B 5454   0.512   7.999   9.649  0.0717 -0.1879 -0.1078
  341loPI   C3B 5455   0.517   7.958   9.224  0.3505 -0.0108  0.2443
  341loPI   C4B 5456   0.345   7.974   8.775 -0.2542 -0.2983 -0.1802
  342loPI    C1 5457   0.651   0.827  10.924  0.1125 -0.1389  0.0765
  342loPI    C2 5458   0.551   0.709  11.292  0.1566 -0.0672  0.1117
  342loPI    C3 5459   0.781   1.032  11.242 -0.0528  0.0685  0.0126
  342loPI   PO4 5460   0.675   0.632  10.767 -0.2525  0.0755 -0.0025
  342loPI   GL1 5461   0.738   0.599  10.381 -0.0772 -0.1884 -0.1559
  342loPI   GL2 5462   0.836   0.414  10.160 -0.1262  0.0487 -0.0012
  342loPI   C1A 5463   0.700   0.821   9.940  0.2464  0.4228 -0.1440
  342loPI   C2A 5464   0.662   0.798   9.524 -0.1209  0.0080  0.0142
  342loPI   C3A 5465   0.711   0.850   9.053 -0.0622  0.0630  0.1125
  342loPI   C4A 5466   0.562   0.908   8.619 -0.0520  0.5319  0.3036
  342loPI   C5A 5467   0.539   1.324   8.432  0.1130  0.2356 -0.1194
  342loPI   C6A 5468   0.366   1.533   8.193  0.0518  0.1676 -0.0938
  342loPI   C1B 5469   1.249   0.352   9.847 -0.1428 -0.0616 -0.2812
  342loPI   C2B 5470   1.432   0.377   9.445 -0.2495  0.1661  0.4139
  342loPI   C3B 5471   1.427   0.334   9.003 -0.0002  0.4666 -0.0302
  342loPI   C4B 5472   1.364   0.403   8.614  0.0601  0.2821  0.1461
  343loPI    C1 5473   3.920   8.801  11.084  0.0532 -0.2105  0.0460
  343loPI    C2 5474   3.789   8.869  11.456  0.2258  0.0974  0.0545
  343loPI    C3 5475   4.180   8.819  11.388  0.1946  0.0368 -0.0857
  343loPI   PO4 5476   3.692   8.709  10.910 -0.0988 -0.2215  0.0230
  343loPI   GL1 5477   3.368   8.819  10.726  0.2495 -0.1468  0.0999
  343loPI   GL2 5478   3.064   8.979  10.706 -0.2540 -0.3550  0.0122
  343loPI   C1A 5479   3.300   8.758  10.290  0.1208  0.0114  0.2690
  343loPI   C2A 5480   3.374   8.684   9.886 -0.0894  0.1467  0.2801
  343loPI   C3A 5481   3.445   8.573   9.447  0.1833 -0.1399  0.0567
  343loPI   C4A 5482   3.406   8.557   8.987  0.0443 -0.2194  0.0289
  343loPI   C5A 5483   3.671   8.414   8.651  0.1941  0.1807 -0.1913
  343loPI   C6A 5484   3.959   8.745   8.352  0.1010  0.1070 -0.1069
  343loPI   C1B 5485   3.074   9.235  10.346  0.3035  0.4290 -0.1998
  343loPI   C2B 5486   3.068   9.173   9.907 -0.2210 -0.1605 -0.1356
  343loPI   C3B 5487   3.164   9.063   9.462  0.2214  0.0685  0.0444
  343loPI   C4B 5488   3.135   9.133   8.991  0.2526 -0.1122 -0.1491
  344loPI    C1 5489   4.871  15.481  10.776 -0.0578  0.0151 -0.0251
  344loPI    C2 5490   4.994  15.510  11.155 -0.0054  0.1112 -0.0490
  344loPI    C3 5491   4.838  15.167  11.021  0.3490 -0.0530 -0.0510
  344loPI   PO4 5492   5.129  15.634  10.620  0.1054 -0.1979  0.2220
  344loPI   GL1 5493   5.188  15.787  10.372  0.1507  0.0935  0.3307
  344loPI   GL2 5494   5.035  15.996  10.168  0.0019 -0.0875  0.0270
  344loPI   C1A 5495   5.453  15.893   9.960 -0.0071 -0.1462  0.0765
  344loPI   C2A 5496   5.611  15.877   9.600 -0.3136 -0.0209  0.0985
  344loPI   C3A 5497   5.781  15.892   9.140  0.3400  0.0417  0.1812
  344loPI   C4A 5498   5.711  15.934   8.615 -0.3064  0.2906 -0.1862
  344loPI   C5A 5499   5.771  15.698   8.215 -0.2133  0.1761  0.1830
  344loPI   C6A 5500   5.429  15.459   8.121  0.3859  0.0558 -0.2817
  344loPI   C1B 5501   5.049  15.793   9.695  0.1633  0.0464 -0.1002
  344loPI   C2B 5502   5.189  15.884   9.290  0.1248  0.1298 -0.2240
  344loPI   C3B 5503   5.156  15.850   8.881 -0.1876 -0.0646  0.1753
  344loPI   C4B 5504   5.312  15.841   8.422  0.3343  0.0070 -0.2570
  345loPI    C1 5505   5.303   6.792  11.095 -0.0703 -0.0139 -0.2152
  345loPI    C2 5506   5.573   7.009  10.895 -0.0761  0.1141 -0.0856
  345loPI    C3 5507   5.637   6.913  11.278  0.0535 -0.3441 -0.2155
  345loPI   PO4 5508   5.028   6.889  11.073  0.1056  0.0635  0.3147
  345loPI   GL1 5509   4.764   6.870  10.652  0.4254 -0.1346  0.1875
  345loPI   GL2 5510   4.787   6.550  10.677 -0.1967 -0.1536 -0.0105
  345loPI   C1A 5511   4.659   7.074  10.273  0.0799 -0.0045  0.0415
  345loPI   C2A 5512   4.541   6.966   9.845  0.0096 -0.3217  0.1089
  345loPI   C3A 5513   4.602   7.014   9.592  0.0650  0.0416  0.1349
  345loPI   C4A 5514   4.758   6.921   9.132  0.2054 -0.0114  0.1927
  345loPI   C5A 5515   4.813   6.742   8.763  0.1968  0.0613 -0.1428
  345loPI   C6A 5516   5.102   6.457   8.565  0.0220 -0.2657 -0.0801
  345loPI   C1B 5517   4.590   6.529  10.289  0.0345  0.3170  0.1567
  345loPI   C2B 5518   4.341   6.519   9.916  0.0191  0.1506  0.2218
  345loPI   C3B 5519   4.393   6.463   9.505 -0.0119  0.3909 -0.2492
  345loPI   C4B 5520   4.539   6.472   9.168 -0.0880  0.0598 -0.1493
  346loPI    C1 5521   7.024   7.556  10.985 -0.0321  0.1463  0.0342
  346loPI    C2 5522   7.130   7.418  11.345  0.0568  0.0335 -0.0345
  346loPI    C3 5523   6.747   7.506  11.270  0.0513  0.1420  0.1150
  346loPI   PO4 5524   7.093   7.466  10.775  0.0783  0.0108 -0.1902
  346loPI   GL1 5525   7.389   7.165  10.463  0.2562 -0.2621  0.0378
  346loPI   GL2 5526   7.550   6.949  10.379 -0.0478 -0.0903 -0.0920
  346loPI   C1A 5527   7.225   7.371  10.101 -0.1234 -0.0218 -0.1026
  346loPI   C2A 5528   7.204   7.447   9.676 -0.2368 -0.0296 -0.0617
  346loPI   C3A 5529   7.270   7.357   9.228 -0.0807  0.1728 -0.0088
  346loPI   C4A 5530   7.277   7.451   8.777  0.0050  0.1311  0.2058
  346loPI   C5A 5531   7.426   7.247   8.403  0.1538  0.1753 -0.2592
  346loPI   C6A 5532   7.785   6.966   8.246 -0.1724 -0.3350 -0.3418
  346loPI   C1B 5533   7.582   6.927   9.994 -0.1965 -0.1646 -0.0976
  346loPI   C2B 5534   7.549   7.004   9.621 -0.3164 -0.1034  0.2318
  346loPI   C3B 5535   7.581   6.974   9.200  0.0849 -0.0779  0.3341
  346loPI   C4B 5536   7.617   6.949   8.753 -0.2445  0.0542  0.0350
  347loPI    C1 5537  10.101   2.817  11.325  0.2513  0.0611  0.0098
  347loPI    C2 5538  10.128   3.187  11.474 -0.1512  0.1553 -0.1370
  347loPI    C3 5539   9.901   2.915  11.658 -0.0712  0.0596 -0.1790
  347loPI   PO4 5540  10.104   2.886  11.061  0.0131  0.2645  0.1113
  347loPI   GL1 5541  10.228   2.757  10.551  0.0951 -0.0814 -0.0534
  347loPI   GL2 5542   9.903   2.664  10.446  0.0813 -0.2129 -0.4973
  347loPI   C1A 5543  10.386   2.554  10.214  0.2970  0.0442  0.2124
  347loPI   C2A 5544  10.497   2.664   9.763 -0.0516  0.0191 -0.2414
  347loPI   C3A 5545  10.497   2.660   9.322  0.1777 -0.1660 -0.0994
  347loPI   C4A 5546  10.376   2.708   8.917  0.1399 -0.1856  0.1453
  347loPI   C5A 5547  10.336   2.564   8.538  0.2272  0.1345  0.2068
  347loPI   C6A 5548  10.447   2.450   8.153 -0.0870 -0.0251  0.0565
  347loPI   C1B 5549   9.938   2.666  10.023 -0.1701 -0.2764 -0.2588
  347loPI   C2B 5550  10.033   2.667   9.540 -0.0708  0.0135  0.0858
  347loPI   C3B 5551   9.913   2.638   9.098 -0.3808 -0.2197 -0.1235
  347loPI   C4B 5552   9.851   2.626   8.745 -0.2105 -0.0975  0.0438
  348loPI    C1 5553  16.876   4.301  11.286  0.0747  0.2838  0.1494
  348loPI    C2 5554  16.676   4.201  11.617 -0.0067  0.1765  0.0687
  348loPI    C3 5555  17.031   4.383  11.645 -0.0659  0.2716  0.2134
  348loPI   PO4 5556  16.633   4.419  11.156 -0.1881 -0.1484  0.1292
  348loPI   GL1 5557  16.479   4.209  10.805 -0.0377  0.2477 -0.0836
  348loPI   GL2 5558  16.858   4.345  10.699  0.1443 -0.0500 -0.0949
  348loPI   C1A 5559  16.347   4.287  10.464 -0.3573 -0.0796 -0.3586
  348loPI   C2A 5560  16.357   4.182   9.964 -0.0950 -0.0194  0.2427
  348loPI   C3A 5561  16.338   4.113   9.560 -0.1599  0.0546 -0.0995
  348loPI   C4A 5562  16.297   4.142   9.134  0.0457 -0.2702 -0.0110
  348loPI   C5A 5563  16.342   4.099   8.703  0.0991 -0.0038  0.3266
  348loPI   C6A 5564  16.036   3.888   8.499  0.0172  0.1348  0.0631
  348loPI   C1B 5565  16.946   3.990  10.382  0.1469 -0.0033  0.1443
  348loPI   C2B 5566  16.994   4.060   9.950  0.1904  0.2998  0.0124
  348loPI   C3B 5567  16.869   4.095   9.554 -0.0075 -0.3482  0.0656
  348loPI   C4B 5568  16.858   4.074   9.099  0.2070  0.0122 -0.1069
  349loPI    C1 5569   4.560   8.506  11.213  0.0797 -0.1508 -0.0283
  349loPI    C2 5570   4.213   8.317  11.278 -0.0290  0.0912  0.1065
  349loPI    C3 5571   4.437   8.436  11.587  0.0667  0.1321  0.0218
  349loPI   PO4 5572   4.550   8.511  10.971  0.3383  0.1250 -0.0963
  349loPI   GL1 5573   4.496   8.762  10.546  0.1640 -0.0673  0.1512
  349loPI   GL2 5574   4.168   8.585  10.676  0.3738 -0.2872  0.1478
  349loPI   C1A 5575   4.420   8.775  10.206 -0.1781 -0.1314  0.2671
  349loPI   C2A 5576   4.426   8.732   9.723  0.1439  0.0816  0.0265
  349loPI   C3A 5577   4.420   8.692   9.228  0.1191 -0.1833  0.1886
  349loPI   C4A 5578   4.338   8.763   8.781  0.0960 -0.1191  0.2205
  349loPI   C5A 5579   4.485   8.759   8.351 -0.0567 -0.2561  0.1213
  349loPI   C6A 5580   4.294   8.538   8.026 -0.2138  0.1631 -0.1179
  349loPI   C1B 5581   4.156   8.384  10.337 -0.0618  0.1727 -0.2737
  349loPI   C2B 5582   4.237   8.236   9.920  0.0492  0.0319 -0.2079
  349loPI   C3B 5583   4.212   8.259   9.461  0.0877 -0.1888  0.1341
  349loPI   C4B 5584   4.332   8.267   8.988  0.0356 -0.0451 -0.2251
  350loPI    C1 5585  14.258  14.492  11.244 -0.1741  0.0419 -0.2136
  350loPI    C2 5586  14.494  14.244  11.452 -0.3452 -0.1084 -0.1966
  350loPI    C3 5587  14.325  14.558  11.633 -0.1819 -0.0162 -0.2022
  350loPI   PO4 5588  14.410  14.531  11.055 -0.0004 -0.2610 -0.0279
  350loPI   GL1 5589  14.661  14.677  10.694  0.0809 -0.0745  0.2262
  350loPI   GL2 5590  14.283  14.891  10.554 -0.0944  0.3364  0.0807
  350loPI   C1A 5591  14.876  14.800  10.396 -0.2038 -0.1615  0.2854
  350loPI   C2A 5592  14.810  14.848   9.946  0.2284 -0.1225 -0.0274
  350loPI   C3A 5593  14.865  14.859   9.482  0.2080 -0.1188 -0.2775
  350loPI   C4A 5594  14.819  14.911   9.058  0.0070  0.1486  0.0720
  350loPI   C5A 5595  14.994  14.913   8.622  0.0176 -0.1562  0.0939
  350loPI   C6A 5596  15.207  14.805   8.355 -0.2801  0.4485  0.0129
  350loPI   C1B 5597  14.324  14.828   9.995  0.0618 -0.1152  0.0505
  350loPI   C2B 5598  14.294  14.950   9.573 -0.5660 -0.0654 -0.0529
  350loPI   C3B 5599  14.314  15.033   9.135  0.1865  0.1894  0.1254
  350loPI   C4B 5600  14.457  14.867   8.706  0.0518  0.0657  0.2141
  351loPI    C1 5601  10.512  17.205  11.137 -0.0002 -0.0789 -0.2524
  351loPI    C2 5602  10.683  17.472  11.381  0.0700 -0.0830 -0.2969
  351loPI    C3 5603  10.312  17.343  11.455  0.0439  0.0105 -0.2629
  351loPI   PO4 5604  10.576  17.320  10.884  0.3485 -0.0930  0.3266
  351loPI   GL1 5605  10.915  17.279  10.564 -0.1719  0.2690  0.1973
  351loPI   GL2 5606  10.589  17.297  10.390 -0.1145 -0.0739 -0.0463
  351loPI   C1A 5607  11.194  17.389  10.248 -0.0859 -0.1608  0.0283
  351loPI   C2A 5608  11.246  17.345   9.802  0.1668 -0.3543  0.1566
  351loPI   C3A 5609  11.236  17.375   9.374  0.0600 -0.2181  0.0150
  351loPI   C4A 5610  11.219  17.284   9.029  0.0766 -0.1169  0.0583
  351loPI   C5A 5611  11.025  16.959   8.740 -0.0179  0.0463 -0.2439
  351loPI   C6A 5612  10.961  17.006   8.330 -0.1556  0.1373  0.0819
  351loPI   C1B 5613  10.782  17.377   9.945 -0.0808 -0.2502  0.0454
  351loPI   C2B 5614  10.746  17.373   9.559 -0.0009 -0.1742  0.2778
  351loPI   C3B 5615  10.740  17.358   9.115  0.3839  0.0125  0.3540
  351loPI   C4B 5616  10.771  17.436   8.589  0.0415  0.2901 -0.2229
  352loPI    C1 5617  13.550  13.952  11.357  0.1450  0.1059  0.1012
  352loPI    C2 5618  13.802  13.646  11.407  0.0356  0.0196  0.1279
  352loPI    C3 5619  13.586  13.780  11.716  0.0571  0.1009  0.1078
  352loPI   PO4 5620  13.736  14.063  11.144 -0.1127  0.0447 -0.0441
  352loPI   GL1 5621  13.822  14.153  10.712  0.0270  0.1006 -0.1488
  352loPI   GL2 5622  14.059  14.352  10.692  0.1368 -0.1175  0.1622
  352loPI   C1A 5623  13.777  14.011  10.202  0.0686 -0.0138 -0.1513
  352loPI   C2A 5624  13.821  14.049   9.762  0.0064  0.0069 -0.1884
  352loPI   C3A 5625  13.786  14.125   9.341 -0.1806 -0.0687 -0.1121
  352loPI   C4A 5626  13.888  14.167   8.997 -0.2905 -0.0996  0.2590
  352loPI   C5A 5627  14.202  14.150   8.716 -0.0904  0.0784  0.0445
  352loPI   C6A 5628  14.554  14.423   8.522 -0.1068 -0.1986  0.1791
  352loPI   C1B 5629  14.063  14.415  10.143 -0.1755  0.2725  0.2665
  352loPI   C2B 5630  14.071  14.528   9.683  0.3014 -0.3881 -0.0763
  352loPI   C3B 5631  14.031  14.555   9.252 -0.2918  0.1724 -0.2315
  352loPI   C4B 5632  14.060  14.635   8.859 -0.0081 -0.3018  0.1661
  353loPI    C1 5633   2.932   5.031  11.120  0.0644  0.1107 -0.0257
  353loPI    C2 5634   2.787   4.753  11.368  0.0355  0.1248 -0.0268
  353loPI    C3 5635   2.537   4.975  11.149  0.0580  0.1593 -0.0177
  353loPI   PO4 5636   3.054   4.952  10.941 -0.0513  0.2756 -0.0827
  353loPI   GL1 5637   3.170   5.041  10.593 -0.0360 -0.2093  0.0546
  353loPI   GL2 5638   2.902   4.941  10.406 -0.0288  0.0533  0.2547
  353loPI   C1A 5639   3.384   4.976  10.178 -0.0085  0.0062 -0.0387
  353loPI   C2A 5640   3.415   4.941   9.720 -0.2096  0.1854 -0.2085
  353loPI   C3A 5641   3.341   4.744   9.320  0.3692  0.2328 -0.1392
  353loPI   C4A 5642   3.323   4.612   8.946  0.0490 -0.1159  0.0545
  353loPI   C5A 5643   3.048   4.503   8.632  0.0267 -0.1733 -0.3023
  353loPI   C6A 5644   2.927   4.379   8.116 -0.2303 -0.3068 -0.4067
  353loPI   C1B 5645   2.602   5.198  10.155 -0.0511  0.1601  0.1327
  353loPI   C2B 5646   2.506   5.303   9.719 -0.0964 -0.1015 -0.2112
  353loPI   C3B 5647   2.333   5.590   9.439  0.3464 -0.1328  0.0673
  353loPI   C4B 5648   2.479   5.705   9.024 -0.0444  0.0596 -0.1645
  354loPI    C1 5649  10.799   6.332  11.232  0.2970  0.0166 -0.1862
  354loPI    C2 5650  11.048   6.641  11.185 -0.1405  0.4670  0.3215
  354loPI    C3 5651  11.031   6.450  11.536  0.0646 -0.0934  0.0380
  354loPI   PO4 5652  10.874   6.155  10.930 -0.4223  0.1466 -0.0117
  354loPI   GL1 5653  10.749   6.093  10.472  0.2224  0.4543 -0.0011
  354loPI   GL2 5654  11.015   6.135  10.404 -0.0387  0.2559 -0.2438
  354loPI   C1A 5655  10.618   6.077  10.030 -0.0373  0.1760  0.1741
  354loPI   C2A 5656  10.722   6.000   9.650  0.1998 -0.0668  0.1021
  354loPI   C3A 5657  10.821   6.126   9.199  0.0790  0.1016 -0.3424
  354loPI   C4A 5658  10.812   6.278   8.820  0.0364 -0.0646  0.0071
  354loPI   C5A 5659  11.142   6.446   8.575  0.1026 -0.0400  0.0629
  354loPI   C6A 5660  11.338   6.282   8.230  0.3483 -0.2812 -0.2786
  354loPI   C1B 5661  11.152   6.179  10.025 -0.0033 -0.1093 -0.3673
  354loPI   C2B 5662  11.201   6.178   9.618 -0.2753  0.1553  0.1564
  354loPI   C3B 5663  11.307   6.281   9.068  0.1730  0.3129  0.1924
  354loPI   C4B 5664  11.600   6.221   8.887  0.1457 -0.1982  0.1198
  355loPI    C1 5665   2.931   9.933  11.219  0.2877 -0.0295  0.0008
  355loPI    C2 5666   2.617  10.180  11.246  0.2430 -0.0398 -0.3758
  355loPI    C3 5667   2.857  10.127  11.561 -0.2244 -0.1563 -0.0295
  355loPI   PO4 5668   2.888   9.772  11.048  0.0464  0.1396 -0.0207
  355loPI   GL1 5669   2.678   9.575  10.691  0.2321 -0.0971  0.2192
  355loPI   GL2 5670   2.473   9.389  10.639  0.1265 -0.1020  0.1004
  355loPI   C1A 5671   2.743   9.572  10.151 -0.0202  0.0528  0.2585
  355loPI   C2A 5672   2.708   9.510   9.656 -0.1424  0.1100  0.0626
  355loPI   C3A 5673   2.870   9.485   9.261 -0.0087  0.0002  0.1078
  355loPI   C4A 5674   2.782   9.468   8.799  0.0179  0.2400 -0.2118
  355loPI   C5A 5675   2.671   9.730   8.422  0.3855  0.0176 -0.0266
  355loPI   C6A 5676   2.847   9.947   7.970  0.0668 -0.1096  0.0995
  355loPI   C1B 5677   2.283   9.322  10.332  0.0855  0.1572  0.1541
  355loPI   C2B 5678   2.239   9.404   9.802  0.0900  0.2401 -0.0719
  355loPI   C3B 5679   2.291   9.348   9.389 -0.2013 -0.1599  0.1557
  355loPI   C4B 5680   2.322   9.432   9.077 -0.3282  0.0995 -0.0548
  356loPI    C1 5681   7.196  17.515  10.945  0.1049 -0.0946 -0.2263
  356loPI    C2 5682   7.269  17.767  11.247  0.1540 -0.0601 -0.2667
  356loPI    C3 5683   7.304  17.372  11.303 -0.1452 -0.0716 -0.1398
  356loPI   PO4 5684   7.233  17.701  10.776 -0.1835 -0.0095  0.0241
  356loPI   GL1 5685   7.513  17.657  10.499  0.1880 -0.1072  0.2137
  356loPI   GL2 5686   7.764  17.416  10.449  0.1515  0.1195 -0.1921
  356loPI   C1A 5687   7.468  17.725  10.096 -0.1589 -0.0628  0.0295
  356loPI   C2A 5688   7.398  17.596   9.699  0.3572 -0.1856  0.2174
  356loPI   C3A 5689   7.507  17.683   9.242  0.0815  0.0783  0.1269
  356loPI   C4A 5690   7.273  17.751   8.738 -0.3266 -0.0159  0.1744
  356loPI   C5A 5691   7.020  17.804   8.399 -0.0669 -0.2066  0.4569
  356loPI   C6A 5692   6.664  17.893   8.113  0.2085  0.2871  0.1407
  356loPI   C1B 5693   7.699  17.293   9.984 -0.0267 -0.1052 -0.0581
  356loPI   C2B 5694   7.701  17.252   9.476 -0.1903  0.1495 -0.0969
  356loPI   C3B 5695   7.618  17.153   9.103  0.0283  0.2623  0.0828
  356loPI   C4B 5696   7.654  16.977   8.672  0.0365 -0.0472 -0.1819
  357loPI    C1 5697   3.524   4.177  10.995 -0.1218  0.0565 -0.0528
  357loPI    C2 5698   3.807   3.964  11.182  0.0802  0.1245 -0.2765
  357loPI    C3 5699   3.523   4.149  11.394  0.0557 -0.1497 -0.0646
  357loPI   PO4 5700   3.653   4.302  10.804 -0.1512 -0.2455 -0.1091
  357loPI   GL1 5701   3.593   4.195  10.502 -0.0184  0.1925 -0.2673
  357loPI   GL2 5702   3.946   4.224  10.306  0.0712 -0.1640  0.1274
  357loPI   C1A 5703   3.477   4.138   9.989 -0.0318  0.1800  0.1616
  357loPI   C2A 5704   3.463   4.145   9.566  0.1356 -0.0307 -0.2453
  357loPI   C3A 5705   3.594   4.192   9.177 -0.1124  0.0952 -0.0273
  357loPI   C4A 5706   3.590   4.083   8.766  0.2233  0.1444  0.0871
  357loPI   C5A 5707   3.757   3.799   8.420  0.1647 -0.1172  0.0147
  357loPI   C6A 5708   3.654   3.762   8.012  0.2463 -0.0629  0.0630
  357loPI   C1B 5709   3.982   4.218   9.911 -0.2782  0.4374  0.1211
  357loPI   C2B 5710   4.032   4.156   9.497 -0.2362 -0.4813  0.0803
  357loPI   C3B 5711   4.095   4.116   9.103  0.0857 -0.1596  0.0085
  357loPI   C4B 5712   4.112   4.067   8.681 -0.0160  0.2280 -0.0192
  358loPI    C1 5713   3.448   2.136  10.987 -0.0932 -0.0223 -0.0388
  358loPI    C2 5714   3.260   2.259  11.318  0.1326 -0.3528  0.2197
  358loPI    C3 5715   3.633   2.384  11.242 -0.0358 -0.0172 -0.0851
  358loPI   PO4 5716   3.320   2.182  10.726  0.2326 -0.1851  0.0920
  358loPI   GL1 5717   3.053   1.994  10.459 -0.0156  0.0195  0.0383
  358loPI   GL2 5718   2.953   2.259  10.293  0.0281  0.1347  0.2372
  358loPI   C1A 5719   3.029   1.851  10.021 -0.1763 -0.0626 -0.0666
  358loPI   C2A 5720   3.438   1.645   9.751 -0.1908  0.4244 -0.0757
  358loPI   C3A 5721   3.424   1.543   9.395 -0.2950 -0.2020 -0.0261
  358loPI   C4A 5722   3.274   1.832   9.013 -0.0079 -0.0343  0.1250
  358loPI   C5A 5723   3.092   2.044   8.585 -0.1567  0.2960 -0.0179
  358loPI   C6A 5724   2.676   2.077   8.311  0.0162  0.1967 -0.0593
  358loPI   C1B 5725   2.895   2.472   9.831  0.0619  0.0791 -0.1266
  358loPI   C2B 5726   2.833   2.468   9.382 -0.1291  0.1876 -0.2467
  358loPI   C3B 5727   2.926   2.138   9.117  0.0722  0.1145 -0.0214
  358loPI   C4B 5728   2.617   2.043   8.817  0.5218  0.3376  0.1197
  359loPI    C1 5729  12.332   9.434  10.837 -0.0266  0.4448  0.1020
  359loPI    C2 5730  12.477   9.112  11.024 -0.2380  0.2223 -0.1085
  359loPI    C3 5731  12.354   9.428  11.236 -0.0291  0.1673  0.1000
  359loPI   PO4 5732  12.463   9.422  10.566  0.2745  0.0300 -0.0162
  359loPI   GL1 5733  12.305   9.255  10.219 -0.1217 -0.1974 -0.0838
  359loPI   GL2 5734  12.154   9.527  10.157 -0.0910 -0.1043  0.2158
  359loPI   C1A 5735  12.480   9.201   9.832 -0.2715 -0.0884  0.1633
  359loPI   C2A 5736  12.538   9.320   9.388  0.0552  0.0897 -0.4392
  359loPI   C3A 5737  12.783   9.268   9.034 -0.1462 -0.2593  0.2949
  359loPI   C4A 5738  12.913   9.339   8.621 -0.0769 -0.0210 -0.0314
  359loPI   C5A 5739  12.811   9.367   8.259  0.0568 -0.1810  0.0887
  359loPI   C6A 5740  12.592   9.168   8.016  0.0644 -0.0978 -0.0272
  359loPI   C1B 5741  12.011   9.432   9.838 -0.1137 -0.0487 -0.0394
  359loPI   C2B 5742  12.033   9.314   9.481 -0.3593 -0.0695  0.3292
  359loPI   C3B 5743  12.190   9.338   9.003  0.0442  0.0936  0.1517
  359loPI   C4B 5744  12.424   9.324   8.616  0.1265 -0.0423  0.2727
  360loPI    C1 5745  11.136  10.046  10.975  0.1315  0.0443  0.0455
  360loPI    C2 5746  10.981   9.857  11.292 -0.0525 -0.0487 -0.0981
  360loPI    C3 5747  11.236  10.161  11.345 -0.2532  0.0814  0.1419
  360loPI   PO4 5748  11.158   9.884  10.788  0.1016  0.1644 -0.0235
  360loPI   GL1 5749  11.364   9.959  10.335 -0.1471  0.0235  0.1286
  360loPI   GL2 5750  11.120   9.726  10.310 -0.2382 -0.2358 -0.1921
  360loPI   C1A 5751  11.342  10.288   9.943  0.2427 -0.2053 -0.0298
  360loPI   C2A 5752  11.296  10.292   9.554  0.1512  0.0226  0.1852
  360loPI   C3A 5753  11.497  10.184   9.148  0.3210 -0.1438  0.1160
  360loPI   C4A 5754  11.755  10.206   8.821 -0.1545 -0.0443  0.1503
  360loPI   C5A 5755  11.623  10.270   8.380 -0.3911  0.0169 -0.0745
  360loPI   C6A 5756  11.404  10.449   8.150  0.0740  0.0685 -0.1011
  360loPI   C1B 5757  11.191   9.825   9.805 -0.0991  0.0364 -0.2955
  360loPI   C2B 5758  11.022   9.772   9.362  0.2245  0.1899  0.2379
  360loPI   C3B 5759  11.189   9.586   9.003 -0.0469 -0.1414 -0.0383
  360loPI   C4B 5760  11.135   9.190   8.822  0.1189 -0.5384 -0.1461
  361loPI    C1 5761   7.976   7.441  11.101  0.0257 -0.3394  0.0869
  361loPI    C2 5762   8.264   7.331  11.357  0.1395 -0.0403  0.0921
  361loPI    C3 5763   7.971   7.574  11.479  0.0983 -0.0349 -0.0167
  361loPI   PO4 5764   8.108   7.528  10.855 -0.0928 -0.0631  0.0723
  361loPI   GL1 5765   8.082   7.793  10.460 -0.0528 -0.3334 -0.1328
  361loPI   GL2 5766   8.285   7.972  10.545 -0.2927 -0.1483  0.0555
  361loPI   C1A 5767   8.030   7.857  10.005  0.1331 -0.0200 -0.4200
  361loPI   C2A 5768   7.927   7.949   9.520 -0.0956 -0.1556 -0.2015
  361loPI   C3A 5769   7.900   7.861   9.075  0.2610 -0.4626 -0.0739
  361loPI   C4A 5770   8.006   7.965   8.713 -0.0618  0.0251  0.2674
  361loPI   C5A 5771   7.930   7.949   8.255 -0.2358  0.0294  0.0691
  361loPI   C6A 5772   7.849   7.912   7.817 -0.1621  0.0484  0.1489
  361loPI   C1B 5773   8.518   7.997  10.116 -0.2634  0.4725 -0.1098
  361loPI   C2B 5774   8.408   8.025   9.732 -0.2635  0.0027 -0.0480
  361loPI   C3B 5775   8.511   8.017   9.317 -0.3233  0.0018 -0.1724
  361loPI   C4B 5776   8.455   8.022   8.949  0.1111  0.1147  0.0820
  362loPI    C1 5777   2.778  12.300  10.979 -0.1911  0.0681  0.0447
  362loPI    C2 5778   2.819  12.559  11.282 -0.0456  0.0119  0.0739
  362loPI    C3 5779   2.459  12.409  11.194 -0.1029  0.0973  0.1619
  362loPI   PO4 5780   2.936  12.342  10.787 -0.0092  0.0425  0.0046
  362loPI   GL1 5781   3.031  12.259  10.372  0.2477  0.3108  0.2052
  362loPI   GL2 5782   2.750  12.247  10.275 -0.0037  0.0522  0.0243
  362loPI   C1A 5783   3.243  12.290  10.084 -0.1653  0.0086 -0.0540
  362loPI   C2A 5784   3.250  12.274   9.659 -0.0504 -0.1035 -0.1531
  362loPI   C3A 5785   3.333  12.231   9.227  0.0951  0.3820 -0.0471
  362loPI   C4A 5786   3.324  12.307   8.776 -0.0270 -0.1170 -0.2458
  362loPI   C5A 5787   3.521  12.145   8.500  0.1344  0.2465  0.1029
  362loPI   C6A 5788   3.697  12.188   8.092 -0.3306 -0.4035 -0.1704
  362loPI   C1B 5789   2.746  12.268   9.743  0.0548 -0.3840 -0.0086
  362loPI   C2B 5790   2.836  12.178   9.379 -0.0646 -0.1326  0.2889
  362loPI   C3B 5791   2.888  12.150   8.944  0.0873 -0.1490  0.1862
  362loPI   C4B 5792   2.912  12.170   8.478 -0.2056 -0.1735 -0.0059
  363loPI    C1 5793  10.974   1.250  10.913 -0.1389  0.0966 -0.0435
  363loPI    C2 5794  10.926   1.301  11.307 -0.0870  0.2185 -0.0527
  363loPI    C3 5795  11.267   1.414  11.130 -0.1514  0.2624 -0.1499
  363loPI   PO4 5796  10.810   1.398  10.743  0.1241 -0.1255  0.0448
  363loPI   GL1 5797  10.749   1.401  10.377 -0.1281  0.2358 -0.0331
  363loPI   GL2 5798  10.485   1.656  10.283 -0.2203  0.0799  0.1601
  363loPI   C1A 5799  10.786   1.240   9.956  0.1483 -0.1802  0.1084
  363loPI   C2A 5800  10.719   1.288   9.522  0.1084  0.1921  0.3589
  363loPI   C3A 5801  10.732   1.279   9.047 -0.0789 -0.1051  0.3468
  363loPI   C4A 5802  10.698   1.252   8.637  0.0867  0.1759 -0.1090
  363loPI   C5A 5803  10.595   1.113   8.201  0.0846  0.0641  0.0235
  363loPI   C6A 5804  10.383   0.886   7.823 -0.1233  0.1575  0.1581
  363loPI   C1B 5805  10.456   1.794   9.882 -0.0498  0.1632  0.3971
  363loPI   C2B 5806  10.454   1.688   9.466 -0.0996 -0.1721 -0.1044
  363loPI   C3B 5807  10.351   1.765   8.973  0.3631  0.0010 -0.1687
  363loPI   C4B 5808  10.387   1.662   8.636  0.0011  0.1590 -0.4308
  364loPI    C1 5809  10.375   3.827  10.854  0.0157 -0.4623 -0.0088
  364loPI    C2 5810  10.256   3.807  11.235  0.0085  0.2767  0.0433
  364loPI    C3 5811  10.645   3.841  11.149  0.0216 -0.0227 -0.0281
  364loPI   PO4 5812  10.036   3.914  10.781 -0.2804 -0.0513 -0.2189
  364loPI   GL1 5813   9.937   4.032  10.409  0.2000  0.1537 -0.2825
  364loPI   GL2 5814   9.775   4.273  10.255 -0.1949 -0.1009 -0.0334
  364loPI   C1A 5815  10.169   4.109  10.015 -0.0066  0.2177  0.3596
  364loPI   C2A 5816  10.292   3.970   9.584  0.1241 -0.0557 -0.0983
  364loPI   C3A 5817  10.293   4.046   9.127  0.2247  0.1239 -0.3740
  364loPI   C4A 5818  10.333   4.065   8.610 -0.1764 -0.0098 -0.0844
  364loPI   C5A 5819  10.450   4.325   8.309  0.2008  0.5449  0.0652
  364loPI   C6A 5820  10.550   4.649   7.951 -0.3981 -0.3757  0.0589
  364loPI   C1B 5821   9.640   4.504   9.898 -0.0855 -0.1215 -0.6149
  364loPI   C2B 5822   9.510   4.554   9.508 -0.0835 -0.2056  0.2457
  364loPI   C3B 5823   9.527   4.517   9.046  0.1689 -0.0851 -0.1958
  364loPI   C4B 5824   9.607   4.755   8.715 -0.0490 -0.0842 -0.0614
  365loPI    C1 5825  10.687  10.341  11.129 -0.2534  0.3169  0.0630
  365loPI    C2 5826  10.906  10.512  11.418  0.2209  0.0414 -0.1222
  365loPI    C3 5827  10.665  10.204  11.505  0.1558  0.1327  0.0247
  365loPI   PO4 5828  10.897  10.458  10.909 -0.0436 -0.3306 -0.1323
  365loPI   GL1 5829  11.003  10.305  10.528 -0.0437  0.0078  0.0681
  365loPI   GL2 5830  10.801  10.073  10.453  0.1666  0.4470 -0.1280
  365loPI   C1A 5831  10.945  10.642  10.115 -0.0165 -0.1282  0.0254
  365loPI   C2A 5832  10.961  10.724   9.685  0.2047  0.0738 -0.3464
  365loPI   C3A 5833  10.915  10.676   9.298  0.1947  0.0100  0.0096
  365loPI   C4A 5834  10.903  10.706   8.939  0.1213  0.0928  0.0695
  365loPI   C5A 5835  10.740  10.399   8.667 -0.0627 -0.0282  0.1531
  365loPI   C6A 5836  10.643  10.062   8.389  0.3188  0.1471  0.3260
  365loPI   C1B 5837  10.789  10.139  10.089  0.0825  0.1273 -0.1502
  365loPI   C2B 5838  10.747  10.240   9.628  0.0379 -0.1983 -0.4623
  365loPI   C3B 5839  10.706  10.264   9.172  0.0476  0.0526 -0.1689
  365loPI   C4B 5840  10.982  10.045   8.869  0.2482  0.1699  0.0549
  366loPI    C1 5841   7.484  16.684  10.959  0.2234  0.0142  0.1110
  366loPI    C2 5842   7.858  16.719  11.097  0.2073  0.2189  0.1068
  366loPI    C3 5843   7.605  17.028  11.124  0.0555  0.1004  0.0577
  366loPI   PO4 5844   7.502  16.656  10.688  0.1056  0.0491 -0.1819
  366loPI   GL1 5845   7.673  16.446  10.490  0.2729  0.0782  0.0476
  366loPI   GL2 5846   7.318  16.358  10.285 -0.0559  0.2807 -0.3446
  366loPI   C1A 5847   7.768  16.445  10.096  0.3454  0.0409  0.1737
  366loPI   C2A 5848   7.720  16.317   9.635  0.3009 -0.2235  0.0983
  366loPI   C3A 5849   7.766  16.276   9.247  0.0407 -0.0841  0.0494
  366loPI   C4A 5850   7.738  16.154   8.799 -0.3624  0.0772 -0.1013
  366loPI   C5A 5851   7.694  15.919   8.452  0.1374  0.0021 -0.2265
  366loPI   C6A 5852   7.654  15.905   8.059 -0.1397 -0.1968 -0.2724
  366loPI   C1B 5853   7.190  16.322   9.874  0.0683 -0.1276 -0.0655
  366loPI   C2B 5854   7.138  16.210   9.431 -0.0471  0.3138 -0.3272
  366loPI   C3B 5855   7.246  16.207   9.024  0.4294  0.0853 -0.1050
  366loPI   C4B 5856   7.104  16.060   8.592 -0.0881  0.2627  0.2185
  367loPI    C1 5857   4.936   8.193  11.360 -0.0577  0.0979  0.0632
  367loPI    C2 5858   4.974   8.536  11.563  0.1248 -0.1126  0.3950
  367loPI    C3 5859   4.947   8.189  11.760 -0.1089 -0.2881  0.0644
  367loPI   PO4 5860   5.131   8.197  11.156 -0.1387  0.3568 -0.0677
  367loPI   GL1 5861   4.947   8.310  10.680  0.1716 -0.1776  0.0044
  367loPI   GL2 5862   5.211   8.473  10.599  0.1906 -0.2168  0.1189
  367loPI   C1A 5863   4.703   8.422  10.272 -0.1434 -0.0317 -0.2232
  367loPI   C2A 5864   4.738   8.293   9.762 -0.2239  0.0726 -0.0169
  367loPI   C3A 5865   4.724   8.296   9.304 -0.0901 -0.0536  0.1752
  367loPI   C4A 5866   4.762   8.344   8.808 -0.3224  0.0464 -0.0561
  367loPI   C5A 5867   4.581   8.241   8.450  0.1654  0.0311  0.2423
  367loPI   C6A 5868   4.253   8.049   8.111  0.0205  0.1812  0.0337
  367loPI   C1B 5869   5.209   8.342  10.151  0.1513 -0.3429 -0.1218
  367loPI   C2B 5870   5.234   8.381   9.683 -0.1006  0.1553  0.0704
  367loPI   C3B 5871   5.271   8.398   9.271 -0.1471 -0.0119  0.0418
  367loPI   C4B 5872   5.261   8.380   8.809  0.0176  0.1577  0.1559
  368loPI    C1 5873   2.523  14.066  11.068 -0.1247 -0.0792 -0.1089
  368loPI    C2 5874   2.610  14.403  11.265 -0.0720 -0.0692 -0.1493
  368loPI    C3 5875   2.544  14.065  11.467 -0.1125 -0.0376 -0.1094
  368loPI   PO4 5876   2.348  14.136  10.835 -0.1209  0.3341  0.0004
  368loPI   GL1 5877   2.495  14.304  10.454 -0.0949 -0.1211 -0.2322
  368loPI   GL2 5878   2.801  14.207  10.408 -0.2291 -0.0531 -0.1425
  368loPI   C1A 5879   2.424  14.165  10.065 -0.2018 -0.1791 -0.1260
  368loPI   C2A 5880   2.523  14.332   9.722 -0.1927  0.2865 -0.1099
  368loPI   C3A 5881   2.715  14.546   9.409  0.1566 -0.2900  0.1425
  368loPI   C4A 5882   2.701  14.455   9.011  0.0117  0.1759 -0.1055
  368loPI   C5A 5883   2.695  14.253   8.611  0.0033  0.2552 -0.2674
  368loPI   C6A 5884   2.447  14.182   8.242 -0.3167  0.0873  0.0671
  368loPI   C1B 5885   2.891  14.084  10.028 -0.0891 -0.1606 -0.1407
  368loPI   C2B 5886   2.924  14.019   9.640 -0.2123  0.2080  0.1102
  368loPI   C3B 5887   2.855  13.980   9.161  0.0113  0.1472 -0.0548
  368loPI   C4B 5888   2.491  13.852   8.933  0.2057  0.3080 -0.0225
  369loPI    C1 5889   9.581  14.020  11.058 -0.0502  0.1460 -0.0332
  369loPI    C2 5890   9.876  14.000  11.327 -0.0295  0.0233 -0.0646
  369loPI    C3 5891   9.841  14.322  11.093 -0.1068  0.1742  0.1519
  369loPI   PO4 5892   9.586  13.795  10.888 -0.1050  0.1945  0.1587
  369loPI   GL1 5893   9.747  13.426  10.604 -0.2227 -0.3393 -0.1442
  369loPI   GL2 5894   9.732  13.721  10.411  0.1847  0.2704 -0.1424
  369loPI   C1A 5895   9.474  13.233  10.221 -0.0413 -0.0603  0.0634
  369loPI   C2A 5896   9.478  13.246   9.806  0.2378  0.3326  0.0949
  369loPI   C3A 5897   9.579  13.271   9.441  0.0581 -0.1761  0.2734
  369loPI   C4A 5898   9.538  13.261   8.981  0.0466 -0.0401  0.1077
  369loPI   C5A 5899   9.529  13.312   8.510 -0.0907 -0.1474  0.2566
  369loPI   C6A 5900   9.421  13.334   8.191  0.0445  0.3523  0.2899
  369loPI   C1B 5901  10.024  13.741  10.058  0.2848  0.1353 -0.1609
  369loPI   C2B 5902  10.159  13.811   9.631  0.1596  0.1180  0.1036
  369loPI   C3B 5903  10.361  13.690   9.161  0.3529 -0.0463 -0.3458
  369loPI   C4B 5904  10.350  13.704   8.724  0.1255 -0.2450 -0.1627
  370loPI    C1 5905  10.300   9.899  11.332  0.3265  0.3099  0.3103
  370loPI    C2 5906  10.567   9.607  11.392 -0.0199 -0.0558  0.1204
  370loPI    C3 5907  10.264   9.656  11.648 -0.0770  0.0071  0.0413
  370loPI   PO4 5908  10.164   9.873  11.021 -0.0914 -0.0567  0.2497
  370loPI   GL1 5909  10.273   9.828  10.596 -0.1166  0.1785  0.3891
  370loPI   GL2 5910  10.304  10.136  10.396  0.0139  0.0677 -0.0362
  370loPI   C1A 5911  10.007   9.667  10.239 -0.2329  0.0989 -0.0225
  370loPI   C2A 5912   9.935   9.686   9.764  0.1997  0.1037 -0.3320
  370loPI   C3A 5913  10.002   9.734   9.380  0.1766 -0.1385 -0.1861
  370loPI   C4A 5914  10.154   9.675   8.949  0.0517 -0.0915  0.1967
  370loPI   C5A 5915  10.172   9.916   8.464  0.3042  0.0639 -0.5082
  370loPI   C6A 5916  10.111  10.103   8.072  0.2738  0.1007  0.0157
  370loPI   C1B 5917  10.250  10.050   9.990 -0.3863 -0.0521 -0.1983
  370loPI   C2B 5918  10.149  10.147   9.636  0.2967 -0.2387  0.2591
  370loPI   C3B 5919  10.233  10.157   9.324 -0.0545  0.1273  0.2255
  370loPI   C4B 5920  10.288  10.166   8.862 -0.1055 -0.1353  0.1019
  371loPI    C1 5921   9.069  17.598  10.873 -0.4791 -0.3896 -0.2139
  371loPI    C2 5922   9.073  17.350  11.187 -0.1665 -0.0495  0.0600
  371loPI    C3 5923   8.892  17.705  11.215  0.0889  0.0922 -0.0554
  371loPI   PO4 5924   9.075  17.536  10.568 -0.0038 -0.1384 -0.0175
  371loPI   GL1 5925   9.002  17.356  10.241  0.1826 -0.2792  0.2796
  371loPI   GL2 5926   9.308  17.228  10.249 -0.3629  0.5588  0.1723
  371loPI   C1A 5927   8.975  17.684   9.854 -0.0554 -0.1478 -0.0303
  371loPI   C2A 5928   8.916  17.789   9.432  0.0335 -0.1919 -0.0054
  371loPI   C3A 5929   8.924  17.751   9.004 -0.0106  0.0618  0.0152
  371loPI   C4A 5930   8.773  17.772   8.555  0.0590 -0.0819 -0.1319
  371loPI   C5A 5931   8.514  17.874   8.164 -0.0812 -0.2223 -0.1423
  371loPI   C6A 5932   8.339  17.953   7.758  0.1294  0.3561  0.1050
  371loPI   C1B 5933   9.265  17.291   9.830  0.0952  0.1310 -0.3130
  371loPI   C2B 5934   9.268  17.387   9.387 -0.2236  0.5846 -0.1262
  371loPI   C3B 5935   9.138  17.274   8.967  0.1947  0.1620  0.1563
  371loPI   C4B 5936   8.984  17.268   8.679 -0.1730 -0.0302  0.2650
  372loPI    C1 5937   5.150  12.324  11.335 -0.0166 -0.0981 -0.0243
  372loPI    C2 5938   4.810  12.468  11.488 -0.0837 -0.0023 -0.2603
  372loPI    C3 5939   5.155  12.521  11.683 -0.1693  0.1081 -0.1369
  372loPI   PO4 5940   5.108  12.361  11.005 -0.1361  0.1826 -0.0413
  372loPI   GL1 5941   5.354  12.415  10.630  0.1420  0.2951 -0.1982
  372loPI   GL2 5942   5.643  12.382  10.459 -0.1313 -0.0958 -0.2227
  372loPI   C1A 5943   5.258  12.688  10.214  0.4308 -0.3493  0.3697
  372loPI   C2A 5944   5.297  12.612   9.727 -0.0941 -0.0214  0.0403
  372loPI   C3A 5945   5.486  12.582   9.252 -0.1529  0.1903 -0.4273
  372loPI   C4A 5946   5.514  12.690   8.781  0.1378  0.0831  0.1641
  372loPI   C5A 5947   5.541  12.721   8.337  0.0142  0.0190  0.2676
  372loPI   C6A 5948   5.595  13.113   8.167 -0.0842  0.2401  0.3605
  372loPI   C1B 5949   5.540  12.272  10.047 -0.3481 -0.0539 -0.1168
  372loPI   C2B 5950   5.723  12.193   9.571  0.0351 -0.4151  0.0201
  372loPI   C3B 5951   5.755  12.179   9.056  0.0046 -0.1362  0.2004
  372loPI   C4B 5952   5.628  12.231   8.579 -0.0168  0.0619  0.1050
  373loPI    C1 5953   3.310  12.685  11.176  0.1815  0.1825 -0.0493
  373loPI    C2 5954   3.615  12.933  11.249  0.1406  0.0943  0.4581
  373loPI    C3 5955   3.520  12.650  11.514 -0.1021 -0.1724  0.0960
  373loPI   PO4 5956   3.213  12.792  10.956  0.2444  0.1642 -0.0279
  373loPI   GL1 5957   3.233  12.749  10.572  0.2403  0.0305 -0.0923
  373loPI   GL2 5958   2.886  12.784  10.427 -0.0278  0.1340  0.4604
  373loPI   C1A 5959   3.458  12.825  10.121  0.0594  0.2396 -0.0931
  373loPI   C2A 5960   3.520  12.831   9.665  0.0017  0.1281 -0.1521
  373loPI   C3A 5961   3.442  12.665   9.385  0.4681 -0.1846  0.0329
  373loPI   C4A 5962   3.603  12.689   9.063  0.0905 -0.0773 -0.2393
  373loPI   C5A 5963   3.688  12.641   8.666 -0.0317 -0.3396  0.0193
  373loPI   C6A 5964   3.797  12.696   8.275  0.1198 -0.2064  0.0512
  373loPI   C1B 5965   2.979  12.714   9.962  0.0231  0.0042  0.1396
  373loPI   C2B 5966   2.915  12.696   9.515  0.0609 -0.2076  0.0065
  373loPI   C3B 5967   3.024  12.693   9.149  0.0881  0.0732 -0.3852
  373loPI   C4B 5968   3.160  12.779   8.642  0.2971  0.0724 -0.1326
  374loPI    C1 5969   8.482  14.772  10.969  0.0960 -0.3680 -0.0152
  374loPI    C2 5970   8.198  14.833  11.244  0.2187  0.0557  0.0244
  374loPI    C3 5971   8.574  14.947  11.317  0.2774  0.0568 -0.2703
  374loPI   PO4 5972   8.403  14.622  10.840  0.1850  0.2860 -0.1397
  374loPI   GL1 5973   8.594  14.466  10.469 -0.1154  0.1529 -0.0570
  374loPI   GL2 5974   8.824  14.139  10.392 -0.0175 -0.2952 -0.0887
  374loPI   C1A 5975   8.394  14.480  10.135 -0.1242  0.0546 -0.0748
  374loPI   C2A 5976   8.400  14.511   9.765  0.1105  0.1077 -0.1136
  374loPI   C3A 5977   8.427  14.540   9.283 -0.2168  0.2637  0.3020
  374loPI   C4A 5978   8.665  14.358   8.997 -0.2869  0.2994 -0.0779
  374loPI   C5A 5979   8.625  14.399   8.511 -0.1155 -0.0749 -0.2444
  374loPI   C6A 5980   8.678  14.618   8.080  0.1906 -0.0292 -0.3502
  374loPI   C1B 5981   8.759  14.135   9.918  0.1764  0.2009  0.2787
  374loPI   C2B 5982   8.730  14.122   9.479 -0.0349  0.2015 -0.0989
  374loPI   C3B 5983   8.968  13.946   9.062 -0.0562  0.2764 -0.0738
  374loPI   C4B 5984   8.897  13.991   8.767  0.0248 -0.0081  0.0526
  375loPI    C1 5985   7.431   3.930  10.908 -0.1832  0.1103 -0.0423
  375loPI    C2 5986   7.348   4.313  10.986 -0.0985  0.1356 -0.0756
  375loPI    C3 5987   7.678   4.218  10.782 -0.2144  0.0570 -0.2289
  375loPI   PO4 5988   7.188   3.864  10.752  0.0980  0.0086 -0.0500
  375loPI   GL1 5989   7.080   3.649  10.342  0.1796 -0.0126 -0.0633
  375loPI   GL2 5990   6.716   3.603  10.257  0.0325  0.0554 -0.4357
  375loPI   C1A 5991   7.337   3.716   9.947 -0.5146 -0.2082 -0.2935
  375loPI   C2A 5992   7.279   3.646   9.611  0.1419  0.2140  0.1224
  375loPI   C3A 5993   7.188   3.715   9.185  0.1831  0.0423  0.0441
  375loPI   C4A 5994   7.261   3.810   8.768 -0.0353  0.1055  0.2033
  375loPI   C5A 5995   7.549   3.845   8.342 -0.1219  0.0232 -0.3705
  375loPI   C6A 5996   7.986   3.837   8.395 -0.3718 -0.3145  0.1594
  375loPI   C1B 5997   6.743   3.775   9.836  0.1774  0.2496 -0.0433
  375loPI   C2B 5998   6.771   3.569   9.462  0.1543  0.2021 -0.0350
  375loPI   C3B 5999   6.779   3.606   8.990  0.3200 -0.4275 -0.2662
  375loPI   C4B 6000   6.812   3.608   8.517  0.0429  0.2339  0.1391
  376loPI    C1 6001   4.502   5.174  11.068  0.0757  0.0702 -0.0705
  376loPI    C2 6002   4.656   5.504  11.232  0.1310  0.0098 -0.0003
  376loPI    C3 6003   4.339   5.327  11.400  0.0817  0.0451 -0.0560
  376loPI   PO4 6004   4.480   5.246  10.847  0.1479  0.0999  0.0396
  376loPI   GL1 6005   4.165   5.188  10.567 -0.0576 -0.0533  0.2379
  376loPI   GL2 6006   4.336   4.875  10.509  0.0008 -0.3756 -0.0895
  376loPI   C1A 6007   3.907   5.075  10.145 -0.0368 -0.0678 -0.2910
  376loPI   C2A 6008   3.902   5.107   9.719 -0.1514  0.0365  0.0032
  376loPI   C3A 6009   3.933   4.999   9.346 -0.2439  0.0926  0.2299
  376loPI   C4A 6010   3.684   5.001   9.045  0.3469  0.0723 -0.0287
  376loPI   C5A 6011   3.717   5.126   8.624  0.2725 -0.1372 -0.0639
  376loPI   C6A 6012   3.604   5.358   8.279 -0.3079  0.1650  0.0051
  376loPI   C1B 6013   4.283   4.676  10.146 -0.3603  0.0164  0.1785
  376loPI   C2B 6014   4.221   4.689   9.707  0.1605  0.0906 -0.1277
  376loPI   C3B 6015   4.355   4.635   9.188  0.2602 -0.2457 -0.1438
  376loPI   C4B 6016   4.260   4.518   8.793  0.0604  0.1832  0.1044
  377loPI    C1 6017   6.860  14.522  11.261  0.0060  0.1465  0.1927
  377loPI    C2 6018   6.580  14.781  11.140 -0.0386  0.0878  0.1695
  377loPI    C3 6019   6.587  14.657  11.520 -0.1886 -0.0907  0.1153
  377loPI   PO4 6020   6.890  14.367  11.034  0.3182 -0.1381 -0.1119
  377loPI   GL1 6021   6.933  14.405  10.516 -0.1468 -0.2490 -0.2599
  377loPI   GL2 6022   6.943  14.036  10.340  0.1183  0.1484  0.1354
  377loPI   C1A 6023   7.301  14.324  10.154 -0.1427  0.2845 -0.1245
  377loPI   C2A 6024   7.460  14.382   9.663  0.2062  0.2416  0.0054
  377loPI   C3A 6025   7.473  14.332   9.261  0.0743  0.2673 -0.1422
  377loPI   C4A 6026   7.455  14.269   8.873 -0.1511 -0.1479 -0.0712
  377loPI   C5A 6027   7.544  14.190   8.426 -0.1832  0.0944 -0.1025
  377loPI   C6A 6028   7.751  14.071   8.024  0.3527  0.2227  0.1451
  377loPI   C1B 6029   6.830  14.295   9.925  0.4880  0.1673 -0.1929
  377loPI   C2B 6030   6.944  14.338   9.444  0.2896 -0.0887  0.0368
  377loPI   C3B 6031   6.930  14.325   8.990 -0.1221  0.2182  0.4524
  377loPI   C4B 6032   6.966  14.240   8.624 -0.0770 -0.0417 -0.2493
  378loPI    C1 6033  16.614  10.011  11.265 -0.2576  0.1757  0.0768
  378loPI    C2 6034  16.973  10.135  11.391 -0.0955  0.0236 -0.2269
  378loPI    C3 6035  16.720   9.961  11.647  0.2539 -0.3401 -0.1191
  378loPI   PO4 6036  16.720   9.975  10.910  0.0157 -0.3383 -0.2769
  378loPI   GL1 6037  16.657  10.204  10.557  0.0329  0.1346  0.0562
  378loPI   GL2 6038  16.631   9.910  10.447 -0.3076 -0.1560  0.1643
  378loPI   C1A 6039  16.592  10.293  10.114 -0.0307  0.2994 -0.2947
  378loPI   C2A 6040  16.598  10.434   9.714  0.1668 -0.1864 -0.0951
  378loPI   C3A 6041  16.697  10.257   9.308 -0.1562  0.1073 -0.1631
  378loPI   C4A 6042  16.781  10.331   8.903  0.2363 -0.1516 -0.0509
  378loPI   C5A 6043  16.904  10.482   8.586  0.1530  0.1335 -0.2486
  378loPI   C6A 6044  17.326  10.609   8.399 -0.3114 -0.2937  0.0510
  378loPI   C1B 6045  16.836   9.860  10.047  0.0741 -0.0650  0.2236
  378loPI   C2B 6046  16.908   9.945   9.638 -0.2032 -0.0464  0.0402
  378loPI   C3B 6047  16.896   9.832   9.175 -0.1844  0.0096  0.0438
  378loPI   C4B 6048  16.994   9.891   8.805 -0.1535 -0.1003 -0.1096
  379loPI    C1 6049  10.595  14.906  10.748  0.0821  0.0318 -0.0893
  379loPI    C2 6050  10.381  15.144  10.987 -0.0332 -0.0851 -0.0742
  379loPI    C3 6051  10.735  15.003  11.110 -0.1751 -0.2924  0.1030
  379loPI   PO4 6052  10.534  15.117  10.449 -0.0691  0.2408  0.2789
  379loPI   GL1 6053  10.874  15.331  10.169 -0.0252  0.1607 -0.2309
  379loPI   GL2 6054  10.944  15.685  10.129  0.2330  0.0159 -0.0600
  379loPI   C1A 6055  10.794  15.197   9.781  0.1400  0.0538  0.1131
  379loPI   C2A 6056  10.753  15.111   9.358 -0.2171  0.1117  0.0240
  379loPI   C3A 6057  10.771  15.274   8.914  0.3551  0.0790 -0.1594
  379loPI   C4A 6058  11.013  15.456   8.611 -0.1398 -0.0514 -0.2272
  379loPI   C5A 6059  10.957  15.793   8.538 -0.3036  0.1938 -0.1956
  379loPI   C6A 6060  11.133  16.250   8.724  0.2950  0.1783  0.0785
  379loPI   C1B 6061  11.062  15.960   9.781  0.2235  0.3668 -0.2182
  379loPI   C2B 6062  11.385  15.883   9.491 -0.3123  0.0429 -0.1868
  379loPI   C3B 6063  11.488  15.896   9.122  0.2702  0.3718  0.1388
  379loPI   C4B 6064  11.736  16.153   8.832  0.3391  0.1918 -0.1766
  380loPI    C1 6065  17.753   6.286  11.460  0.0615 -0.0270  0.0557
  380loPI    C2 6066  18.015   5.991  11.525  0.0938  0.0572  0.3201
  380loPI    C3 6067  18.040   6.330  11.734  0.0277  0.2307  0.0516
  380loPI   PO4 6068  17.704   6.223  11.138 -0.2546 -0.2492 -0.0085
  380loPI   GL1 6069  17.996   6.212  10.821 -0.2053  0.0195 -0.2379
  380loPI   GL2 6070  17.757   6.053  10.680  0.1918  0.1757 -0.2919
  380loPI   C1A 6071  18.290   6.265  10.462 -0.0060  0.0908  0.0897
  380loPI   C2A 6072  18.372   6.276  10.073  0.0447  0.1127  0.0146
  380loPI   C3A 6073  18.274   6.210   9.589 -0.0180  0.1347 -0.2793
  380loPI   C4A 6074  18.225   6.137   9.183 -0.0005 -0.2796 -0.3591
  380loPI   C5A 6075  18.313   6.351   8.894  0.1650 -0.0055  0.0672
  380loPI   C6A 6076  18.197   6.671   8.436  0.3635 -0.3140  0.2839
  380loPI   C1B 6077  17.808   6.289  10.332  0.2762 -0.1656  0.1142
  380loPI   C2B 6078  17.813   6.250   9.908  0.0674 -0.0479  0.1101
  380loPI   C3B 6079  17.737   6.185   9.408  0.1437 -0.1767  0.0643
  380loPI   C4B 6080  17.750   6.323   9.013  0.0505  0.1852  0.1500
  381loPI    C1 6081   1.561  11.836  11.163  0.1542 -0.1995 -0.0797
  381loPI    C2 6082   1.733  11.795  11.522  0.1025 -0.0248 -0.0339
  381loPI    C3 6083   1.334  11.809  11.491  0.1050 -0.1040 -0.1053
  381loPI   PO4 6084   1.627  11.748  10.979 -0.2329  0.2062 -0.0172
  381loPI   GL1 6085   1.661  11.362  10.650  0.0376  0.0346  0.1367
  381loPI   GL2 6086   1.819  11.640  10.539  0.2575  0.2499 -0.1957
  381loPI   C1A 6087   1.767  11.212  10.257 -0.1479  0.1385  0.2255
  381loPI   C2A 6088   1.847  11.171   9.820 -0.2355 -0.0028 -0.1642
  381loPI   C3A 6089   1.920  11.072   9.461 -0.0265 -0.2551 -0.1120
  381loPI   C4A 6090   1.989  11.253   9.025  0.1168  0.0029  0.2015
  381loPI   C5A 6091   1.982  11.449   8.557  0.2717  0.1112 -0.0049
  381loPI   C6A 6092   1.872  11.730   8.216  0.1950  0.1322 -0.1082
  381loPI   C1B 6093   1.975  11.630  10.202 -0.1144 -0.0897  0.1348
  381loPI   C2B 6094   2.077  11.729   9.752  0.0838  0.2151  0.2306
  381loPI   C3B 6095   2.175  11.593   9.312 -0.1256  0.3068  0.1632
  381loPI   C4B 6096   2.245  11.652   8.874  0.0804 -0.2600 -0.0097
  382loPI    C1 6097  15.042  10.105  11.084 -0.0638 -0.4869 -0.2072
  382loPI    C2 6098  15.268   9.923  11.360  0.0770  0.0246  0.0269
  382loPI    C3 6099  14.930  10.108  11.468  0.0179  0.0397 -0.1801
  382loPI   PO4 6100  15.160  10.113  10.900  0.0179  0.4055  0.0737
  382loPI   GL1 6101  15.399   9.959  10.513 -0.1079 -0.2967  0.1611
  382loPI   GL2 6102  15.081   9.918  10.438  0.0313  0.4755  0.2669
  382loPI   C1A 6103  15.435   9.545  10.319  0.1365  0.0306 -0.1179
  382loPI   C2A 6104  15.535   9.507   9.888  0.0024  0.0983  0.3648
  382loPI   C3A 6105  15.620   9.513   9.536 -0.3086 -0.0654 -0.1598
  382loPI   C4A 6106  15.616   9.489   9.115  0.1007 -0.0361  0.1645
  382loPI   C5A 6107  15.785   9.563   8.700  0.0759 -0.2005 -0.1013
  382loPI   C6A 6108  15.673   9.672   8.300  0.1049 -0.0432  0.1680
  382loPI   C1B 6109  15.225   9.909  10.021 -0.1519  0.0336  0.0191
  382loPI   C2B 6110  15.312   9.994   9.541  0.0990  0.1498  0.2707
  382loPI   C3B 6111  15.342   9.986   9.152  0.0368  0.1601  0.1032
  382loPI   C4B 6112  15.533  10.003   8.695  0.1961 -0.1305  0.1738
  383loPI    C1 6113   6.220   8.607  10.978  0.0588  0.0322  0.0413
  383loPI    C2 6114   5.938   8.629  11.260 -0.1476 -0.0504 -0.1555
  383loPI    C3 6115   6.157   8.951  11.170 -0.1130 -0.0112  0.0643
  383loPI   PO4 6116   6.117   8.505  10.756  0.1262  0.0753 -0.2163
  383loPI   GL1 6117   6.221   8.497  10.353 -0.3830 -0.3723  0.0041
  383loPI   GL2 6118   6.589   8.231  10.319 -0.5524  0.0064 -0.2497
  383loPI   C1A 6119   6.314   8.688   9.994 -0.0289 -0.1075 -0.0972
  383loPI   C2A 6120   6.331   8.598   9.562 -0.1097 -0.0546  0.0957
  383loPI   C3A 6121   6.271   8.592   9.022  0.0274  0.3611 -0.1854
  383loPI   C4A 6122   6.306   8.614   8.517  0.0870 -0.0088  0.0493
  383loPI   C5A 6123   6.205   8.282   8.256 -0.2774  0.1208  0.2177
  383loPI   C6A 6124   6.228   8.009   7.868  0.0255 -0.0960 -0.1203
  383loPI   C1B 6125   6.475   8.232   9.926 -0.5040  0.4738 -0.0712
  383loPI   C2B 6126   6.549   8.156   9.419  0.2367 -0.1429 -0.0106
  383loPI   C3B 6127   6.583   8.126   9.018  0.0380 -0.2723  0.1263
  383loPI   C4B 6128   6.527   8.242   8.687 -0.1676 -0.1236  0.0638
  384loPI    C1 6129   7.648   5.165  11.241  0.0306  0.2174  0.0926
  384loPI    C2 6130   7.453   5.075  11.579  0.0776 -0.2008  0.0126
  384loPI    C3 6131   7.808   5.257  11.596 -0.0152 -0.0324  0.1803
  384loPI   PO4 6132   7.498   5.267  11.125  0.1609  0.0313 -0.1800
  384loPI   GL1 6133   7.414   5.437  10.685  0.1235 -0.1497  0.1582
  384loPI   GL2 6134   7.451   5.196  10.513  0.0039  0.1944 -0.2417
  384loPI   C1A 6135   7.133   5.542  10.245 -0.1467  0.1812 -0.1013
  384loPI   C2A 6136   7.016   5.581   9.766 -0.0200 -0.0019  0.2519
  384loPI   C3A 6137   6.999   5.553   9.337  0.4336 -0.0306  0.1701
  384loPI   C4A 6138   7.003   5.494   8.945  0.0180  0.1291  0.1074
  384loPI   C5A 6139   7.127   5.472   8.517 -0.1189 -0.1862 -0.1533
  384loPI   C6A 6140   7.478   5.269   8.272 -0.3415  0.0538 -0.3496
  384loPI   C1B 6141   7.436   5.179  10.056  0.1448  0.0052  0.1745
  384loPI   C2B 6142   7.286   5.168   9.561  0.1452 -0.0541 -0.0150
  384loPI   C3B 6143   7.435   5.136   9.155 -0.0774  0.1460 -0.1833
  384loPI   C4B 6144   7.340   5.156   8.800 -0.3104 -0.0177  0.4711
  385loPI    C1 6145   1.832  15.179  10.875 -0.1762  0.1053 -0.0660
  385loPI    C2 6146   2.229  15.200  10.914 -0.1436  0.0258 -0.3384
  385loPI    C3 6147   2.021  14.941  11.136 -0.0679  0.2066 -0.0514
  385loPI   PO4 6148   1.722  15.069  10.543 -0.1669 -0.0480  0.0563
  385loPI   GL1 6149   1.810  14.626  10.278  0.0460 -0.0001  0.0415
  385loPI   GL2 6150   2.046  14.516  10.160  0.0335  0.1547  0.0716
  385loPI   C1A 6151   1.646  14.688   9.842  0.0761  0.0443  0.0058
  385loPI   C2A 6152   1.675  14.675   9.397 -0.2464  0.0646 -0.1158
  385loPI   C3A 6153   1.698  14.470   9.057  0.3653 -0.1718  0.0809
  385loPI   C4A 6154   1.883  14.200   8.729  0.1084  0.1794  0.1916
  385loPI   C5A 6155   2.187  13.864   8.507 -0.0857  0.0837 -0.0134
  385loPI   C6A 6156   2.606  13.707   8.452 -0.2542  0.0638  0.1173
  385loPI   C1B 6157   1.953  14.249   9.801  0.3659 -0.1597  0.3282
  385loPI   C2B 6158   1.926  14.122   9.382  0.1258  0.0831  0.2049
  385loPI   C3B 6159   2.058  13.779   9.134  0.0015 -0.0977  0.2233
  385loPI   C4B 6160   2.363  13.396   9.189  0.0029 -0.0263 -0.0725
  386loPI    C1 6161  12.472  16.614  11.280 -0.0083  0.0453  0.0694
  386loPI    C2 6162  12.436  16.262  11.467  0.0744  0.1622  0.3102
  386loPI    C3 6163  12.797  16.392  11.355  0.0154  0.0452 -0.0300
  386loPI   PO4 6164  12.255  16.603  11.080  0.1338  0.0089 -0.0847
  386loPI   GL1 6165  12.093  16.389  10.848  0.4156 -0.0756  0.0334
  386loPI   GL2 6166  11.755  16.399  10.865 -0.2021  0.1155 -0.2672
  386loPI   C1A 6167  12.206  16.422  10.371  0.3123 -0.0891 -0.2007
  386loPI   C2A 6168  12.190  16.376   9.893  0.2331  0.0661  0.0117
  386loPI   C3A 6169  12.120  16.338   9.508  0.2401  0.0253  0.0674
  386loPI   C4A 6170  12.161  16.386   9.130 -0.3653 -0.0636 -0.2956
  386loPI   C5A 6171  12.314  16.372   8.656  0.1465  0.1360  0.0197
  386loPI   C6A 6172  12.661  16.429   8.308 -0.2602 -0.1013  0.2673
  386loPI   C1B 6173  11.513  16.468  10.563  0.2574  0.0215 -0.0771
  386loPI   C2B 6174  11.417  16.525  10.250  0.1124 -0.0719  0.0995
  386loPI   C3B 6175  11.377  16.765   9.869  0.1945 -0.1438  0.0102
  386loPI   C4B 6176  11.455  16.888   9.462  0.1883  0.1205  0.0451
  387loPI    C1 6177  16.642   1.044  11.274  0.0641 -0.0307 -0.1606
  387loPI    C2 6178  16.943   1.059  11.537 -0.1076 -0.2309  0.0519
  387loPI    C3 6179  16.579   1.190  11.642 -0.0750  0.1064 -0.2374
  387loPI   PO4 6180  16.630   0.789  11.163  0.0971  0.0988 -0.0611
  387loPI   GL1 6181  16.889   0.687  10.861 -0.0299  0.1609  0.3808
  387loPI   GL2 6182  17.087   0.567  10.756  0.1356  0.1434 -0.4064
  387loPI   C1A 6183  16.655   0.634  10.460  0.1323  0.0285 -0.1309
  387loPI   C2A 6184  16.645   0.512  10.019  0.1525 -0.0155  0.0668
  387loPI   C3A 6185  16.613   0.492   9.585 -0.0278  0.0218  0.1047
  387loPI   C4A 6186  16.546   0.467   9.089 -0.2932 -0.1666  0.1123
  387loPI   C5A 6187  16.827   0.543   8.750  0.2720  0.2780 -0.1746
  387loPI   C6A 6188  17.053   0.639   8.279  0.0480  0.1126 -0.2143
  387loPI   C1B 6189  17.184   0.486  10.317 -0.2371 -0.1334 -0.2247
  387loPI   C2B 6190  17.257   0.496   9.999  0.1722  0.0318 -0.0872
  387loPI   C3B 6191  17.266   0.470   9.554 -0.4271  0.0063 -0.1651
  387loPI   C4B 6192  16.993   0.442   9.211  0.0225 -0.0025  0.0143
  388loPI    C1 6193  14.230  12.707  11.283 -0.2687  0.1424  0.2324
  388loPI    C2 6194  14.530  12.821  11.521 -0.0192 -0.0143  0.0004
  388loPI    C3 6195  14.293  12.518  11.630 -0.0127  0.0246  0.1248
  388loPI   PO4 6196  14.360  12.641  11.007  0.2289  0.0498  0.0293
  388loPI   GL1 6197  14.372  12.919  10.688 -0.1020 -0.5232  0.0925
  388loPI   GL2 6198  14.597  12.737  10.572  0.0551 -0.1031  0.0467
  388loPI   C1A 6199  14.267  13.069  10.226 -0.1188  0.3052  0.0270
  388loPI   C2A 6200  14.230  13.123   9.789  0.1900  0.0850 -0.1180
  388loPI   C3A 6201  14.243  13.277   9.349 -0.1526 -0.0326 -0.3887
  388loPI   C4A 6202  14.247  13.150   8.987  0.1045 -0.3896  0.1541
  388loPI   C5A 6203  14.324  12.899   8.634  0.2831  0.2353 -0.1038
  388loPI   C6A 6204  14.465  12.600   8.412 -0.2234  0.1591  0.0527
  388loPI   C1B 6205  14.432  12.600  10.221  0.3113  0.1197  0.1221
  388loPI   C2B 6206  14.485  12.638   9.789  0.1028  0.1384 -0.0787
  388loPI   C3B 6207  14.445  12.763   9.476 -0.1370  0.0085  0.0379
  388loPI   C4B 6208  14.434  12.710   9.084  0.1757 -0.2269  0.0260
  389loPI    C1 6209   6.492   4.958  10.951  0.2020  0.0363 -0.2516
  389loPI    C2 6210   6.682   5.106  11.271 -0.1550 -0.2035  0.0814
  389loPI    C3 6211   6.417   5.332  11.073  0.2122  0.0139 -0.1761
  389loPI   PO4 6212   6.582   4.919  10.809 -0.1461 -0.0136 -0.0140
  389loPI   GL1 6213   6.649   5.123  10.421  0.0323  0.2784  0.0643
  389loPI   GL2 6214   7.014   5.082  10.395  0.0531  0.0672  0.1780
  389loPI   C1A 6215   6.523   5.392  10.144  0.1106 -0.2764 -0.0642
  389loPI   C2A 6216   6.534   5.509   9.704 -0.4065 -0.3538  0.2436
  389loPI   C3A 6217   6.506   5.393   9.245  0.2550  0.0369 -0.1069
  389loPI   C4A 6218   6.543   5.532   8.729  0.1578  0.0971 -0.0232
  389loPI   C5A 6219   6.635   5.557   8.363 -0.1379  0.1073  0.1272
  389loPI   C6A 6220   6.450   5.522   8.011  0.0471  0.1409  0.1286
  389loPI   C1B 6221   6.930   5.080   9.976  0.1151 -0.0208  0.0689
  389loPI   C2B 6222   6.777   5.054   9.549 -0.2317  0.1183 -0.2685
  389loPI   C3B 6223   6.865   5.097   9.160 -0.4139  0.0524  0.3465
  389loPI   C4B 6224   6.820   5.030   8.714 -0.0613 -0.2209 -0.3467
  390loPI    C1 6225   4.798   3.313  10.967  0.1279 -0.1542  0.0831
  390loPI    C2 6226   4.731   3.200  11.345  0.1548  0.0869  0.1617
  390loPI    C3 6227   4.943   3.531  11.270  0.2272 -0.0094 -0.0669
  390loPI   PO4 6228   4.922   3.126  10.745  0.1163  0.0428 -0.1272
  390loPI   GL1 6229   4.755   3.065  10.401 -0.0141  0.1047 -0.2213
  390loPI   GL2 6230   4.662   2.739  10.370 -0.2450  0.1850 -0.3764
  390loPI   C1A 6231   4.871   3.046   9.989 -0.1481  0.0733  0.0522
  390loPI   C2A 6232   4.970   2.990   9.521  0.2817 -0.1706 -0.0742
  390loPI   C3A 6233   5.078   2.928   9.131 -0.2339  0.0008  0.1421
  390loPI   C4A 6234   5.110   2.995   8.710  0.0969 -0.2189  0.1539
  390loPI   C5A 6235   5.064   2.749   8.346 -0.0674 -0.1854  0.1283
  390loPI   C6A 6236   4.661   2.586   8.203  0.0079  0.1553 -0.1781
  390loPI   C1B 6237   4.751   2.504  10.015 -0.2898  0.0550  0.1568
  390loPI   C2B 6238   4.783   2.485   9.557  0.1299  0.2188 -0.1421
  390loPI   C3B 6239   4.790   2.498   9.163 -0.0080  0.0782  0.0452
  390loPI   C4B 6240   4.695   2.534   8.722 -0.0396  0.1498 -0.2029
  391loPI    C1 6241   7.901   9.685  11.098 -0.2459  0.1812  0.0354
  391loPI    C2 6242   8.229   9.899  11.020 -0.0196 -0.0888  0.2268
  391loPI    C3 6243   8.160   9.766  11.391 -0.1159 -0.4105  0.0969
  391loPI   PO4 6244   7.831   9.532  10.912 -0.1486  0.1882  0.0625
  391loPI   GL1 6245   8.052   9.367  10.522 -0.1223 -0.0008  0.3552
  391loPI   GL2 6246   8.162   9.669  10.542 -0.4943  0.3125 -0.5234
  391loPI   C1A 6247   7.992   9.284   9.974  0.0045 -0.0723 -0.2110
  391loPI   C2A 6248   8.008   9.258   9.482  0.0373  0.0173  0.1636
  391loPI   C3A 6249   8.124   9.256   9.019  0.2386 -0.1088 -0.0715
  391loPI   C4A 6250   8.192   9.381   8.598 -0.0181 -0.1084  0.1572
  391loPI   C5A 6251   8.108   9.524   8.165 -0.2303  0.0106  0.0036
  391loPI   C6A 6252   7.793   9.542   7.863 -0.1511  0.1679 -0.0316
  391loPI   C1B 6253   8.160   9.821  10.213 -0.0311 -0.0078  0.0499
  391loPI   C2B 6254   8.165   9.812   9.796 -0.1154  0.0285  0.1282
  391loPI   C3B 6255   8.166   9.712   9.337 -0.1881 -0.1649 -0.1517
  391loPI   C4B 6256   8.284   9.760   8.868  0.3462  0.0130  0.1747
  392loPI    C1 6257  13.488   3.196  11.416 -0.1335 -0.2907 -0.2483
  392loPI    C2 6258  13.868   3.082  11.469 -0.0386  0.0407 -0.1906
  392loPI    C3 6259  13.604   3.043  11.767 -0.0198 -0.0710 -0.1881
  392loPI   PO4 6260  13.496   3.033  11.155  0.2522 -0.0148 -0.2044
  392loPI   GL1 6261  13.579   3.024  10.760  0.2147 -0.3120 -0.1170
  392loPI   GL2 6262  13.849   3.000  10.636  0.0764 -0.0587 -0.1138
  392loPI   C1A 6263  13.220   3.001  10.364 -0.0313  0.2982 -0.2239
  392loPI   C2A 6264  13.338   2.935   9.983 -0.2233 -0.1569 -0.2231
  392loPI   C3A 6265  13.356   2.995   9.576 -0.1118  0.0022 -0.2752
  392loPI   C4A 6266  13.392   2.977   9.142  0.0866 -0.1367 -0.2330
  392loPI   C5A 6267  13.281   2.874   8.689 -0.3389 -0.1766 -0.3656
  392loPI   C6A 6268  13.096   2.819   8.361 -0.4901  0.2274 -0.0642
  392loPI   C1B 6269  13.805   2.891  10.204  0.2405 -0.2125  0.0581
  392loPI   C2B 6270  13.817   2.964   9.752 -0.0801 -0.1188  0.0412
  392loPI   C3B 6271  13.880   2.979   9.345 -0.1238 -0.3309 -0.0615
  392loPI   C4B 6272  13.991   2.891   8.866 -0.0169 -0.0371 -0.1690
  393loPI    C1 6273  15.769   0.380  11.477 -0.2177 -0.2475 -0.0871
  393loPI    C2 6274  15.847   0.354  11.868 -0.0443 -0.0768 -0.1087
  393loPI    C3 6275  15.579   0.620  11.735  0.0428  0.0043 -0.1236
  393loPI   PO4 6276  15.713   0.109  11.373 -0.1247 -0.2546 -0.1734
  393loPI   GL1 6277  15.797  -0.135  10.902  0.1734  0.0185  0.1906
  393loPI   GL2 6278  15.517  -0.346  10.667 -0.0170 -0.1218 -0.2490
  393loPI   C1A 6279  15.819   0.120  10.444 -0.0323  0.0715  0.0391
  393loPI   C2A 6280  15.815   0.255  10.052  0.0714 -0.0422  0.1506
  393loPI   C3A 6281  15.747   0.228   9.601 -0.1934  0.1263  0.1321
  393loPI   C4A 6282  15.794   0.179   9.249 -0.0032 -0.0319 -0.0194
  393loPI   C5A 6283  15.688   0.137   8.838 -0.1020  0.3260  0.2375
  393loPI   C6A 6284  15.760   0.325   8.418 -0.0363  0.4338  0.0459
  393loPI   C1B 6285  15.547  -0.317  10.333 -0.1909 -0.1491 -0.1549
  393loPI   C2B 6286  15.585  -0.226   9.870  0.1820 -0.1063 -0.1087
  393loPI   C3B 6287  15.487  -0.286   9.512 -0.3328  0.1006 -0.1325
  393loPI   C4B 6288  15.460  -0.278   9.120  0.0435 -0.3106 -0.0450
  394loPI    C1 6289  12.970   5.447  11.509 -0.0089  0.0101 -0.3016
  394loPI    C2 6290  13.082   5.831  11.507  0.0313  0.0023  0.0098
  394loPI    C3 6291  12.848   5.692  11.801 -0.0929 -0.1818 -0.1736
  394loPI   PO4 6292  12.855   5.433  11.177  0.2645  0.4170 -0.1096
  394loPI   GL1 6293  12.940   5.234  10.818 -0.0810  0.2651  0.1985
  394loPI   GL2 6294  13.285   4.934  10.801  0.2383 -0.1899 -0.2604
  394loPI   C1A 6295  12.657   5.280  10.452 -0.0750  0.0905  0.3408
  394loPI   C2A 6296  12.622   5.148   9.995 -0.0059 -0.0436  0.3575
  394loPI   C3A 6297  12.572   5.204   9.509 -0.0593  0.0632 -0.0902
  394loPI   C4A 6298  12.679   5.089   9.122 -0.0731  0.2410 -0.1029
  394loPI   C5A 6299  12.833   5.121   8.719 -0.0697 -0.0814  0.4066
  394loPI   C6A 6300  12.664   5.252   8.319  0.1535 -0.2099  0.1580
  394loPI   C1B 6301  13.348   4.773  10.373 -0.0495  0.0184  0.2500
  394loPI   C2B 6302  13.427   4.661   9.967 -0.0439  0.2470  0.0822
  394loPI   C3B 6303  13.353   4.764   9.538 -0.3061 -0.0603 -0.0608
  394loPI   C4B 6304  13.472   4.702   9.121  0.0453 -0.0643  0.0980
  395loPI    C1 6305  14.221   7.641  11.001 -0.0160 -0.0717 -0.1789
  395loPI    C2 6306  14.053   7.927  11.224  0.0933 -0.1162 -0.0387
  395loPI    C3 6307  14.326   7.682  11.384  0.1538 -0.1650 -0.2145
  395loPI   PO4 6308  14.241   7.719  10.781  0.0574  0.1268 -0.0763
  395loPI   GL1 6309  14.350   7.947  10.570  0.0659 -0.2659  0.0395
  395loPI   GL2 6310  14.171   8.211  10.376 -0.0829 -0.0335 -0.5659
  395loPI   C1A 6311  14.306   7.797  10.110 -0.2063 -0.0999  0.0265
  395loPI   C2A 6312  14.337   7.763   9.663 -0.0218 -0.0853 -0.0467
  395loPI   C3A 6313  14.358   7.750   9.244 -0.0436 -0.2501 -0.1983
  395loPI   C4A 6314  14.458   7.704   8.841 -0.0343 -0.1729  0.0617
  395loPI   C5A 6315  14.534   7.815   8.391  0.0475 -0.2229 -0.2707
  395loPI   C6A 6316  14.448   8.151   8.295  0.0257 -0.0842  0.1194
  395loPI   C1B 6317  14.177   8.202   9.934 -0.1282  0.0192 -0.3447
  395loPI   C2B 6318  14.172   8.255   9.458 -0.2541 -0.1688 -0.3079
  395loPI   C3B 6319  14.192   8.207   9.008  0.2554 -0.1356 -0.2089
  395loPI   C4B 6320  13.941   8.066   8.583 -0.1588  0.1591  0.0987
  396loPI    C1 6321   6.904  15.354  11.360 -0.0140 -0.1551  0.0401
  396loPI    C2 6322   7.017  14.976  11.429  0.2188 -0.0784  0.0871
  396loPI    C3 6323   6.972  15.231  11.734  0.1225 -0.0506  0.0502
  396loPI   PO4 6324   6.854  15.246  11.052  0.0584  0.2876 -0.0243
  396loPI   GL1 6325   7.024  15.239  10.660  0.0848 -0.1529 -0.3100
  396loPI   GL2 6326   6.891  15.387  10.497 -0.0578 -0.1477  0.2014
  396loPI   C1A 6327   6.767  14.865  10.431  0.1895  0.0175 -0.1930
  396loPI   C2A 6328   6.470  14.681  10.096  0.1498  0.1254  0.0052
  396loPI   C3A 6329   6.636  14.681   9.678 -0.0247  0.0568 -0.0815
  396loPI   C4A 6330   6.725  14.709   9.230  0.0096  0.0821 -0.2318
  396loPI   C5A 6331   6.757  14.702   8.778 -0.3722  0.1296 -0.1688
  396loPI   C6A 6332   6.636  14.597   8.411 -0.0004 -0.2022  0.2437
  396loPI   C1B 6333   7.219  15.217  10.218 -0.0500 -0.2013 -0.2379
  396loPI   C2B 6334   7.328  15.278   9.640 -0.2559 -0.1114  0.2652
  396loPI   C3B 6335   7.434  15.240   9.200 -0.1248 -0.1584 -0.2678
  396loPI   C4B 6336   7.582  15.076   8.766 -0.1769 -0.0958 -0.3204
  397loPI    C1 6337  16.938   8.065  11.123  0.1099  0.1017  0.3642
  397loPI    C2 6338  17.210   7.871  10.903 -0.1808  0.1343 -0.0350
  397loPI    C3 6339  17.322   8.064  11.235  0.2450 -0.0255 -0.0797
  397loPI   PO4 6340  16.681   7.958  10.941  0.1762 -0.1453 -0.2372
  397loPI   GL1 6341  16.480   7.920  10.529 -0.0251 -0.2670 -0.2165
  397loPI   GL2 6342  16.497   7.609  10.491 -0.0314  0.1095  0.0067
  397loPI   C1A 6343  16.792   7.965  10.158  0.0623 -0.0510  0.1231
  397loPI   C2A 6344  16.835   8.068   9.783 -0.0401 -0.3633 -0.1020
  397loPI   C3A 6345  16.784   8.115   9.433  0.3982  0.0802  0.2149
  397loPI   C4A 6346  16.801   7.955   9.087  0.2133 -0.3163 -0.0166
  397loPI   C5A 6347  16.854   8.118   8.720 -0.0542 -0.1153  0.1075
  397loPI   C6A 6348  16.835   8.322   8.328  0.0447  0.0105 -0.0694
  397loPI   C1B 6349  16.523   7.623  10.014  0.3726 -0.1642  0.1426
  397loPI   C2B 6350  16.487   7.670   9.550 -0.2433 -0.1992 -0.1287
  397loPI   C3B 6351  16.435   7.589   9.116 -0.0639 -0.0181 -0.0590
  397loPI   C4B 6352  16.579   7.667   8.728 -0.3026  0.3455 -0.2404
  398loPI    C1 6353  14.099   6.777  11.211 -0.2023 -0.0611  0.1706
  398loPI    C2 6354  14.289   7.127  11.244 -0.0132 -0.1318 -0.1285
  398loPI    C3 6355  13.986   7.040  11.490 -0.0286  0.2188 -0.0180
  398loPI   PO4 6356  14.010   6.632  10.798 -0.1162 -0.2807  0.1609
  398loPI   GL1 6357  13.860   6.755  10.415 -0.3208  0.0928 -0.0889
  398loPI   GL2 6358  13.636   6.731  10.368 -0.3993  0.3272 -0.3783
  398loPI   C1A 6359  14.009   6.494  10.079 -0.0411  0.3183 -0.1143
  398loPI   C2A 6360  14.103   6.426   9.685  0.0571  0.2204 -0.3467
  398loPI   C3A 6361  13.921   6.353   9.379  0.0326 -0.3477  0.0324
  398loPI   C4A 6362  14.135   6.402   8.967  0.4803 -0.0610 -0.2741
  398loPI   C5A 6363  14.338   6.405   8.587  0.0206  0.4017 -0.0138
  398loPI   C6A 6364  14.174   6.431   8.190  0.1824 -0.3031  0.0904
  398loPI   C1B 6365  13.515   6.473  10.110 -0.0903  0.1661 -0.1900
  398loPI   C2B 6366  13.451   6.416   9.714  0.0018  0.0438  0.2381
  398loPI   C3B 6367  13.435   6.396   9.301  0.1256  0.0723 -0.4472
  398loPI   C4B 6368  13.492   6.462   8.844 -0.0946  0.2708  0.3014
  399loPI    C1 6369  15.655   8.347  10.923 -0.0421  0.0074  0.2289
  399loPI    C2 6370  15.795   8.252  11.286  0.0580  0.2076  0.2439
  399loPI    C3 6371  15.508   8.528  11.248  0.0633  0.2030  0.1687
  399loPI   PO4 6372  15.830   8.371  10.813 -0.1288  0.1057 -0.2540
  399loPI   GL1 6373  15.939   8.179  10.479  0.0135  0.1060  0.0327
  399loPI   GL2 6374  15.612   8.189  10.375  0.0607 -0.1068  0.1064
  399loPI   C1A 6375  16.190   8.047  10.162  0.1361 -0.1202 -0.0514
  399loPI   C2A 6376  16.318   8.022   9.771  0.1192 -0.1032  0.1616
  399loPI   C3A 6377  16.301   8.150   9.338 -0.0558 -0.1344  0.0964
  399loPI   C4A 6378  16.294   8.100   8.879 -0.1411  0.3739  0.0277
  399loPI   C5A 6379  16.400   8.091   8.433 -0.1025  0.1557  0.0940
  399loPI   C6A 6380  16.648   7.701   8.259  0.1145 -0.0367 -0.2076
  399loPI   C1B 6381  15.732   8.058   9.962  0.0019 -0.0018 -0.0056
  399loPI   C2B 6382  15.706   8.097   9.491  0.2386 -0.0797  0.1671
  399loPI   C3B 6383  15.741   8.127   9.056 -0.1228  0.1099 -0.1020
  399loPI   C4B 6384  15.810   8.214   8.655  0.1708 -0.2136  0.0249
  400loPI    C1 6385  13.263   8.234  10.968  0.1079  0.1501 -0.0121
  400loPI    C2 6386  13.382   8.320  11.340 -0.0858  0.2045  0.0388
  400loPI    C3 6387  13.015   8.423  11.219 -0.0507  0.1195 -0.1438
  400loPI   PO4 6388  13.424   8.366  10.791  0.0784 -0.2368 -0.0683
  400loPI   GL1 6389  13.389   8.444  10.261 -0.1379  0.0592  0.0642
  400loPI   GL2 6390  13.188   8.676  10.337  0.0644  0.2438  0.1623
  400loPI   C1A 6391  13.685   8.200  10.044 -0.0330  0.2126  0.1735
  400loPI   C2A 6392  13.746   8.274   9.638  0.1757 -0.3314  0.3532
  400loPI   C3A 6393  13.703   8.241   9.113 -0.0463 -0.0271  0.2061
  400loPI   C4A 6394  13.540   8.363   8.666 -0.3138  0.1775  0.0925
  400loPI   C5A 6395  13.472   8.617   8.306 -0.0656  0.2029 -0.0398
  400loPI   C6A 6396  13.394   8.750   7.904  0.0272  0.1492 -0.1478
  400loPI   C1B 6397  13.324   8.742   9.852  0.0856  0.0157 -0.2224
  400loPI   C2B 6398  13.451   8.711   9.474 -0.0074 -0.1970  0.0093
  400loPI   C3B 6399  13.633   8.766   9.144 -0.0637 -0.0169 -0.0625
  400loPI   C4B 6400  13.725   8.815   8.699 -0.2470  0.0442  0.2577
  401loPI    C1 6401   0.659   4.700  10.814  0.1272 -0.0773 -0.1317
  401loPI    C2 6402   0.683   4.905  11.157 -0.3770 -0.0823 -0.0861
  401loPI    C3 6403   0.723   5.095  10.807 -0.0986 -0.0373 -0.0320
  401loPI   PO4 6404   0.777   4.445  10.838  0.0791 -0.1701 -0.0973
  401loPI   GL1 6405   1.058   4.467  10.492 -0.0894  0.0514  0.4622
  401loPI   GL2 6406   1.366   4.443  10.500 -0.2168 -0.2331  0.0267
  401loPI   C1A 6407   0.882   4.432  10.095 -0.2395 -0.0354  0.1244
  401loPI   C2A 6408   0.981   4.391   9.642  0.0290 -0.0954 -0.0209
  401loPI   C3A 6409   0.856   4.414   9.246  0.1620  0.2141  0.0512
  401loPI   C4A 6410   0.835   4.349   8.733  0.6565 -0.0697  0.1043
  401loPI   C5A 6411   0.903   4.203   8.372 -0.1654 -0.0697  0.1685
  401loPI   C6A 6412   1.039   4.144   8.010 -0.0292  0.0307  0.0845
  401loPI   C1B 6413   1.611   4.434  10.082  0.0682 -0.1772 -0.0253
  401loPI   C2B 6414   1.519   4.309   9.690  0.2022  0.2563  0.1834
  401loPI   C3B 6415   1.397   4.340   9.244 -0.0326  0.3283 -0.0810
  401loPI   C4B 6416   1.307   4.357   8.795  0.0316 -0.2210  0.0058
  402loPI    C1 6417  12.166  15.437  11.048  0.2309  0.1880  0.2163
  402loPI    C2 6418  11.989  15.793  11.001  0.1536  0.1335  0.0885
  402loPI    C3 6419  11.769  15.469  11.080  0.2311  0.1264  0.2820
  402loPI   PO4 6420  12.348  15.471  10.829 -0.1183  0.0853 -0.1882
  402loPI   GL1 6421  12.834  15.427  10.592  0.0640  0.0976  0.0229
  402loPI   GL2 6422  13.089  15.305  10.436  0.1282 -0.2744  0.2596
  402loPI   C1A 6423  12.585  15.509  10.223 -0.1572 -0.0833  0.3345
  402loPI   C2A 6424  12.482  15.437   9.828  0.1913 -0.2826  0.1444
  402loPI   C3A 6425  12.212  15.520   9.501 -0.0413  0.2737 -0.1645
  402loPI   C4A 6426  12.253  15.372   9.159 -0.0724  0.0835  0.2491
  402loPI   C5A 6427  12.450  15.071   8.790 -0.0692 -0.0109  0.2671
  402loPI   C6A 6428  12.625  14.760   8.525 -0.0489 -0.2898 -0.1205
  402loPI   C1B 6429  13.126  15.387   9.998  0.3811  0.3754  0.1266
  402loPI   C2B 6430  12.976  15.443   9.654  0.0747 -0.4047  0.2212
  402loPI   C3B 6431  12.744  15.462   9.391  0.2290  0.0847  0.0167
  402loPI   C4B 6432  12.677  15.526   8.948  0.1659 -0.1671 -0.0237
  403loPI    C1 6433   0.776  15.067  11.122 -0.1071 -0.2888  0.2923
  403loPI    C2 6434   0.987  15.331  11.336 -0.1314 -0.0002 -0.0301
  403loPI    C3 6435   1.083  14.942  11.346  0.1363  0.0680  0.1659
  403loPI   PO4 6436   0.773  15.196  10.875 -0.0956 -0.0566  0.0261
  403loPI   GL1 6437   0.607  15.088  10.546 -0.0178 -0.2014  0.2944
  403loPI   GL2 6438   0.807  15.308  10.366  0.1315  0.0145  0.0243
  403loPI   C1A 6439   0.419  15.170  10.084  0.1245 -0.1144 -0.0437
  403loPI   C2A 6440   0.412  15.130   9.581  0.0930  0.2052 -0.2682
  403loPI   C3A 6441   0.366  15.201   9.151  0.1034  0.2565  0.2225
  403loPI   C4A 6442   0.440  15.330   8.704 -0.1434  0.1743 -0.5124
  403loPI   C5A 6443   0.161  15.236   8.357 -0.2609  0.0029  0.0710
  403loPI   C6A 6444  -0.253  15.276   8.459  0.3484 -0.1642  0.3780
  403loPI   C1B 6445   1.066  15.174   9.986 -0.3997 -0.0545 -0.1865
  403loPI   C2B 6446   0.877  15.118   9.687 -0.1114 -0.1593  0.0036
  403loPI   C3B 6447   0.991  15.120   9.141  0.0727  0.0696  0.0740
  403loPI   C4B 6448   1.103  15.082   8.739  0.1361  0.1172 -0.0597
  404loPI    C1 6449   5.506   9.725  11.013 -0.1556 -0.1992 -0.0358
  404loPI    C2 6450   5.364   9.868  11.358 -0.2009 -0.0621 -0.1100
  404loPI    C3 6451   5.367   9.474  11.290  0.0709 -0.1114  0.1615
  404loPI   PO4 6452   5.515   9.829  10.882  0.3094  0.1293  0.0506
  404loPI   GL1 6453   5.328   9.794  10.522  0.0490  0.2081 -0.0414
  404loPI   GL2 6454   5.269  10.097  10.555  0.0887 -0.0908  0.0720
  404loPI   C1A 6455   5.230   9.839  10.095 -0.1489  0.0121  0.2668
  404loPI   C2A 6456   5.306   9.864   9.682  0.2485  0.0760  0.3680
  404loPI   C3A 6457   5.311   9.783   9.303 -0.0000  0.1707 -0.1473
  404loPI   C4A 6458   5.413   9.794   8.839 -0.0007  0.1290 -0.0929
  404loPI   C5A 6459   5.341   9.963   8.369 -0.2879 -0.1079 -0.0612
  404loPI   C6A 6460   5.099  10.109   8.028  0.3350  0.0314  0.1015
  404loPI   C1B 6461   5.403  10.322  10.204  0.3612  0.0246 -0.0382
  404loPI   C2B 6462   5.533  10.316   9.754  0.1520  0.1199 -0.1354
  404loPI   C3B 6463   5.567  10.305   9.324  0.0142 -0.0910  0.0748
  404loPI   C4B 6464   5.594  10.228   8.991 -0.1926  0.1520 -0.1363
  405loPI    C1 6465  17.536  13.631  11.191 -0.1681  0.2502 -0.0174
  405loPI    C2 6466  17.853  13.508  11.401 -0.1112  0.0023 -0.2427
  405loPI    C3 6467  17.484  13.443  11.540 -0.0747 -0.1758 -0.2258
  405loPI   PO4 6468  17.572  13.562  10.896  0.0470  0.2529  0.1463
  405loPI   GL1 6469  17.643  13.324  10.529  0.1945  0.0952  0.1751
  405loPI   GL2 6470  17.351  13.589  10.470 -0.0479 -0.0456  0.0453
  405loPI   C1A 6471  17.599  13.368  10.050  0.0518  0.2523 -0.0903
  405loPI   C2A 6472  17.579  13.429   9.527  0.1463  0.0362 -0.2553
  405loPI   C3A 6473  17.673  13.378   9.091  0.0757  0.0365  0.1073
  405loPI   C4A 6474  17.833  13.466   8.720 -0.4354 -0.2300  0.1986
  405loPI   C5A 6475  18.057  13.741   8.386 -0.2825  0.3036  0.0488
  405loPI   C6A 6476  18.403  14.047   8.170  0.0951  0.0204  0.2320
  405loPI   C1B 6477  17.086  13.464  10.094  0.0931  0.2860 -0.1918
  405loPI   C2B 6478  17.129  13.359   9.676 -0.1909 -0.0022  0.3590
  405loPI   C3B 6479  17.181  13.459   9.141 -0.1290 -0.0336  0.2574
  405loPI   C4B 6480  17.196  13.471   8.661  0.1051 -0.2464 -0.0716
  406loPI    C1 6481  14.504   1.132  11.405  0.1152 -0.0432  0.1697
  406loPI    C2 6482  14.855   1.309  11.331  0.0390 -0.0566 -0.2433
  406loPI    C3 6483  14.798   1.116  11.676  0.3685  0.1127 -0.0900
  406loPI   PO4 6484  14.431   1.025  11.098  0.2662  0.2501 -0.0497
  406loPI   GL1 6485  14.602   1.104  10.775  0.2395  0.3996 -0.1323
  406loPI   GL2 6486  14.843   1.018  10.838  0.2727 -0.0862  0.2158
  406loPI   C1A 6487  14.457   1.084  10.390  0.1782 -0.1904  0.0953
  406loPI   C2A 6488  14.236   1.126   9.978 -0.1200 -0.0803 -0.1695
  406loPI   C3A 6489  14.308   1.212   9.561 -0.0711 -0.2831 -0.0562
  406loPI   C4A 6490  14.284   1.154   9.087 -0.1196 -0.1089 -0.1841
  406loPI   C5A 6491  14.369   0.988   8.654  0.2799  0.1079  0.0891
  406loPI   C6A 6492  14.487   0.639   8.349  0.0576  0.1827  0.0516
  406loPI   C1B 6493  15.050   0.718  10.485 -0.1959  0.2042  0.1857
  406loPI   C2B 6494  15.083   0.708  10.081  0.1421 -0.0054  0.0374
  406loPI   C3B 6495  15.143   0.672   9.739  0.0378  0.1629 -0.0433
  406loPI   C4B 6496  15.030   0.720   9.313 -0.2341 -0.3037 -0.1175
  407loPI    C1 6497  17.338   7.592  11.358 -0.1771  0.2563  0.0275
  407loPI    C2 6498  17.512   7.518  11.711 -0.1988  0.1769  0.0217
  407loPI    C3 6499  17.131   7.411  11.649 -0.1233 -0.0240 -0.1052
  407loPI   PO4 6500  17.634   7.665  11.126 -0.0261 -0.1892  0.0800
  407loPI   GL1 6501  17.886   7.766  10.725  0.2503 -0.1811 -0.1215
  407loPI   GL2 6502  17.822   8.028  10.786 -0.1170  0.0034  0.0282
  407loPI   C1A 6503  17.979   7.542  10.456  0.0995  0.2778 -0.0425
  407loPI   C2A 6504  18.113   7.636  10.064 -0.0027  0.0358 -0.0347
  407loPI   C3A 6505  18.141   7.506   9.651  0.1979  0.0389 -0.0697
  407loPI   C4A 6506  18.097   7.524   9.208 -0.1100 -0.0233 -0.2817
  407loPI   C5A 6507  17.905   7.593   8.902 -0.1949  0.0553 -0.0198
  407loPI   C6A 6508  17.627   7.630   8.595 -0.1362 -0.1205  0.0079
  407loPI   C1B 6509  17.909   8.004  10.294  0.0827  0.1983  0.1590
  407loPI   C2B 6510  17.805   8.045   9.828 -0.2196 -0.0754  0.1952
  407loPI   C3B 6511  17.899   7.969   9.465  0.1685  0.0422  0.0260
  407loPI   C4B 6512  17.801   8.054   9.082 -0.2259  0.1429 -0.1748
  408loPI    C1 6513   8.313  13.636  10.935  0.0126 -0.1085  0.0603
  408loPI    C2 6514   8.396  13.853  11.260 -0.1126  0.0335 -0.0010
  408loPI    C3 6515   8.674  13.611  11.104  0.0287  0.1496  0.0680
  408loPI   PO4 6516   8.198  13.827  10.814 -0.0205  0.1991  0.0334
  408loPI   GL1 6517   8.341  13.993  10.458  0.0690 -0.1122  0.0852
  408loPI   GL2 6518   8.140  14.281  10.538 -0.1916  0.2388  0.2132
  408loPI   C1A 6519   8.190  14.011  10.064 -0.0375  0.0739 -0.3012
  408loPI   C2A 6520   8.249  14.010   9.558  0.2794 -0.4143  0.4323
  408loPI   C3A 6521   8.284  13.999   9.148 -0.1586  0.1363 -0.2444
  408loPI   C4A 6522   8.402  14.006   8.752 -0.0095  0.3001  0.1227
  408loPI   C5A 6523   8.251  14.038   8.461  0.0239 -0.1061  0.0539
  408loPI   C6A 6524   8.087  14.301   8.351 -0.0345 -0.0627 -0.1387
  408loPI   C1B 6525   7.897  14.381  10.132  0.2501  0.2426  0.0931
  408loPI   C2B 6526   7.930  14.399   9.723  0.3216  0.3371 -0.2915
  408loPI   C3B 6527   7.968  14.348   9.294 -0.1478 -0.0191  0.0422
  408loPI   C4B 6528   8.028  14.272   8.879 -0.1953 -0.2033  0.0722
  409loPI    C1 6529  10.625   5.230  10.869  0.1607  0.0937  0.1755
  409loPI    C2 6530  10.441   4.958  11.097 -0.0729  0.1482  0.0550
  409loPI    C3 6531  10.678   5.233  11.265 -0.0937  0.0719  0.2113
  409loPI   PO4 6532  10.683   5.088  10.587  0.2022 -0.1056 -0.2364
  409loPI   GL1 6533  10.478   4.872  10.336 -0.2054 -0.0938  0.1951
  409loPI   GL2 6534  10.533   4.549  10.325 -0.0434  0.1884 -0.1147
  409loPI   C1A 6535  10.364   5.126   9.897  0.0348  0.1186  0.0169
  409loPI   C2A 6536  10.342   5.243   9.386  0.0649 -0.0106 -0.1940
  409loPI   C3A 6537  10.324   5.469   8.935 -0.1280 -0.0809 -0.2390
  409loPI   C4A 6538  10.386   5.359   8.545  0.1472  0.0544 -0.1548
  409loPI   C5A 6539  10.225   5.278   8.087 -0.0156 -0.0647  0.0987
  409loPI   C6A 6540  10.003   5.252   7.736 -0.0775 -0.0941 -0.0867
  409loPI   C1B 6541  10.628   4.547   9.895 -0.0913 -0.1652  0.0376
  409loPI   C2B 6542  10.508   4.401   9.459 -0.1288 -0.2273 -0.4171
  409loPI   C3B 6543  10.579   4.523   9.130  0.1240  0.0015  0.2026
  409loPI   C4B 6544  10.460   4.625   8.671 -0.1393 -0.1390  0.1937
  410loPI    C1 6545  13.588   2.278  11.462  0.1163  0.0966  0.2311
  410loPI    C2 6546  13.415   2.637  11.433 -0.0537 -0.0181 -0.3078
  410loPI    C3 6547  13.803   2.608  11.528 -0.1604  0.2735  0.2638
  410loPI   PO4 6548  13.515   2.101  11.230  0.2853  0.0580 -0.0152
  410loPI   GL1 6549  13.515   1.945  10.805  0.0815 -0.0694 -0.0391
  410loPI   GL2 6550  13.582   2.179  10.642  0.3490 -0.0099 -0.0511
  410loPI   C1A 6551  13.603   1.665  10.484 -0.1394 -0.2943 -0.0212
  410loPI   C2A 6552  13.507   1.658  10.029 -0.1778 -0.0498  0.2321
  410loPI   C3A 6553  13.523   1.598   9.568 -0.0580  0.2014 -0.2371
  410loPI   C4A 6554  13.561   1.655   9.083 -0.1015  0.1768 -0.0061
  410loPI   C5A 6555  13.468   1.670   8.669  0.0557  0.0061  0.1210
  410loPI   C6A 6556  13.059   1.814   8.406  0.2746  0.2095  0.0781
  410loPI   C1B 6557  13.506   2.513  10.296 -0.0205 -0.3500  0.1282
  410loPI   C2B 6558  13.614   2.528   9.900  0.3228 -0.2540  0.1210
  410loPI   C3B 6559  13.558   2.553   9.529  0.0271  0.2603  0.0723
  410loPI   C4B 6560  13.509   2.442   9.159 -0.3014 -0.0231  0.4717
  411loPI    C1 6561  17.648   8.438  11.646 -0.3920  0.0446  0.0648
  411loPI    C2 6562  17.511   8.068  11.710  0.2210 -0.2076 -0.0102
  411loPI    C3 6563  17.649   8.286  12.015  0.2661 -0.2105 -0.0284
  411loPI   PO4 6564  17.575   8.449  11.384 -0.1533  0.0617 -0.0837
  411loPI   GL1 6565  17.535   8.402  10.902 -0.0627  0.2501 -0.2585
  411loPI   GL2 6566  17.294   8.656  10.615 -0.0090  0.1007  0.1498
  411loPI   C1A 6567  17.344   8.147  10.574  0.1460 -0.2656 -0.0760
  411loPI   C2A 6568  17.303   7.975  10.212  0.1209  0.0074 -0.2348
  411loPI   C3A 6569  17.297   8.085   9.759 -0.0615  0.0636  0.0803
  411loPI   C4A 6570  17.371   8.046   9.328  0.0310  0.1820 -0.3575
  411loPI   C5A 6571  17.339   7.964   8.865  0.1521 -0.3289  0.1517
  411loPI   C6A 6572  17.292   7.985   8.407 -0.0350  0.0186  0.2578
  411loPI   C1B 6573  17.361   8.879  10.213  0.1965  0.0334 -0.1141
  411loPI   C2B 6574  17.295   8.986   9.799 -0.0166 -0.0791  0.3117
  411loPI   C3B 6575  17.379   8.907   9.423 -0.0063  0.0094 -0.0151
  411loPI   C4B 6576  17.315   8.914   9.009 -0.1255  0.0256  0.1203
  412loPI    C1 6577  16.371   3.394  11.147 -0.1785 -0.0842  0.1873
  412loPI    C2 6578  16.217   3.345  11.513  0.0187  0.1059  0.2982
  412loPI    C3 6579  16.594   3.471  11.470 -0.0624  0.2649  0.0287
  412loPI   PO4 6580  16.289   3.264  11.003  0.0326 -0.2318 -0.0871
  412loPI   GL1 6581  16.194   3.267  10.497 -0.1130  0.4739 -0.0965
  412loPI   GL2 6582  16.022   3.011  10.473  0.2199 -0.1610 -0.0262
  412loPI   C1A 6583  16.237   3.251  10.037  0.1406 -0.0400  0.1600
  412loPI   C2A 6584  16.358   3.259   9.660  0.3003 -0.2659 -0.0328
  412loPI   C3A 6585  16.298   3.175   9.261 -0.0068 -0.0240  0.2492
  412loPI   C4A 6586  16.379   3.118   8.775  0.0759  0.2925  0.0360
  412loPI   C5A 6587  16.300   3.429   8.379 -0.0782  0.1748  0.0787
  412loPI   C6A 6588  16.171   3.742   8.078 -0.1099 -0.0372  0.2823
  412loPI   C1B 6589  15.855   2.850  10.085  0.0606 -0.3037  0.0627
  412loPI   C2B 6590  15.960   2.853   9.605 -0.0346 -0.2021 -0.1555
  412loPI   C3B 6591  15.916   2.786   9.231  0.0964 -0.0997  0.1384
  412loPI   C4B 6592  16.014   2.766   8.831 -0.1367 -0.2550  0.3214
  413loPI    C1 6593  10.322   8.425  11.000 -0.0731 -0.0086 -0.1256
  413loPI    C2 6594  10.451   8.175  10.715  0.0602 -0.1164  0.0279
  413loPI    C3 6595  10.646   8.200  11.063  0.0961  0.2627 -0.0153
  413loPI   PO4 6596  10.252   8.634  10.866 -0.0304 -0.1489  0.0711
  413loPI   GL1 6597  10.095   8.695  10.399  0.2180  0.0445 -0.2539
  413loPI   GL2 6598   9.751   8.649  10.330  0.1903 -0.1788  0.1116
  413loPI   C1A 6599  10.190   8.792  10.077 -0.1441  0.1994 -0.0391
  413loPI   C2A 6600  10.136   8.696   9.653  0.2520  0.3641 -0.0910
  413loPI   C3A 6601  10.073   8.796   9.246 -0.0293 -0.2659 -0.0691
  413loPI   C4A 6602  10.259   8.814   8.948 -0.1109  0.0395  0.0176
  413loPI   C5A 6603  10.393   8.883   8.513  0.0305  0.0754  0.0172
  413loPI   C6A 6604  10.247   8.622   8.139  0.2000  0.0818 -0.1516
  413loPI   C1B 6605   9.686   8.665   9.931  0.1387 -0.3776  0.0155
  413loPI   C2B 6606   9.682   8.678   9.477  0.2611 -0.1994  0.1204
  413loPI   C3B 6607   9.715   8.683   8.948  0.0366 -0.1114  0.1608
  413loPI   C4B 6608   9.960   8.593   8.552 -0.0313  0.2749 -0.0384
  414loPI    C1 6609   3.222  14.673  10.850 -0.2552  0.0372 -0.0703
  414loPI    C2 6610   3.091  15.001  11.039 -0.3052  0.0005 -0.0412
  414loPI    C3 6611   3.096  14.648  11.229  0.0048  0.0338  0.0179
  414loPI   PO4 6612   3.162  14.717  10.656 -0.1535  0.0678  0.1213
  414loPI   GL1 6613   2.812  14.697  10.379  0.0078 -0.0274 -0.1448
  414loPI   GL2 6614   2.804  14.996  10.306 -0.0161  0.0631  0.4583
  414loPI   C1A 6615   2.959  14.604  10.030 -0.1085 -0.1262 -0.5934
  414loPI   C2A 6616   3.118  14.553   9.683 -0.1983  0.0110 -0.2219
  414loPI   C3A 6617   3.174  14.401   9.241  0.3757  0.1218 -0.0337
  414loPI   C4A 6618   3.151  14.297   8.809 -0.0273 -0.0255 -0.0488
  414loPI   C5A 6619   3.163  13.952   8.715 -0.1805  0.0437 -0.1973
  414loPI   C6A 6620   3.409  13.754   8.460  0.1725 -0.1096  0.0250
  414loPI   C1B 6621   2.718  15.053   9.911 -0.0579  0.1020 -0.0635
  414loPI   C2B 6622   2.583  15.009   9.526 -0.1532  0.1699  0.3089
  414loPI   C3B 6623   2.538  14.924   9.041 -0.0868 -0.1042  0.2605
  414loPI   C4B 6624   2.544  14.803   8.630  0.3407  0.0891 -0.2911
  415loPI    C1 6625   0.264  12.420  11.388 -0.1659  0.0323  0.0655
  415loPI    C2 6626   0.611  12.412  11.587 -0.1573 -0.0083  0.0490
  415loPI    C3 6627   0.448  12.762  11.484 -0.1409  0.0117  0.0909
  415loPI   PO4 6628   0.321  12.240  11.184  0.0528  0.0080 -0.1284
  415loPI   GL1 6629   0.237  12.091  10.708  0.0224  0.2858 -0.0728
  415loPI   GL2 6630   0.393  12.396  10.744 -0.1930 -0.0014  0.0083
  415loPI   C1A 6631   0.434  12.004  10.387  0.1023  0.1138  0.1995
  415loPI   C2A 6632   0.478  12.156  10.002  0.1598  0.0204 -0.1563
  415loPI   C3A 6633   0.567  12.034   9.547 -0.1597 -0.2841 -0.1926
  415loPI   C4A 6634   0.526  12.030   9.194  0.0894  0.2698  0.3145
  415loPI   C5A 6635   0.570  12.136   8.712 -0.0007  0.2562 -0.0328
  415loPI   C6A 6636   0.680  12.214   8.282 -0.3454  0.0149  0.1931
  415loPI   C1B 6637   0.191  12.483  10.353 -0.0227 -0.0530  0.1542
  415loPI   C2B 6638   0.250  12.575  10.049 -0.3177 -0.1903  0.0631
  415loPI   C3B 6639   0.275  12.501   9.549  0.1020  0.0399  0.1946
  415loPI   C4B 6640   0.327  12.544   9.131  0.2173  0.1648  0.0341
  416loPI    C1 6641   1.208   5.158  11.281 -0.1081  0.0034 -0.1686
  416loPI    C2 6642   1.232   4.772  11.382 -0.1149  0.0600  0.0536
  416loPI    C3 6643   0.983   5.015  11.578  0.0630  0.2286  0.0738
  416loPI   PO4 6644   1.244   5.177  11.011  0.1766 -0.0834  0.1380
  416loPI   GL1 6645   1.137   5.010  10.528 -0.4352  0.0006 -0.1158
  416loPI   GL2 6646   1.191   5.291  10.511 -0.1746  0.0054  0.1912
  416loPI   C1A 6647   1.353   4.870  10.100 -0.0671  0.0313 -0.0599
  416loPI   C2A 6648   1.346   4.809   9.614  0.1948  0.0872 -0.1739
  416loPI   C3A 6649   1.174   4.807   9.177  0.1603  0.0410 -0.0730
  416loPI   C4A 6650   1.086   4.801   8.769  0.4188  0.1315  0.2412
  416loPI   C5A 6651   0.774   4.929   8.468  0.0658 -0.0547  0.0643
  416loPI   C6A 6652   0.434   5.033   8.321  0.2036  0.3237 -0.0699
  416loPI   C1B 6653   0.984   5.391  10.141  0.2260 -0.1626  0.0472
  416loPI   C2B 6654   1.032   5.391   9.640  0.1530  0.0163  0.2343
  416loPI   C3B 6655   0.917   5.320   9.202  0.1068 -0.0195  0.0380
  416loPI   C4B 6656   1.056   5.302   8.845 -0.0288 -0.2355  0.2532
  417loPI    C1 6657   3.340  14.168  10.955 -0.0757 -0.1050  0.0398
  417loPI    C2 6658   3.038  14.160  11.218 -0.0222  0.1066  0.1096
  417loPI    C3 6659   3.406  14.260  11.338  0.0381  0.0347 -0.0125
  417loPI   PO4 6660   3.275  14.163  10.706  0.0625  0.0522 -0.1924
  417loPI   GL1 6661   3.443  14.105  10.361  0.0505  0.0041 -0.0283
  417loPI   GL2 6662   3.434  14.330  10.229  0.0239 -0.1818  0.2911
  417loPI   C1A 6663   3.666  13.857  10.123 -0.1272  0.1317 -0.2952
  417loPI   C2A 6664   3.824  13.825   9.734 -0.2321  0.0383 -0.0853
  417loPI   C3A 6665   3.819  13.662   9.227  0.2464  0.1418  0.2582
  417loPI   C4A 6666   4.095  13.833   8.894  0.0776  0.0420  0.3068
  417loPI   C5A 6667   4.041  13.991   8.524 -0.0873 -0.1728  0.1139
  417loPI   C6A 6668   3.853  13.882   8.113 -0.0166  0.2028 -0.0522
  417loPI   C1B 6669   3.351  14.176   9.826 -0.1226 -0.0846  0.0881
  417loPI   C2B 6670   3.452  14.086   9.450  0.1196  0.2635  0.0546
  417loPI   C3B 6671   3.661  14.068   9.007  0.3316 -0.0700  0.1846
  417loPI   C4B 6672   3.645  14.267   8.659  0.1337 -0.0536  0.0368
  418loPI    C1 6673   9.362  11.032  11.353 -0.0740  0.1658 -0.0035
  418loPI    C2 6674   9.544  10.906  11.686 -0.0563  0.0380 -0.0609
  418loPI    C3 6675   9.294  10.663  11.491 -0.0311  0.0960 -0.1665
  418loPI   PO4 6676   9.501  11.043  11.122 -0.3158  0.2891 -0.0826
  418loPI   GL1 6677   9.593  11.020  10.648 -0.0744 -0.1036  0.0354
  418loPI   GL2 6678   9.832  11.294  10.518  0.0643 -0.1876 -0.1399
  418loPI   C1A 6679   9.613  10.909  10.195  0.1295  0.0353  0.1524
  418loPI   C2A 6680   9.592  11.038   9.815  0.1826  0.0008  0.3643
  418loPI   C3A 6681   9.578  10.985   9.407  0.1058 -0.1006  0.3386
  418loPI   C4A 6682   9.675  10.951   8.995 -0.0848  0.0573  0.3008
  418loPI   C5A 6683   9.600  11.370   8.763  0.0695 -0.0633  0.1617
  418loPI   C6A 6684   9.427  11.376   8.301 -0.4592  0.1614  0.0521
  418loPI   C1B 6685   9.741  11.458  10.130 -0.3252 -0.1529 -0.1345
  418loPI   C2B 6686   9.713  11.501   9.823 -0.0372 -0.0385 -0.0681
  418loPI   C3B 6687   9.730  11.437   9.387 -0.0395  0.0976 -0.1091
  418loPI   C4B 6688   9.927  11.582   9.048 -0.0445  0.2131 -0.1715
  419loPI    C1 6689   8.643   8.871  11.208 -0.0898 -0.1100  0.0080
  419loPI    C2 6690   8.301   8.812  11.008 -0.0606 -0.2775  0.0062
  419loPI    C3 6691   8.291   8.915  11.394 -0.1174  0.0570 -0.0815
  419loPI   PO4 6692   8.784   9.033  11.022 -0.1879  0.1655 -0.0978
  419loPI   GL1 6693   8.699   9.241  10.665  0.0934 -0.0233  0.1114
  419loPI   GL2 6694   8.808   8.966  10.527  0.1870  0.0398 -0.1903
  419loPI   C1A 6695   8.507   9.382  10.330  0.1243 -0.0222 -0.1170
  419loPI   C2A 6696   8.519   9.383   9.942  0.1302  0.1032 -0.2709
  419loPI   C3A 6697   8.534   9.306   9.504 -0.4573 -0.1782  0.1524
  419loPI   C4A 6698   8.630   9.378   9.046 -0.0231  0.1262 -0.4569
  419loPI   C5A 6699   8.718   9.459   8.595  0.0593 -0.0558  0.2532
  419loPI   C6A 6700   8.578   9.661   8.222  0.0486 -0.0637  0.2172
  419loPI   C1B 6701   8.855   8.999  10.025 -0.0925  0.0234 -0.1889
  419loPI   C2B 6702   8.851   8.945   9.595  0.1118 -0.0044 -0.0519
  419loPI   C3B 6703   8.928   8.955   9.155  0.0575 -0.1623  0.0021
  419loPI   C4B 6704   8.850   8.972   8.679 -0.1851  0.2466  0.1726
  420loPI    C1 6705  16.052   7.899  10.912  0.1181  0.1080 -0.0177
  420loPI    C2 6706  16.277   8.230  10.913  0.1506  0.0863  0.1101
  420loPI    C3 6707  16.230   8.019  11.250  0.1755 -0.0699  0.0168
  420loPI   PO4 6708  16.040   7.789  10.745 -0.1601 -0.0396  0.2601
  420loPI   GL1 6709  15.959   7.652  10.345 -0.1704 -0.0524  0.0289
  420loPI   GL2 6710  15.650   7.704  10.438 -0.1460 -0.0043 -0.3318
  420loPI   C1A 6711  15.957   7.655   9.943 -0.4467 -0.0222  0.2062
  420loPI   C2A 6712  15.982   7.689   9.412 -0.1875 -0.0176 -0.0971
  420loPI   C3A 6713  15.991   7.732   8.911  0.0684  0.0262 -0.1352
  420loPI   C4A 6714  16.035   7.701   8.475  0.2402  0.2134 -0.1476
  420loPI   C5A 6715  15.746   7.775   8.311  0.4270  0.0996 -0.1060
  420loPI   C6A 6716  15.427   8.074   8.356 -0.0954  0.1030 -0.2166
  420loPI   C1B 6717  15.411   7.637  10.053 -0.1181 -0.1019 -0.1329
  420loPI   C2B 6718  15.489   7.658   9.682  0.0955 -0.1118 -0.2120
  420loPI   C3B 6719  15.428   7.707   9.243 -0.1273  0.0407  0.1463
  420loPI   C4B 6720  15.463   7.732   8.813  0.0256 -0.4207  0.0151
  421loPI    C1 6721  16.746  15.322  11.114 -0.0237 -0.1212  0.0537
  421loPI    C2 6722  16.792  15.571  11.423  0.2797  0.0249 -0.1049
  421loPI    C3 6723  16.998  15.228  11.410  0.2229 -0.0087 -0.1163
  421loPI   PO4 6724  16.769  15.509  10.958  0.0292  0.0574  0.0827
  421loPI   GL1 6725  16.460  15.601  10.775  0.0207  0.0889 -0.3612
  421loPI   GL2 6726  16.263  15.507  10.686 -0.0476  0.0277  0.0681
  421loPI   C1A 6727  16.627  15.665  10.348  0.0303  0.1420  0.1240
  421loPI   C2A 6728  16.498  15.712   9.917 -0.1959 -0.2236  0.0212
  421loPI   C3A 6729  16.502  15.643   9.483  0.1733 -0.0235 -0.0343
  421loPI   C4A 6730  16.450  15.685   9.042 -0.2025 -0.0320  0.0100
  421loPI   C5A 6731  16.373  15.620   8.528  0.0558 -0.0732 -0.0463
  421loPI   C6A 6732  16.094  15.963   8.340 -0.0219 -0.1148  0.2304
  421loPI   C1B 6733  16.277  15.293  10.253 -0.1609 -0.0793  0.1308
  421loPI   C2B 6734  16.181  15.321   9.782 -0.2490 -0.1171  0.1974
  421loPI   C3B 6735  16.206  15.273   9.335 -0.1243 -0.0872 -0.2344
  421loPI   C4B 6736  16.119  15.353   8.867  0.2576 -0.0561 -0.0625
  422loPI    C1 6737  11.496   6.832  10.842  0.0346 -0.1055 -0.0554
  422loPI    C2 6738  11.456   6.974  11.214  0.2404 -0.0636 -0.0481
  422loPI    C3 6739  11.535   6.587  11.155  0.0818 -0.0959 -0.0539
  422loPI   PO4 6740  11.200   6.800  10.635 -0.1208  0.1536  0.2543
  422loPI   GL1 6741  11.233   6.695  10.231 -0.1767 -0.1346 -0.2246
  422loPI   GL2 6742  10.970   6.593  10.220  0.3005  0.0068 -0.2116
  422loPI   C1A 6743  11.484   6.654   9.882 -0.0399 -0.0187 -0.0896
  422loPI   C2A 6744  11.506   6.583   9.467  0.0706  0.1597 -0.2098
  422loPI   C3A 6745  11.441   6.766   9.081 -0.1376  0.1441  0.0082
  422loPI   C4A 6746  11.603   6.680   8.657  0.1943  0.3061 -0.2725
  422loPI   C5A 6747  11.790   6.333   8.441 -0.2365 -0.4030 -0.0011
  422loPI   C6A 6748  11.839   5.889   8.485 -0.0517 -0.0031  0.1557
  422loPI   C1B 6749  10.929   6.691   9.775  0.2983 -0.2575  0.1872
  422loPI   C2B 6750  10.951   6.718   9.318 -0.2155 -0.1424  0.2760
  422loPI   C3B 6751  10.954   6.940   8.895 -0.4273  0.0918  0.0467
  422loPI   C4B 6752  10.873   7.277   8.720  0.0892 -0.0410 -0.0735
  423loPI    C1 6753  14.768   0.607  11.532 -0.1691  0.0783  0.0799
  423loPI    C2 6754  14.575   0.417  11.827  0.0885 -0.1035  0.1355
  423loPI    C3 6755  14.951   0.316  11.737 -0.0040 -0.0865 -0.2928
  423loPI   PO4 6756  14.668   0.653  11.342 -0.1286 -0.0456  0.0343
  423loPI   GL1 6757  14.664   0.531  10.980 -0.1520 -0.2558 -0.1895
  423loPI   GL2 6758  14.479   0.233  11.050  0.1859 -0.2066 -0.2397
  423loPI   C1A 6759  14.547   0.529  10.514  0.1579 -0.1448 -0.0569
  423loPI   C2A 6760  14.520   0.665  10.038 -0.1792 -0.2062  0.0014
  423loPI   C3A 6761  14.574   0.763   9.599 -0.4701  0.1260 -0.3578
  423loPI   C4A 6762  14.540   0.757   9.125  0.2057  0.1302 -0.4023
  423loPI   C5A 6763  14.784   0.695   8.766  0.0620 -0.0656  0.2213
  423loPI   C6A 6764  14.858   0.265   8.640 -0.0535  0.2686  0.2838
  423loPI   C1B 6765  14.327   0.130  10.621 -0.1117  0.0671 -0.1212
  423loPI   C2B 6766  14.264   0.159  10.176 -0.1583 -0.0537  0.0693
  423loPI   C3B 6767  14.292   0.327   9.761 -0.3522 -0.0921  0.2548
  423loPI   C4B 6768  14.316   0.342   9.346 -0.0362  0.3023  0.0519
  424loPI    C1 6769   8.792   6.946  10.903  0.0265  0.0766  0.0938
  424loPI    C2 6770   8.416   6.988  11.034 -0.0773  0.0890 -0.2011
  424loPI    C3 6771   8.716   6.950  11.296 -0.3024 -0.0918  0.0357
  424loPI   PO4 6772   8.813   7.074  10.717  0.1691 -0.2231 -0.0432
  424loPI   GL1 6773   8.893   7.099  10.370  0.3444  0.1165 -0.1356
  424loPI   GL2 6774   8.674   7.072  10.183 -0.2087 -0.2695 -0.0158
  424loPI   C1A 6775   9.113   7.224  10.027 -0.4225 -0.0951  0.1256
  424loPI   C2A 6776   9.151   7.240   9.535 -0.2625 -0.1734 -0.0014
  424loPI   C3A 6777   9.070   7.280   9.077 -0.2667 -0.0660  0.0824
  424loPI   C4A 6778   9.231   7.178   8.681  0.1533  0.0953  0.0760
  424loPI   C5A 6779   9.530   7.414   8.465  0.1190 -0.0064  0.0954
  424loPI   C6A 6780   9.711   7.731   8.252  0.1895 -0.2231 -0.4018
  424loPI   C1B 6781   8.624   7.150   9.747  0.1868  0.2687  0.0730
  424loPI   C2B 6782   8.605   7.182   9.301  0.1211 -0.2359  0.4224
  424loPI   C3B 6783   8.618   7.193   8.895 -0.1292 -0.0134 -0.2669
  424loPI   C4B 6784   8.552   7.191   8.459  0.2272  0.0945  0.2516
  425loPI    C1 6785   0.319  16.501  11.157  0.1331  0.0282  0.0113
  425loPI    C2 6786   0.544  16.173  11.197  0.0993  0.0015 -0.0186
  425loPI    C3 6787   0.711  16.535  11.225  0.1254 -0.0181  0.0802
  425loPI   PO4 6788   0.092  16.428  10.948 -0.1872 -0.3751  0.0680
  425loPI   GL1 6789   0.106  16.319  10.529  0.1186 -0.2817 -0.0705
  425loPI   GL2 6790  -0.124  16.153  10.407  0.1064  0.0879  0.1112
  425loPI   C1A 6791   0.211  16.568  10.184 -0.2822  0.0613 -0.0280
  425loPI   C2A 6792   0.278  16.558   9.763  0.0793  0.0749  0.0631
  425loPI   C3A 6793   0.194  16.412   9.280  0.2021 -0.0268 -0.1723
  425loPI   C4A 6794   0.330  16.495   8.918 -0.0248 -0.1017  0.0992
  425loPI   C5A 6795   0.329  16.406   8.409  0.1378  0.1079  0.0273
  425loPI   C6A 6796   0.183  16.710   8.117  0.2971 -0.2549  0.1529
  425loPI   C1B 6797  -0.044  16.046   9.968  0.0135  0.2718 -0.1259
  425loPI   C2B 6798  -0.061  16.027   9.565 -0.1971 -0.0022  0.1610
  425loPI   C3B 6799  -0.126  16.063   9.112 -0.0248 -0.1370 -0.0281
  425loPI   C4B 6800  -0.066  16.122   8.682  0.2795 -0.0478  0.0729
  426loPI    C1 6801   1.075   3.607  11.239 -0.0016  0.0836  0.0895
  426loPI    C2 6802   1.010   3.969  11.396 -0.0708  0.1085  0.0040
  426loPI    C3 6803   0.872   3.643  11.581  0.0724  0.1183  0.1301
  426loPI   PO4 6804   1.034   3.700  10.939  0.2048  0.0074  0.0858
  426loPI   GL1 6805   0.913   3.973  10.627 -0.1378 -0.0213  0.0941
  426loPI   GL2 6806   1.141   3.930  10.516 -0.1788  0.1616 -0.1964
  426loPI   C1A 6807   0.629   4.068  10.341 -0.0939 -0.1595  0.2412
  426loPI   C2A 6808   0.647   3.956   9.878 -0.0290 -0.0537 -0.0588
  426loPI   C3A 6809   0.525   3.975   9.440 -0.1263  0.6886  0.1695
  426loPI   C4A 6810   0.537   3.920   8.967 -0.0011  0.3286 -0.2489
  426loPI   C5A 6811   0.703   3.839   8.613  0.0431 -0.0737 -0.1284
  426loPI   C6A 6812   1.118   3.744   8.524  0.1265  0.0184 -0.0725
  426loPI   C1B 6813   1.321   4.035  10.143 -0.0108 -0.3416  0.1481
  426loPI   C2B 6814   1.175   3.919   9.792 -0.1411  0.1219  0.0981
  426loPI   C3B 6815   1.077   3.913   9.377 -0.1562 -0.1602 -0.1483
  426loPI   C4B 6816   1.032   3.983   8.953  0.0981  0.0237  0.0804
  427loPI    C1 6817  12.797   7.302  10.843  0.1111 -0.0967  0.0427
  427loPI    C2 6818  12.425   7.156  10.867  0.0429  0.0037 -0.3404
  427loPI    C3 6819  12.670   7.132  11.182 -0.3776  0.1857  0.0108
  427loPI   PO4 6820  12.875   7.206  10.687  0.0998 -0.1398 -0.1651
  427loPI   GL1 6821  12.637   7.047  10.356  0.1465 -0.0407  0.0292
  427loPI   GL2 6822  12.520   7.409  10.413 -0.4975  0.0257  0.1769
  427loPI   C1A 6823  12.787   6.974   9.948 -0.2152  0.0113 -0.0326
  427loPI   C2A 6824  12.774   6.979   9.578  0.0530  0.0017  0.2379
  427loPI   C3A 6825  12.846   6.985   9.139 -0.0852 -0.2508  0.2590
  427loPI   C4A 6826  12.746   6.978   8.780 -0.0584  0.0310 -0.1598
  427loPI   C5A 6827  12.892   6.826   8.418 -0.1535  0.1084 -0.1593
  427loPI   C6A 6828  13.103   6.540   8.092 -0.1983 -0.2353 -0.1779
  427loPI   C1B 6829  12.533   7.426   9.964 -0.1944 -0.0062  0.0889
  427loPI   C2B 6830  12.594   7.454   9.470 -0.1969  0.0303  0.1558
  427loPI   C3B 6831  12.602   7.481   9.004  0.2440 -0.1727  0.0901
  427loPI   C4B 6832  12.596   7.615   8.561  0.0973 -0.2127 -0.1077
  428loPI    C1 6833  15.828  14.120  11.182  0.0940  0.0369 -0.0723
  428loPI    C2 6834  15.799  14.019  11.568  0.0692 -0.0295 -0.0914
  428loPI    C3 6835  16.050  14.310  11.456  0.1362 -0.0653 -0.0352
  428loPI   PO4 6836  15.863  13.900  11.073 -0.2648  0.1597  0.2370
  428loPI   GL1 6837  15.975  13.778  10.624  0.1957 -0.0807 -0.1678
  428loPI   GL2 6838  15.977  14.004  10.589  0.1457 -0.1452  0.0802
  428loPI   C1A 6839  15.760  13.902  10.097 -0.1320  0.3438  0.0182
  428loPI   C2A 6840  15.871  13.974   9.671 -0.1736 -0.0424  0.0972
  428loPI   C3A 6841  15.804  13.923   9.205 -0.0327 -0.1342 -0.0993
  428loPI   C4A 6842  15.846  13.890   8.728  0.0492 -0.0471  0.1163
  428loPI   C5A 6843  15.701  13.980   8.367  0.0218 -0.1363 -0.1964
  428loPI   C6A 6844  15.642  14.024   8.079  0.0550 -0.3821  0.1835
  428loPI   C1B 6845  16.135  14.237  10.241 -0.2521 -0.4610 -0.2668
  428loPI   C2B 6846  16.142  14.430   9.960 -0.1610 -0.3144 -0.1900
  428loPI   C3B 6847  16.175  14.425   9.463 -0.0305  0.0477 -0.1081
  428loPI   C4B 6848  16.113  14.329   9.036 -0.0980 -0.1591  0.4619
  429loPI    C1 6849   1.058   2.430  11.143  0.1368 -0.2260 -0.0045
  429loPI    C2 6850   0.729   2.395  11.369  0.2771 -0.3074  0.1902
  429loPI    C3 6851   1.047   2.594  11.508  0.2893 -0.1743 -0.0226
  429loPI   PO4 6852   0.984   2.640  10.921 -0.0210 -0.1243 -0.0774
  429loPI   GL1 6853   0.949   2.835  10.562  0.3309  0.0262 -0.1643
  429loPI   GL2 6854   0.830   2.547  10.484  0.0567 -0.1685  0.2986
  429loPI   C1A 6855   0.683   3.157  10.319  0.0084 -0.3561  0.2407
  429loPI   C2A 6856   0.608   3.153   9.871 -0.0793 -0.2327  0.1661
  429loPI   C3A 6857   0.594   3.129   9.429 -0.2192  0.1967  0.2601
  429loPI   C4A 6858   0.397   2.978   9.037 -0.0202  0.2369  0.0420
  429loPI   C5A 6859   0.474   2.960   8.559  0.1182 -0.0073  0.1280
  429loPI   C6A 6860   0.548   2.903   8.163 -0.0895  0.0534  0.0350
  429loPI   C1B 6861   0.857   2.651  10.056 -0.1355  0.0963  0.1166
  429loPI   C2B 6862   0.941   2.599   9.639 -0.4403 -0.1262  0.3598
  429loPI   C3B 6863   0.724   2.602   9.234  0.2584  0.0292 -0.1295
  429loPI   C4B 6864   0.724   2.536   8.738 -0.3040  0.1465  0.2274
  430loPI    C1 6865   1.501   0.543  11.086  0.1355  0.0118  0.3225
  430loPI    C2 6866   1.662   0.191  11.188 -0.1760 -0.2048  0.0838
  430loPI    C3 6867   1.447   0.398  11.454 -0.0836 -0.2467  0.1915
  430loPI   PO4 6868   1.671   0.676  10.864 -0.3804 -0.1028  0.3004
  430loPI   GL1 6869   1.558   0.795  10.411 -0.0166 -0.0454  0.0453
  430loPI   GL2 6870   1.536   0.444  10.318 -0.1709 -0.1041  0.3262
  430loPI   C1A 6871   1.660   0.788   9.900  0.0043 -0.2286  0.0821
  430loPI   C2A 6872   1.758   0.884   9.524 -0.3706  0.1917 -0.0014
  430loPI   C3A 6873   1.733   0.809   9.056  0.1415 -0.3325 -0.0327
  430loPI   C4A 6874   1.669   0.811   8.551 -0.1701  0.0045 -0.3328
  430loPI   C5A 6875   1.283   0.972   8.275  0.0700 -0.2797 -0.3767
  430loPI   C6A 6876   0.836   1.010   8.159 -0.1818  0.0973  0.0617
  430loPI   C1B 6877   1.847   0.330  10.022  0.1733  0.1552  0.0118
  430loPI   C2B 6878   1.922   0.369   9.534 -0.0691  0.0996  0.1494
  430loPI   C3B 6879   1.909   0.305   9.081 -0.1523  0.0966  0.3863
  430loPI   C4B 6880   1.928   0.395   8.613  0.1552  0.1668  0.0065
  431loPI    C1 6881   7.739  16.227  10.918 -0.1822 -0.0824  0.2367
  431loPI    C2 6882   7.350  16.155  10.856 -0.1433 -0.2545  0.1886
  431loPI    C3 6883   7.493  16.174  11.229 -0.2227 -0.0543  0.2095
  431loPI   PO4 6884   7.820  16.081  10.749 -0.3554  0.2149  0.2618
  431loPI   GL1 6885   7.928  16.014  10.289 -0.1293  0.0339 -0.0315
  431loPI   GL2 6886   8.155  16.258  10.276 -0.0272  0.3441 -0.3834
  431loPI   C1A 6887   8.041  15.784   9.941 -0.0847  0.0541  0.0508
  431loPI   C2A 6888   8.108  15.937   9.453 -0.2248 -0.1271 -0.2695
  431loPI   C3A 6889   8.132  15.806   9.009 -0.2865  0.0567  0.2297
  431loPI   C4A 6890   8.130  15.573   8.567 -0.0040  0.0997  0.0908
  431loPI   C5A 6891   7.728  15.429   8.317  0.0791  0.3252 -0.1074
  431loPI   C6A 6892   7.257  15.539   8.413 -0.3920 -0.1859 -0.3813
  431loPI   C1B 6893   8.325  16.294   9.781 -0.0488 -0.2813  0.0299
  431loPI   C2B 6894   8.342  16.365   9.336 -0.1263 -0.1564  0.0748
  431loPI   C3B 6895   8.243  16.256   8.912  0.3374  0.1349 -0.1449
  431loPI   C4B 6896   8.386  16.275   8.455  0.1852 -0.0008 -0.0364
  432loPI    C1 6897  13.760   4.340  11.330  0.1324 -0.0176 -0.1228
  432loPI    C2 6898  13.483   4.594  11.194 -0.0611  0.0148  0.3169
  432loPI    C3 6899  13.869   4.698  11.190 -0.0718  0.0533 -0.1028
  432loPI   PO4 6900  13.640   4.074  11.198  0.1138  0.3707  0.1860
  432loPI   GL1 6901  13.583   4.060  10.813 -0.0220 -0.2737 -0.2223
  432loPI   GL2 6902  13.817   3.867  10.699 -0.0587 -0.0077  0.0501
  432loPI   C1A 6903  13.595   4.211  10.401 -0.0435 -0.2702  0.2978
  432loPI   C2A 6904  13.699   4.218  10.023 -0.0294  0.1039  0.0750
  432loPI   C3A 6905  13.676   4.346   9.567  0.0483 -0.0499  0.0338
  432loPI   C4A 6906  13.679   4.271   9.089 -0.1575 -0.3076 -0.0625
  432loPI   C5A 6907  13.568   4.377   8.638 -0.2752  0.4517  0.3894
  432loPI   C6A 6908  13.567   4.421   8.194 -0.3848  0.0619 -0.1243
  432loPI   C1B 6909  13.912   3.790  10.239  0.1271 -0.2352  0.0362
  432loPI   C2B 6910  13.922   3.779   9.829 -0.0409 -0.2972  0.1712
  432loPI   C3B 6911  13.899   3.867   9.386 -0.0042 -0.1374  0.1447
  432loPI   C4B 6912  13.954   3.789   8.977 -0.0956  0.1433 -0.2812
  433loPI    C1 6913  12.954   7.812  11.136  0.1472 -0.0998 -0.0376
  433loPI    C2 6914  13.068   7.479  11.325  0.0601  0.0103  0.2124
  433loPI    C3 6915  12.690   7.608  11.357  0.0784  0.1010  0.0689
  433loPI   PO4 6916  13.020   7.769  10.890  0.0354 -0.1278  0.2467
  433loPI   GL1 6917  13.011   7.653  10.459 -0.1500 -0.2016 -0.0588
  433loPI   GL2 6918  13.095   7.391  10.229 -0.3083  0.0591 -0.3534
  433loPI   C1A 6919  12.848   7.773  10.043  0.0435 -0.1398  0.0831
  433loPI   C2A 6920  12.871   7.895   9.581  0.2639  0.0200  0.1353
  433loPI   C3A 6921  12.940   7.949   9.123 -0.0648 -0.1388  0.1736
  433loPI   C4A 6922  12.989   8.022   8.616  0.1622 -0.1204  0.0283
  433loPI   C5A 6923  13.075   7.726   8.326 -0.1377  0.0765  0.0220
  433loPI   C6A 6924  12.920   7.323   8.154 -0.1629 -0.1250  0.0733
  433loPI   C1B 6925  13.015   7.458   9.789  0.1841 -0.2105  0.3006
  433loPI   C2B 6926  13.082   7.405   9.379  0.0862  0.3582  0.0369
  433loPI   C3B 6927  13.154   7.484   8.957 -0.2720  0.2716 -0.2341
  433loPI   C4B 6928  13.187   7.297   8.528  0.0456 -0.1298  0.0381
  434loPI    C1 6929  11.284  15.003  11.252 -0.1729 -0.0844  0.1008
  434loPI    C2 6930  11.423  15.274  11.512 -0.0154  0.0508 -0.1210
  434loPI    C3 6931  11.157  15.000  11.632 -0.0700  0.2147  0.1402
  434loPI   PO4 6932  11.327  15.238  11.028  0.1152  0.0752  0.0173
  434loPI   GL1 6933  11.462  15.270  10.717  0.2370 -0.0787  0.1888
  434loPI   GL2 6934  11.432  14.917  10.626  0.1401  0.1539 -0.1664
  434loPI   C1A 6935  11.387  15.374  10.271  0.0406  0.0262 -0.0409
  434loPI   C2A 6936  11.286  15.295   9.885  0.1881  0.1151 -0.2477
  434loPI   C3A 6937  11.086  15.452   9.487 -0.2987 -0.1735 -0.1425
  434loPI   C4A 6938  11.205  15.302   9.140 -0.0319  0.1975 -0.2598
  434loPI   C5A 6939  11.421  15.446   8.891  0.1508  0.0025  0.0703
  434loPI   C6A 6940  11.501  15.724   8.615  0.3064 -0.0271  0.1706
  434loPI   C1B 6941  11.497  14.595  10.356 -0.0493 -0.0730  0.1000
  434loPI   C2B 6942  11.389  14.462   9.937 -0.0541 -0.0764  0.2370
  434loPI   C3B 6943  11.430  14.488   9.438 -0.1274 -0.1355 -0.1096
  434loPI   C4B 6944  11.537  14.397   9.051  0.0242  0.1088 -0.3078
  435loPI    C1 6945  13.865  16.546  11.717 -0.1958 -0.1604 -0.1045
  435loPI    C2 6946  13.550  16.784  11.782 -0.0819 -0.0737  0.1437
  435loPI    C3 6947  13.697  16.561  12.080  0.1728 -0.0134  0.0663
  435loPI   PO4 6948  13.773  16.397  11.496  0.1595  0.2743  0.1226
  435loPI   GL1 6949  13.910  16.411  11.088 -0.3343  0.0955 -0.2026
  435loPI   GL2 6950  14.108  16.625  10.965 -0.1709 -0.2597 -0.0936
  435loPI   C1A 6951  13.734  16.220  10.716  0.1215  0.2509  0.0376
  435loPI   C2A 6952  13.754  16.264  10.278 -0.2092 -0.2182  0.1255
  435loPI   C3A 6953  13.711  16.279   9.764 -0.0301  0.1428 -0.0236
  435loPI   C4A 6954  13.669  16.429   9.403  0.1367 -0.3643  0.2294
  435loPI   C5A 6955  13.722  16.477   8.928 -0.0347  0.1596  0.1112
  435loPI   C6A 6956  13.771  16.602   8.488  0.3926 -0.0404 -0.1014
  435loPI   C1B 6957  14.018  16.603  10.587 -0.0383 -0.1658  0.2153
  435loPI   C2B 6958  14.081  16.755  10.108  0.0193 -0.2450 -0.0561
  435loPI   C3B 6959  13.986  16.799   9.750  0.0666 -0.0780  0.0499
  435loPI   C4B 6960  13.984  16.858   9.256 -0.1622  0.0847 -0.2318
  436loPI    C1 6961  11.463   9.040  10.650 -0.0768  0.1624  0.0789
  436loPI    C2 6962  11.401   9.108  11.039 -0.0302 -0.1848  0.1505
  436loPI    C3 6963  11.099   8.986  10.807 -0.0316 -0.0895  0.1018
  436loPI   PO4 6964  11.653   8.904  10.598  0.3507 -0.0642  0.1858
  436loPI   GL1 6965  11.691   8.689  10.244 -0.3263  0.0667  0.0986
  436loPI   GL2 6966  11.996   8.840  10.146  0.0987 -0.0421 -0.0624
  436loPI   C1A 6967  11.731   8.468   9.902  0.3944  0.0508 -0.3578
  436loPI   C2A 6968  12.025   8.434   9.499  0.0627  0.1754  0.0796
  436loPI   C3A 6969  12.204   8.448   9.067 -0.1726  0.2012 -0.0173
  436loPI   C4A 6970  12.262   8.539   8.735 -0.1354  0.0052  0.1065
  436loPI   C5A 6971  12.086   8.377   8.322 -0.1701  0.1442 -0.0047
  436loPI   C6A 6972  11.963   8.494   7.971 -0.3194 -0.0350  0.0626
  436loPI   C1B 6973  12.116   8.858   9.757  0.1740 -0.1203 -0.1567
  436loPI   C2B 6974  12.315   8.894   9.391  0.0038  0.1297  0.0298
  436loPI   C3B 6975  12.510   8.842   9.036  0.1636 -0.0295 -0.1872
  436loPI   C4B 6976  12.573   8.875   8.623  0.2108 -0.2331  0.0620
  437loPI    C1 6977   9.674   0.539  11.158  0.2500  0.0345 -0.0774
  437loPI    C2 6978   9.408   0.628  11.442 -0.0556 -0.0665 -0.3261
  437loPI    C3 6979   9.634   0.300  11.476 -0.1499 -0.1232 -0.2393
  437loPI   PO4 6980   9.544   0.557  10.892 -0.0535  0.0102  0.1560
  437loPI   GL1 6981   9.739   0.630  10.471 -0.0246  0.2675 -0.0459
  437loPI   GL2 6982   9.535   0.348  10.413  0.1554  0.2926 -0.0640
  437loPI   C1A 6983  10.042   0.779  10.186 -0.1792  0.1644 -0.1685
  437loPI   C2A 6984   9.984   0.859   9.694 -0.1937 -0.0917  0.1049
  437loPI   C3A 6985   9.979   0.828   9.301 -0.1246  0.1444  0.3220
  437loPI   C4A 6986  10.012   0.785   8.882 -0.1041 -0.2673 -0.1214
  437loPI   C5A 6987   9.972   0.785   8.359  0.1344  0.2104  0.1133
  437loPI   C6A 6988   9.709   0.739   8.135 -0.0345 -0.0745  0.0041
  437loPI   C1B 6989   9.726   0.468   9.991  0.0809  0.3793  0.3791
  437loPI   C2B 6990   9.817   0.359   9.532 -0.4129 -0.2050  0.0314
  437loPI   C3B 6991   9.747   0.386   9.151  0.0988 -0.0667 -0.1073
  437loPI   C4B 6992   9.706   0.438   8.700 -0.2428 -0.1366 -0.1199
  438loPI    C1 6993  15.023  13.060  11.489  0.1873  0.0165 -0.1215
  438loPI    C2 6994  15.393  12.922  11.553  0.1692 -0.1024 -0.2672
  438loPI    C3 6995  15.085  12.668  11.538  0.0210  0.0332  0.2589
  438loPI   PO4 6996  15.044  13.164  11.270 -0.1116 -0.1933 -0.1739
  438loPI   GL1 6997  15.088  13.346  10.860  0.3510 -0.1972  0.1566
  438loPI   GL2 6998  14.789  13.203  10.775  0.2057 -0.1972 -0.2146
  438loPI   C1A 6999  15.043  13.477  10.470  0.2242  0.2032 -0.1082
  438loPI   C2A 7000  15.053  13.559   9.994  0.1027 -0.0757  0.0463
  438loPI   C3A 7001  15.075  13.537   9.607 -0.0902  0.2309  0.1715
  438loPI   C4A 7002  15.092  13.603   9.172  0.2169 -0.0264 -0.2780
  438loPI   C5A 7003  15.073  13.570   8.654  0.0120  0.0744  0.0768
  438loPI   C6A 7004  15.234  13.795   8.255  0.2146 -0.1300 -0.0141
  438loPI   C1B 7005  14.753  13.047  10.280  0.0493 -0.1175  0.3620
  438loPI   C2B 7006  14.770  13.114   9.843  0.0077 -0.2278 -0.0153
  438loPI   C3B 7007  14.793  13.121   9.367 -0.0505  0.0696 -0.1157
  438loPI   C4B 7008  14.737  13.128   8.888 -0.3607 -0.0328  0.0506
  439loPI    C1 7009   9.022   6.522  11.070  0.1728 -0.0580  0.1159
  439loPI    C2 7010   9.058   6.202  11.307  0.1893 -0.0682  0.0997
  439loPI    C3 7011   9.031   6.567  11.468 -0.4295 -0.1244  0.1452
  439loPI   PO4 7012   8.932   6.456  10.815 -0.0709  0.2149 -0.1627
  439loPI   GL1 7013   8.844   6.594  10.376 -0.1133  0.2108  0.2480
  439loPI   GL2 7014   9.063   6.600  10.252 -0.1305  0.0778  0.0095
  439loPI   C1A 7015   8.474   6.679  10.114  0.4198  0.0855 -0.2550
  439loPI   C2A 7016   8.351   6.643   9.662 -0.0384 -0.0442  0.0543
  439loPI   C3A 7017   8.390   6.676   9.257  0.1163 -0.4475  0.0656
  439loPI   C4A 7018   8.404   6.613   8.829  0.1179 -0.0854 -0.3280
  439loPI   C5A 7019   8.433   6.588   8.435  0.0470  0.0769  0.0112
  439loPI   C6A 7020   8.680   6.642   7.948 -0.3405 -0.1005 -0.2885
  439loPI   C1B 7021   8.933   6.766   9.816 -0.2190  0.2296  0.1689
  439loPI   C2B 7022   8.872   6.731   9.403 -0.0837 -0.1375  0.1005
  439loPI   C3B 7023   8.970   6.789   8.998  0.0355 -0.1045 -0.0613
  439loPI   C4B 7024   8.849   6.804   8.618  0.0870  0.1674 -0.0649
  440loPI    C1 7025  17.520  14.179  11.084  0.0577 -0.0754  0.0262
  440loPI    C2 7026  17.215  14.006  11.276 -0.0045 -0.0378 -0.0379
  440loPI    C3 7027  17.576  14.026  11.449 -0.0420 -0.0683  0.0445
  440loPI   PO4 7028  17.481  14.055  10.831 -0.1625 -0.1709 -0.1624
  440loPI   GL1 7029  17.308  14.086  10.501  0.1326 -0.0067 -0.1719
  440loPI   GL2 7030  17.007  13.949  10.427  0.0052 -0.1854 -0.0336
  440loPI   C1A 7031  17.367  13.896  10.125 -0.1878  0.0413 -0.0090
  440loPI   C2A 7032  17.259  13.810   9.750  0.0583  0.1361  0.0067
  440loPI   C3A 7033  17.379  13.876   9.366  0.2103  0.4175  0.1921
  440loPI   C4A 7034  17.430  13.857   8.892  0.2572  0.0605 -0.1795
  440loPI   C5A 7035  17.564  13.979   8.505 -0.1915  0.3879  0.0176
  440loPI   C6A 7036  17.702  13.898   8.084 -0.1716  0.2201  0.2840
  440loPI   C1B 7037  16.847  13.941  10.040 -0.0536  0.2168 -0.0427
  440loPI   C2B 7038  16.821  13.921   9.534 -0.0151  0.1925 -0.2673
  440loPI   C3B 7039  16.966  13.913   9.102 -0.0332 -0.0515 -0.1398
  440loPI   C4B 7040  16.873  13.953   8.638 -0.1406  0.3292  0.0545
  441loPI    C1 7041   4.000   7.091  11.108  0.1863  0.1686 -0.0037
  441loPI    C2 7042   4.285   7.111  11.389  0.1533  0.2492  0.0243
  441loPI    C3 7043   3.990   7.381  11.383  0.0533  0.1408  0.0215
  441loPI   PO4 7044   4.095   7.101  10.904  0.0375 -0.2867 -0.1186
  441loPI   GL1 7045   3.847   7.117  10.586  0.0653 -0.2196  0.2058
  441loPI   GL2 7046   3.647   6.848  10.431 -0.1629  0.4483 -0.2349
  441loPI   C1A 7047   3.716   7.313  10.233  0.1223 -0.1642  0.1495
  441loPI   C2A 7048   3.732   7.308   9.835 -0.3377  0.0859  0.1202
  441loPI   C3A 7049   3.817   7.346   9.351 -0.0481 -0.0500 -0.0330
  441loPI   C4A 7050   3.880   7.275   8.983 -0.3589 -0.1124 -0.3351
  441loPI   C5A 7051   3.931   7.226   8.557 -0.0546 -0.2822  0.2876
  441loPI   C6A 7052   3.881   6.882   8.272  0.0724  0.2772 -0.0179
  441loPI   C1B 7053   3.506   6.882  10.043  0.2941 -0.1938 -0.1415
  441loPI   C2B 7054   3.530   6.815   9.585  0.0440  0.0662  0.0874
  441loPI   C3B 7055   3.648   6.850   9.168 -0.2080 -0.0135  0.3061
  441loPI   C4B 7056   3.819   6.768   8.740  0.0497  0.1033 -0.4720
  442loPI    C1 7057   4.445  17.577  10.761 -0.0561 -0.2010 -0.1423
  442loPI    C2 7058   4.091  17.487  10.923 -0.0433 -0.1545 -0.0880
  442loPI    C3 7059   4.405  17.563  11.159 -0.0661  0.0827 -0.1314
  442loPI   PO4 7060   4.408  17.479  10.505 -0.0639 -0.1298  0.1527
  442loPI   GL1 7061   4.554  17.275  10.176 -0.1702 -0.3885 -0.1599
  442loPI   GL2 7062   4.882  17.048  10.077  0.0577  0.0788  0.1455
  442loPI   C1A 7063   4.469  17.049   9.815 -0.0446  0.0871  0.1874
  442loPI   C2A 7064   4.231  16.919   9.463 -0.1370  0.3438  0.2070
  442loPI   C3A 7065   3.994  16.869   9.101 -0.2186 -0.2018 -0.0804
  442loPI   C4A 7066   3.897  16.558   8.732 -0.1182  0.1272 -0.1593
  442loPI   C5A 7067   4.021  16.354   8.227 -0.0177  0.0196 -0.0828
  442loPI   C6A 7068   4.303  15.977   7.994  0.5072 -0.0126  0.0585
  442loPI   C1B 7069   4.967  17.168   9.628 -0.0171 -0.2290  0.1572
  442loPI   C2B 7070   4.933  17.169   9.188  0.1571  0.0898  0.2512
  442loPI   C3B 7071   4.865  17.234   8.801  0.0202 -0.5441 -0.0942
  442loPI   C4B 7072   4.814  17.148   8.346 -0.1958 -0.2333 -0.0010
  443loPI    C1 7073   2.513   6.589  11.056  0.0671 -0.0616  0.2054
  443loPI    C2 7074   2.667   6.924  11.212 -0.0950  0.0822  0.0603
  443loPI    C3 7075   2.475   6.936  10.861  0.2065 -0.2257 -0.1217
  443loPI   PO4 7076   2.655   6.475  11.034  0.0077  0.1061  0.1971
  443loPI   GL1 7077   2.740   6.333  10.595  0.1881  0.0192 -0.0215
  443loPI   GL2 7078   2.819   6.705  10.554 -0.3584  0.2405 -0.0172
  443loPI   C1A 7079   2.611   6.217  10.183 -0.0867  0.0741 -0.3097
  443loPI   C2A 7080   2.753   6.303   9.847 -0.1648  0.0574  0.0269
  443loPI   C3A 7081   2.837   6.400   9.473 -0.0430  0.1022 -0.0530
  443loPI   C4A 7082   2.773   6.112   9.067  0.5589  0.5301 -0.0035
  443loPI   C5A 7083   2.500   6.098   8.674  0.0433 -0.1975  0.0748
  443loPI   C6A 7084   2.176   5.998   8.389  0.0974 -0.0199 -0.1801
  443loPI   C1B 7085   2.911   6.671  10.118 -0.1628 -0.1721  0.2954
  443loPI   C2B 7086   3.035   6.875   9.747  0.1287  0.0233  0.1789
  443loPI   C3B 7087   3.159   6.762   9.294 -0.2133 -0.3398 -0.1002
  443loPI   C4B 7088   3.055   6.545   8.860  0.0956 -0.0820 -0.1024
  444loPI    C1 7089  13.761  11.867  11.253  0.1894  0.0623 -0.0943
  444loPI    C2 7090  13.973  11.533  11.313 -0.0091 -0.0538 -0.0316
  444loPI    C3 7091  13.961  11.815  11.596  0.1075 -0.0213 -0.0587
  444loPI   PO4 7092  13.820  11.938  10.953 -0.1812  0.1550 -0.2038
  444loPI   GL1 7093  13.976  11.802  10.544 -0.0389 -0.0786 -0.1865
  444loPI   GL2 7094  13.594  11.710  10.415  0.0078  0.2464  0.0018
  444loPI   C1A 7095  14.094  12.159  10.205  0.1476  0.2493 -0.2506
  444loPI   C2A 7096  14.209  12.229   9.769  0.6057  0.1405 -0.3143
  444loPI   C3A 7097  14.149  12.368   9.346 -0.0648  0.0519 -0.2117
  444loPI   C4A 7098  14.165  12.297   8.897  0.0069 -0.0213 -0.0753
  444loPI   C5A 7099  14.067  12.258   8.464  0.0485  0.0915 -0.2493
  444loPI   C6A 7100  13.837  12.256   8.061 -0.2158  0.0656 -0.2947
  444loPI   C1B 7101  13.837  11.700  10.017  0.4770  0.0598 -0.0345
  444loPI   C2B 7102  13.854  11.826   9.688 -0.3441  0.1347  0.3530
  444loPI   C3B 7103  13.923  11.875   9.241 -0.1279 -0.0679  0.3632
  444loPI   C4B 7104  13.817  11.782   8.801 -0.0676  0.0355  0.0201
  445loPI    C1 7105   0.229  17.650  11.058  0.2516  0.0181 -0.4408
  445loPI    C2 7106   0.084  17.321  10.882  0.1208 -0.1673  0.0002
  445loPI    C3 7107   0.292  17.291  11.222 -0.0372  0.2196  0.1374
  445loPI   PO4 7108   0.257  17.824  10.768 -0.1512 -0.2152 -0.0526
  445loPI   GL1 7109  -0.078  17.765  10.429 -0.2356 -0.1906  0.2491
  445loPI   GL2 7110  -0.139  17.501  10.425 -0.1587 -0.0352  0.0040
  445loPI   C1A 7111   0.028  17.802   9.896  0.1689  0.0021  0.2706
  445loPI   C2A 7112   0.280  17.765   9.495 -0.1567 -0.2852 -0.0587
  445loPI   C3A 7113   0.204  17.763   9.036  0.4328  0.1716 -0.0659
  445loPI   C4A 7114   0.458  17.556   8.767  0.2118 -0.0554 -0.0403
  445loPI   C5A 7115   0.641  17.431   8.420  0.0608 -0.1404 -0.3506
  445loPI   C6A 7116   0.843  17.371   8.080 -0.0790  0.2094  0.0644
  445loPI   C1B 7117  -0.267  17.417  10.032 -0.1755  0.0969 -0.1318
  445loPI   C2B 7118  -0.295  17.338   9.636  0.0908  0.0187 -0.1267
  445loPI   C3B 7119  -0.249  17.481   9.233  0.2659  0.1240 -0.1243
  445loPI   C4B 7120  -0.235  17.709   8.777  0.0110 -0.0854  0.1267
  446loPI    C1 7121  15.717   2.750  11.136 -0.1330 -0.2600  0.0302
  446loPI    C2 7122  16.015   2.924  11.338  0.0215 -0.2571 -0.1967
  446loPI    C3 7123  15.637   3.038  11.402  0.1126  0.1042 -0.2792
  446loPI   PO4 7124  15.766   2.762  10.883  0.2679 -0.3158  0.1214
  446loPI   GL1 7125  15.504   2.881  10.539  0.0917  0.0684  0.2805
  446loPI   GL2 7126  15.248   2.775  10.449  0.0831  0.0041 -0.5091
  446loPI   C1A 7127  15.609   3.250  10.306 -0.2799  0.1145  0.0639
  446loPI   C2A 7128  15.733   3.303   9.829 -0.1009  0.2565  0.1938
  446loPI   C3A 7129  15.733   3.272   9.415  0.1449 -0.1702 -0.2095
  446loPI   C4A 7130  15.858   3.248   8.975  0.1520 -0.1069  0.2769
  446loPI   C5A 7131  15.905   3.226   8.592  0.0208 -0.0399  0.1596
  446loPI   C6A 7132  15.694   3.532   8.255 -0.0424  0.4997 -0.1620
  446loPI   C1B 7133  15.374   2.832   9.978  0.0100  0.0862  0.0771
  446loPI   C2B 7134  15.494   2.793   9.588 -0.0558  0.3405 -0.0140
  446loPI   C3B 7135  15.418   2.801   9.130 -0.0685 -0.2841 -0.2747
  446loPI   C4B 7136  15.478   2.811   8.679  0.0824 -0.4194  0.0103
  447loPI    C1 7137  14.530  15.167  11.190 -0.0577  0.0131  0.1782
  447loPI    C2 7138  14.643  15.311  11.546 -0.1590  0.1761  0.1454
  447loPI    C3 7139  14.307  15.097  11.515  0.1075 -0.2683  0.2348
  447loPI   PO4 7140  14.674  15.073  10.970 -0.0759 -0.0697 -0.0013
  447loPI   GL1 7141  14.959  15.313  10.734 -0.1616  0.2610  0.3367
  447loPI   GL2 7142  15.043  15.630  10.528  0.0677 -0.0122  0.0781
  447loPI   C1A 7143  14.744  15.272  10.236  0.0311 -0.1118  0.1195
  447loPI   C2A 7144  14.638  15.380   9.836 -0.0188  0.1148  0.1552
  447loPI   C3A 7145  14.670  15.276   9.399  0.1212 -0.3093 -0.1843
  447loPI   C4A 7146  14.669  15.384   9.010 -0.1375 -0.2529  0.0908
  447loPI   C5A 7147  14.677  15.341   8.660  0.0649 -0.1281 -0.1705
  447loPI   C6A 7148  14.462  15.237   8.324  0.0438  0.0546 -0.1430
  447loPI   C1B 7149  14.960  15.728  10.015  0.0363  0.0945 -0.0214
  447loPI   C2B 7150  14.956  15.802   9.569 -0.0480 -0.2136 -0.4289
  447loPI   C3B 7151  14.904  15.800   9.173  0.2541 -0.1567  0.1555
  447loPI   C4B 7152  14.908  15.734   8.801  0.1158  0.0556  0.1227
  448loPI    C1 7153  12.249   4.467  11.362  0.0252  0.2986 -0.1892
  448loPI    C2 7154  12.268   4.833  11.521 -0.1925  0.1799  0.1200
  448loPI    C3 7155  11.914   4.653  11.477 -0.0723 -0.0617  0.1282
  448loPI   PO4 7156  12.312   4.536  11.089  0.4220 -0.0497 -0.2593
  448loPI   GL1 7157  12.449   4.649  10.731 -0.1517  0.0952 -0.2191
  448loPI   GL2 7158  12.409   4.930  10.667  0.0667  0.0078 -0.0499
  448loPI   C1A 7159  12.564   4.412  10.309 -0.1385  0.0927  0.0261
  448loPI   C2A 7160  12.655   4.333   9.921  0.0153 -0.0071 -0.2738
  448loPI   C3A 7161  12.638   4.326   9.455 -0.2764 -0.1921 -0.0205
  448loPI   C4A 7162  12.719   4.258   9.076 -0.0396  0.0759  0.1457
  448loPI   C5A 7163  12.509   4.203   8.679 -0.1093  0.0727  0.0881
  448loPI   C6A 7164  12.129   4.160   8.566  0.1381 -0.0314  0.1961
  448loPI   C1B 7165  12.246   4.899  10.253 -0.0439 -0.2736  0.3831
  448loPI   C2B 7166  12.366   4.773   9.791 -0.1606 -0.1749 -0.1015
  448loPI   C3B 7167  12.350   4.713   9.364  0.0280 -0.2144 -0.1971
  448loPI   C4B 7168  12.474   4.689   8.927  0.0844  0.3177  0.0819
  449loPI    C1 7169   6.180   5.767  10.991  0.1388  0.1036  0.0107
  449loPI    C2 7170   6.070   5.573  11.322  0.0460  0.0524 -0.0497
  449loPI    C3 7171   5.977   5.959  11.277  0.2874  0.1302  0.0997
  449loPI   PO4 7172   5.991   5.664  10.782  0.2233  0.1597 -0.1528
  449loPI   GL1 7173   5.971   5.777  10.370 -0.0333 -0.0530  0.0152
  449loPI   GL2 7174   6.274   5.783  10.271 -0.3142  0.0958  0.3780
  449loPI   C1A 7175   5.738   5.810  10.085 -0.0016  0.0358  0.0238
  449loPI   C2A 7176   5.667   5.871   9.689 -0.2161 -0.0965  0.1342
  449loPI   C3A 7177   5.666   5.760   9.305  0.3049  0.1769  0.2819
  449loPI   C4A 7178   5.719   5.705   8.827  0.2197 -0.0369  0.1391
  449loPI   C5A 7179   5.504   5.533   8.575  0.1957  0.0907  0.1180
  449loPI   C6A 7180   5.376   5.238   8.271 -0.0361  0.0571 -0.1104
  449loPI   C1B 7181   6.177   5.857   9.848 -0.0286  0.0598 -0.0097
  449loPI   C2B 7182   6.172   5.912   9.373  0.1123 -0.3026  0.2578
  449loPI   C3B 7183   6.224   5.825   8.965 -0.4211 -0.1694  0.0188
  449loPI   C4B 7184   6.136   5.793   8.510 -0.2892  0.1908  0.0392
  450loPI    C1 7185  12.016   6.325  10.805  0.2314 -0.1536  0.1202
  450loPI    C2 7186  11.829   5.992  10.685 -0.2716  0.0832  0.2199
  450loPI    C3 7187  12.108   5.973  10.972 -0.0695 -0.2892  0.0070
  450loPI   PO4 7188  11.849   6.473  10.778 -0.0285 -0.3195  0.2274
  450loPI   GL1 7189  11.693   6.627  10.412 -0.0035  0.0086  0.2808
  450loPI   GL2 7190  11.620   6.329  10.238  0.3233 -0.1433 -0.3463
  450loPI   C1A 7191  11.942   6.662   9.990 -0.1038  0.0435  0.2088
  450loPI   C2A 7192  11.983   6.651   9.590  0.3920 -0.4518 -0.2746
  450loPI   C3A 7193  11.963   6.668   9.221  0.1358  0.0198  0.1174
  450loPI   C4A 7194  12.040   6.658   8.770 -0.0323  0.2300 -0.0589
  450loPI   C5A 7195  12.090   6.741   8.356 -0.1106  0.0307  0.0838
  450loPI   C6A 7196  12.002   7.084   8.107  0.4849  0.1164  0.1941
  450loPI   C1B 7197  11.726   6.244   9.847 -0.2250 -0.2271 -0.0581
  450loPI   C2B 7198  11.692   6.174   9.476  0.4306 -0.0890  0.1279
  450loPI   C3B 7199  11.504   5.871   9.342  0.0816 -0.0961  0.1757
  450loPI   C4B 7200  11.584   5.705   8.926 -0.1723 -0.3589  0.1106
  451loPI    C1 7201   3.920   1.522  10.862  0.1402  0.2723 -0.0378
  451loPI    C2 7202   3.611   1.694  11.050 -0.1418 -0.1192 -0.1310
  451loPI    C3 7203   3.915   1.543  11.261 -0.1608 -0.0074 -0.0230
  451loPI   PO4 7204   3.743   1.368  10.653 -0.0975 -0.1433 -0.1163
  451loPI   GL1 7205   3.738   1.420  10.198  0.2848 -0.0235  0.1680
  451loPI   GL2 7206   3.436   1.329  10.190 -0.1797 -0.0176  0.0912
  451loPI   C1A 7207   3.958   1.428   9.837  0.1751 -0.2403  0.1367
  451loPI   C2A 7208   3.906   1.369   9.389  0.1309  0.1960  0.4824
  451loPI   C3A 7209   3.714   1.618   9.008  0.0131 -0.1343  0.0738
  451loPI   C4A 7210   3.639   1.902   8.694 -0.0983 -0.0544  0.2986
  451loPI   C5A 7211   3.563   2.116   8.275  0.2635 -0.0241 -0.0039
  451loPI   C6A 7212   3.176   2.182   8.072 -0.1233 -0.0968 -0.0170
  451loPI   C1B 7213   3.629   1.008   9.873 -0.1189  0.1163  0.1398
  451loPI   C2B 7214   3.553   1.048   9.473 -0.0464 -0.1962 -0.2326
  451loPI   C3B 7215   3.553   0.998   9.141 -0.0399 -0.3546  0.3844
  451loPI   C4B 7216   3.599   0.838   8.719  0.1507  0.1531  0.1017
  452loPI    C1 7217  15.039  14.409  11.344  0.3021  0.2074  0.1968
  452loPI    C2 7218  14.994  14.029  11.460  0.2217  0.1673  0.0382
  452loPI    C3 7219  15.334  14.224  11.539  0.2600  0.0652  0.1270
  452loPI   PO4 7220  14.876  14.323  11.057  0.0862  0.0096  0.0538
  452loPI   GL1 7221  15.087  14.390  10.655 -0.2434  0.0844 -0.1053
  452loPI   GL2 7222  15.004  14.106  10.613 -0.1099 -0.1433  0.1034
  452loPI   C1A 7223  15.107  14.402  10.149 -0.2031 -0.1346  0.2972
  452loPI   C2A 7224  15.070  14.405   9.692  0.2513 -0.2611 -0.3610
  452loPI   C3A 7225  15.122  14.492   9.254 -0.2401  0.3877 -0.1521
  452loPI   C4A 7226  15.051  14.438   8.853  0.0827 -0.2247 -0.2399
  452loPI   C5A 7227  15.284  14.351   8.491  0.1577  0.0999  0.2309
  452loPI   C6A 7228  15.603  14.509   8.253 -0.1959 -0.1322 -0.0191
  452loPI   C1B 7229  14.811  13.906  10.229 -0.3348 -0.2136  0.1598
  452loPI   C2B 7230  14.789  13.980   9.858  0.1865 -0.1526  0.1672
  452loPI   C3B 7231  14.821  13.975   9.433 -0.4155 -0.0306  0.1164
  452loPI   C4B 7232  14.702  14.085   9.006  0.0610 -0.1273 -0.3346
  453loPI    C1 7233  15.603  15.952  11.210 -0.3941  0.0013  0.0032
  453loPI    C2 7234  15.587  16.262  11.463  0.3045 -0.1097  0.2041
  453loPI    C3 7235  15.444  15.905  11.575 -0.2887  0.0709  0.0587
  453loPI   PO4 7236  15.501  16.099  10.961  0.0841  0.0956 -0.0023
  453loPI   GL1 7237  15.162  16.084  10.722 -0.3185 -0.2486  0.0621
  453loPI   GL2 7238  14.878  16.150  10.797  0.1077  0.0623  0.2364
  453loPI   C1A 7239  15.254  16.118  10.253 -0.4474 -0.2138  0.3546
  453loPI   C2A 7240  15.179  16.261   9.793 -0.2584  0.0180 -0.1534
  453loPI   C3A 7241  15.163  16.229   9.385  0.1417 -0.2993 -0.2129
  453loPI   C4A 7242  15.076  16.229   8.961 -0.0455 -0.1720  0.1721
  453loPI   C5A 7243  15.309  16.253   8.666  0.0426 -0.0071  0.0014
  453loPI   C6A 7244  15.605  15.958   8.524 -0.2744  0.2116  0.0070
  453loPI   C1B 7245  14.762  16.079  10.410 -0.5443 -0.1823 -0.1099
  453loPI   C2B 7246  14.708  16.250   9.995  0.2940 -0.1776 -0.1033
  453loPI   C3B 7247  14.684  16.327   9.561  0.1507  0.1192 -0.3387
  453loPI   C4B 7248  14.625  16.311   9.143 -0.2154  0.0446  0.0947
  454loPI    C1 7249  11.062  14.535  11.116  0.1197  0.0617  0.0531
  454loPI    C2 7250  10.688  14.528  11.260  0.1084  0.1611  0.0296
  454loPI    C3 7251  10.999  14.543  11.511  0.0879  0.3732  0.0442
  454loPI   PO4 7252  11.071  14.685  10.877  0.1523 -0.1897  0.0302
  454loPI   GL1 7253  10.906  14.661  10.414  0.3339  0.0624 -0.2261
  454loPI   GL2 7254  10.831  14.291  10.286 -0.1798 -0.2102 -0.2399
  454loPI   C1A 7255  11.019  14.762   9.980 -0.1621  0.0834  0.1647
  454loPI   C2A 7256  11.086  14.820   9.537 -0.3528  0.1051  0.2153
  454loPI   C3A 7257  11.094  14.723   9.129 -0.1142 -0.0555 -0.0150
  454loPI   C4A 7258  11.121  14.942   8.792  0.2298  0.0501 -0.0065
  454loPI   C5A 7259  11.011  14.763   8.377  0.0478 -0.1628 -0.0533
  454loPI   C6A 7260  11.302  14.594   8.185 -0.0012  0.1076  0.3871
  454loPI   C1B 7261  10.877  14.329   9.727 -0.0371 -0.1829 -0.2841
  454loPI   C2B 7262  10.937  14.327   9.397  0.0843 -0.2015  0.1547
  454loPI   C3B 7263  11.050  14.279   8.966 -0.0251  0.2672  0.0798
  454loPI   C4B 7264  11.223  14.344   8.579  0.0396 -0.3564 -0.3003
  455loPI    C1 7265  14.650  12.121  11.021 -0.0382 -0.2506 -0.0397
  455loPI    C2 7266  14.687  12.357  11.341  0.2299 -0.0795 -0.1923
  455loPI    C3 7267  14.838  11.987  11.347 -0.0855 -0.2098  0.0047
  455loPI   PO4 7268  14.734  12.280  10.841  0.0497  0.2534 -0.0022
  455loPI   GL1 7269  14.930  12.373  10.509  0.2430 -0.1806  0.1425
  455loPI   GL2 7270  15.014  12.166  10.384  0.2706 -0.0659 -0.1596
  455loPI   C1A 7271  14.996  12.616  10.163  0.2726 -0.0802  0.0805
  455loPI   C2A 7272  15.013  12.639   9.698  0.3287 -0.0001 -0.1991
  455loPI   C3A 7273  15.039  12.677   9.314  0.1726  0.0122  0.0559
  455loPI   C4A 7274  14.998  12.611   8.893  0.2482  0.0115  0.1914
  455loPI   C5A 7275  14.926  12.668   8.530  0.2616 -0.1156 -0.0279
  455loPI   C6A 7276  15.113  12.464   8.193  0.2005 -0.4519  0.0728
  455loPI   C1B 7277  15.117  12.125   9.978 -0.1023  0.0660  0.0123
  455loPI   C2B 7278  15.219  12.123   9.591  0.0453  0.1887  0.2530
  455loPI   C3B 7279  15.258  12.247   9.137  0.3653  0.3393  0.1313
  455loPI   C4B 7280  15.247  12.218   8.685 -0.0922  0.1691  0.2135
  456loPI    C1 7281   9.526   7.494  11.170 -0.0353  0.0089  0.0413
  456loPI    C2 7282   9.657   7.238  11.448 -0.0197 -0.0790 -0.0466
  456loPI    C3 7283   9.737   7.628  11.483  0.1367 -0.1127 -0.0208
  456loPI   PO4 7284   9.515   7.408  10.963  0.0518  0.0215  0.1752
  456loPI   GL1 7285   9.523   7.239  10.512 -0.1989 -0.0629  0.0398
  456loPI   GL2 7286   9.771   7.305  10.475  0.1932 -0.0140 -0.0333
  456loPI   C1A 7287   9.458   7.621  10.115  0.1935  0.2815 -0.3790
  456loPI   C2A 7288   9.283   7.740   9.743  0.0190  0.1151  0.0171
  456loPI   C3A 7289   9.331   7.743   9.326 -0.1672  0.0488  0.0724
  456loPI   C4A 7290   9.439   7.614   8.942  0.1408 -0.0497 -0.0897
  456loPI   C5A 7291   9.389   7.845   8.664  0.0335 -0.0809  0.4520
  456loPI   C6A 7292   9.284   8.143   8.345  0.0865  0.1116 -0.1203
  456loPI   C1B 7293   9.815   7.203  10.068 -0.0784  0.1466 -0.2332
  456loPI   C2B 7294   9.672   7.282   9.751 -0.0316  0.0894 -0.1525
  456loPI   C3B 7295   9.672   7.285   9.309 -0.3060 -0.0700  0.3187
  456loPI   C4B 7296   9.805   7.240   8.883 -0.2298  0.1205  0.2435
  457loPI    C1 7297  10.441  10.768  11.340 -0.0437 -0.0831 -0.0456
  457loPI    C2 7298  10.297  11.122  11.460 -0.0838 -0.0458 -0.2013
  457loPI    C3 7299  10.651  10.993  11.595 -0.1122  0.0105 -0.0713
  457loPI   PO4 7300  10.411  10.752  11.093 -0.3981 -0.2370 -0.0087
  457loPI   GL1 7301  10.640  10.884  10.657  0.1048  0.1696 -0.1669
  457loPI   GL2 7302  10.586  10.627  10.558 -0.0359 -0.0603  0.0989
  457loPI   C1A 7303  10.624  11.028  10.345 -0.2116 -0.0449 -0.0579
  457loPI   C2A 7304  10.562  11.089   9.907  0.1900 -0.3302  0.0335
  457loPI   C3A 7305  10.675  11.059   9.505  0.3610  0.1984  0.0830
  457loPI   C4A 7306  10.561  11.171   9.155 -0.1009  0.0065  0.2549
  457loPI   C5A 7307  10.628  11.126   8.682 -0.0233  0.0657  0.0714
  457loPI   C6A 7308  10.588  10.828   8.337  0.1055  0.0301 -0.0877
  457loPI   C1B 7309  10.456  10.609  10.127 -0.0452  0.0097  0.0564
  457loPI   C2B 7310  10.428  10.624   9.781 -0.0472  0.0518  0.0273
  457loPI   C3B 7311  10.421  10.679   9.336  0.1976 -0.0522  0.2549
  457loPI   C4B 7312  10.384  10.763   8.862 -0.0665 -0.0420 -0.0684
  458loPI    C1 7313  14.804  17.458  11.522 -0.1714 -0.2133 -0.0487
  458loPI    C2 7314  14.480  17.365  11.737 -0.0507 -0.0966  0.1884
  458loPI    C3 7315  14.672  17.709  11.804  0.0276 -0.0891 -0.0644
  458loPI   PO4 7316  14.729  17.354  11.260  0.2574 -0.1591  0.0520
  458loPI   GL1 7317  14.885  17.566  10.953 -0.0576  0.1460  0.0924
  458loPI   GL2 7318  14.633  17.617  10.775  0.2512 -0.2439  0.1535
  458loPI   C1A 7319  15.039  17.556  10.459 -0.2031  0.0356 -0.0325
  458loPI   C2A 7320  14.960  17.611  10.094 -0.1265  0.2143  0.0608
  458loPI   C3A 7321  14.996  17.614   9.692 -0.0005 -0.1536  0.0689
  458loPI   C4A 7322  15.015  17.662   9.261  0.0949  0.3591  0.1655
  458loPI   C5A 7323  14.967  17.594   8.852 -0.0843  0.2013 -0.0490
  458loPI   C6A 7324  14.867  17.640   8.419  0.2115 -0.1321 -0.2440
  458loPI   C1B 7325  14.526  17.583  10.322 -0.0155  0.0200  0.0172
  458loPI   C2B 7326  14.473  17.643   9.800  0.2697 -0.2726 -0.0085
  458loPI   C3B 7327  14.528  17.682   9.335  0.0760  0.3428  0.0031
  458loPI   C4B 7328  14.462  17.714   8.847 -0.0055  0.0219 -0.0372
  459loPI    C1 7329   6.301  17.730  10.854  0.2517  0.1708  0.1490
  459loPI    C2 7330   6.149  17.473  11.120  0.0455 -0.0313 -0.1574
  459loPI    C3 7331   6.262  17.839  11.237 -0.1376 -0.0801  0.1865
  459loPI   PO4 7332   6.136  17.673  10.580  0.0595 -0.1142 -0.0281
  459loPI   GL1 7333   5.960  17.723  10.125  0.0619  0.2884 -0.3218
  459loPI   GL2 7334   5.944  17.399  10.139  0.0091  0.2539  0.0422
  459loPI   C1A 7335   5.822  17.787   9.754 -0.3948 -0.1747 -0.3116
  459loPI   C2A 7336   5.769  17.818   9.371  0.1502 -0.2315 -0.0201
  459loPI   C3A 7337   5.748  17.740   9.062 -0.3156  0.0095 -0.0846
  459loPI   C4A 7338   5.625  17.751   8.741  0.2774 -0.2436 -0.1823
  459loPI   C5A 7339   5.685  17.782   8.340  0.0896 -0.0731 -0.2244
  459loPI   C6A 7340   5.801  17.634   7.963 -0.0036  0.2328 -0.4718
  459loPI   C1B 7341   6.123  17.379   9.658  0.1883  0.3326  0.2039
  459loPI   C2B 7342   5.855  17.294   9.385 -0.0248  0.0853  0.0644
  459loPI   C3B 7343   5.886  17.236   8.953 -0.0364  0.1573 -0.0055
  459loPI   C4B 7344   5.719  17.318   8.508 -0.1498  0.2971  0.3027
  460loPI    C1 7345   7.965   0.584  10.689 -0.1593 -0.0494 -0.0637
  460loPI    C2 7346   8.082   0.440  11.043 -0.0079  0.0598 -0.0683
  460loPI    C3 7347   7.751   0.663  11.018 -0.0538 -0.0010 -0.0063
  460loPI   PO4 7348   8.189   0.723  10.561 -0.1387  0.1830 -0.2214
  460loPI   GL1 7349   8.322   0.895  10.151 -0.2233  0.0973 -0.1029
  460loPI   GL2 7350   8.072   0.719  10.055  0.0191 -0.2119  0.2424
  460loPI   C1A 7351   8.445   0.803   9.733 -0.2282  0.1639  0.0871
  460loPI   C2A 7352   8.451   0.766   9.271 -0.0959 -0.0870  0.0865
  460loPI   C3A 7353   8.365   0.788   8.864 -0.1824  0.1734 -0.3236
  460loPI   C4A 7354   8.297   0.844   8.421 -0.0276 -0.2724 -0.1240
  460loPI   C5A 7355   8.091   0.774   7.973  0.0174 -0.2856 -0.1019
  460loPI   C6A 7356   7.917   0.523   7.732  0.4019  0.1501 -0.3182
  460loPI   C1B 7357   7.938   0.671   9.678 -0.0149  0.0455 -0.3547
  460loPI   C2B 7358   7.945   0.740   9.292  0.1019 -0.4445 -0.0923
  460loPI   C3B 7359   7.810   0.925   8.965  0.1662 -0.0570 -0.0040
  460loPI   C4B 7360   7.649   1.205   8.691  0.2107 -0.1155  0.0614
  461loPI    C1 7361  12.053  10.229  10.812  0.0013  0.4041 -0.1664
  461loPI    C2 7362  12.415  10.379  10.892  0.1059 -0.0288  0.2129
  461loPI    C3 7363  12.160  10.303  11.191 -0.1418 -0.1139 -0.0163
  461loPI   PO4 7364  11.991  10.331  10.663  0.0115  0.1782  0.2772
  461loPI   GL1 7365  12.113  10.674  10.513 -0.0488  0.1144  0.2584
  461loPI   GL2 7366  12.009  10.944  10.299 -0.2229  0.0481  0.2391
  461loPI   C1A 7367  12.297  10.508  10.138 -0.2185 -0.4413  0.0934
  461loPI   C2A 7368  12.343  10.467   9.691 -0.0008  0.1978  0.1236
  461loPI   C3A 7369  12.547  10.584   9.189 -0.1194  0.0229 -0.0551
  461loPI   C4A 7370  12.548  10.860   8.901  0.0181  0.0308 -0.4083
  461loPI   C5A 7371  12.894  11.106   8.688 -0.0386 -0.2055  0.4549
  461loPI   C6A 7372  13.077  11.441   8.564  0.1362  0.1991  0.3177
  461loPI   C1B 7373  11.994  10.879   9.893 -0.0155 -0.3772  0.3673
  461loPI   C2B 7374  11.922  10.827   9.363 -0.1354 -0.1554  0.4972
  461loPI   C3B 7375  12.060  10.748   8.907  0.2883 -0.0653  0.3006
  461loPI   C4B 7376  12.089  10.565   8.457  0.2413 -0.2620  0.3207
  462loPI    C1 7377  11.767  17.254  11.445 -0.1765  0.2281 -0.1602
  462loPI    C2 7378  11.644  17.026  11.749 -0.2346  0.2183 -0.1909
  462loPI    C3 7379  11.698  17.418  11.803  0.0922  0.1601 -0.0751
  462loPI   PO4 7380  11.698  17.220  11.305  0.0272  0.1757  0.1850
  462loPI   GL1 7381  11.491  16.938  10.866 -0.1870 -0.0655 -0.2310
  462loPI   GL2 7382  11.842  17.016  10.830  0.1486  0.0759  0.0137
  462loPI   C1A 7383  11.278  16.942  10.515 -0.1021 -0.3647 -0.0205
  462loPI   C2A 7384  10.969  16.915  10.115  0.0129 -0.0344  0.0183
  462loPI   C3A 7385  10.993  16.968   9.691 -0.0521  0.1267 -0.1365
  462loPI   C4A 7386  10.921  16.833   9.264 -0.1180  0.0367  0.5380
  462loPI   C5A 7387  10.786  16.533   9.000 -0.2540  0.0020  0.1405
  462loPI   C6A 7388  10.741  16.558   8.571  0.2925 -0.0838  0.1361
  462loPI   C1B 7389  11.897  16.826  10.478  0.1473 -0.1946 -0.0048
  462loPI   C2B 7390  11.951  16.757  10.109 -0.1289 -0.1968 -0.0586
  462loPI   C3B 7391  12.010  16.801   9.720  0.1705 -0.0239  0.0829
  462loPI   C4B 7392  11.873  16.790   9.222  0.2568  0.0694  0.2554
  463loPI    C1 7393   4.143  12.971  11.185 -0.1679 -0.1053  0.0518
  463loPI    C2 7394   4.415  12.791  11.416 -0.1211  0.0161  0.0924
  463loPI    C3 7395   4.031  12.803  11.530 -0.0753  0.1962  0.2331
  463loPI   PO4 7396   4.137  12.874  10.997 -0.3860 -0.1005 -0.0393
  463loPI   GL1 7397   4.334  12.719  10.595  0.3577  0.1276  0.0522
  463loPI   GL2 7398   4.129  12.640  10.305 -0.1498  0.4798  0.0981
  463loPI   C1A 7399   4.674  12.584  10.206  0.1465  0.0068 -0.1963
  463loPI   C2A 7400   4.821  12.505   9.785  0.0785 -0.2406  0.2986
  463loPI   C3A 7401   5.020  12.390   9.370  0.2284  0.0346  0.4223
  463loPI   C4A 7402   4.931  12.592   8.969  0.0244 -0.0298 -0.3240
  463loPI   C5A 7403   4.797  12.616   8.470  0.2520  0.0408  0.0071
  463loPI   C6A 7404   4.409  12.721   8.216  0.2813 -0.0473 -0.0242
  463loPI   C1B 7405   4.260  12.431   9.984  0.0573 -0.1483 -0.0289
  463loPI   C2B 7406   4.298  12.465   9.537  0.3554  0.3101 -0.1742
  463loPI   C3B 7407   4.465  12.357   9.139 -0.0746  0.0471 -0.0830
  463loPI   C4B 7408   4.438  12.356   8.725  0.0652  0.0278 -0.0675
  464loPI    C1 7409   0.341  10.961  11.164  0.0445 -0.2670  0.1181
  464loPI    C2 7410   0.725  10.991  11.056  0.0566 -0.0830  0.2090
  464loPI    C3 7411   0.548  10.632  11.068  0.1722 -0.1491 -0.0139
  464loPI   PO4 7412   0.244  11.161  11.035 -0.0770 -0.0907  0.1801
  464loPI   GL1 7413  -0.006  11.335  10.682 -0.2208 -0.0310 -0.1455
  464loPI   GL2 7414  -0.092  11.133  10.673  0.0924  0.3630 -0.0506
  464loPI   C1A 7415   0.060  11.612  10.383 -0.2117  0.1821  0.2016
  464loPI   C2A 7416   0.198  11.635   9.918  0.0862 -0.0582  0.2112
  464loPI   C3A 7417   0.221  11.671   9.460  0.1174  0.3247 -0.0265
  464loPI   C4A 7418   0.268  11.721   8.978 -0.2177  0.0144  0.1576
  464loPI   C5A 7419  -0.013  11.760   8.621 -0.2132 -0.0283  0.2045
  464loPI   C6A 7420   0.125  12.056   8.302 -0.2081  0.1001 -0.0483
  464loPI   C1B 7421   0.042  11.139  10.199  0.0560  0.0008 -0.2792
  464loPI   C2B 7422   0.025  11.166   9.691 -0.0032 -0.0612 -0.4475
  464loPI   C3B 7423  -0.026  11.232   9.324  0.0268  0.1288  0.1713
  464loPI   C4B 7424   0.103  11.218   8.926  0.1599 -0.0023  0.1811
  465loPI    C1 7425  12.436  13.042  11.001  0.1475 -0.0650 -0.0777
  465loPI    C2 7426  12.522  13.257  11.327  0.2991 -0.4652  0.1549
  465loPI    C3 7427  12.207  13.011  11.328  0.1650 -0.2989 -0.0858
  465loPI   PO4 7428  12.412  13.129  10.820 -0.0444  0.0258  0.0280
  465loPI   GL1 7429  12.304  13.461  10.574 -0.4168  0.3829 -0.0728
  465loPI   GL2 7430  12.128  13.220  10.374 -0.1330  0.4315 -0.0207
  465loPI   C1A 7431  12.455  13.631  10.215  0.0809  0.3567  0.0792
  465loPI   C2A 7432  12.592  13.709   9.806  0.2709 -0.1024 -0.2729
  465loPI   C3A 7433  12.549  13.668   9.368  0.1865 -0.0366  0.0812
  465loPI   C4A 7434  12.661  13.495   8.936  0.2301  0.0200  0.2515
  465loPI   C5A 7435  12.914  13.310   8.591 -0.0658 -0.0540  0.1374
  465loPI   C6A 7436  13.004  13.237   8.155 -0.1281  0.1174  0.1508
  465loPI   C1B 7437  12.052  13.132   9.954 -0.0258 -0.0357  0.1965
  465loPI   C2B 7438  11.945  13.130   9.565  0.0134 -0.0706 -0.1595
  465loPI   C3B 7439  11.957  13.033   9.106  0.1463  0.2193  0.0369
  465loPI   C4B 7440  11.911  13.045   8.630  0.0539  0.0341 -0.0299
  466loPI    C1 7441  13.203  11.001  11.150  0.2416 -0.2652 -0.1495
  466loPI    C2 7442  13.280  10.750  11.452  0.4827 -0.0121  0.0043
  466loPI    C3 7443  13.249  11.143  11.521 -0.1615 -0.0173 -0.1877
  466loPI   PO4 7444  13.396  10.838  10.917  0.0263 -0.2318 -0.1171
  466loPI   GL1 7445  13.463  10.916  10.529  0.1904  0.0158  0.1344
  466loPI   GL2 7446  13.593  11.191  10.445  0.0432  0.0322  0.1236
  466loPI   C1A 7447  13.699  10.821  10.137 -0.0434  0.1778 -0.0642
  466loPI   C2A 7448  13.813  10.932   9.753 -0.0810  0.0889  0.3154
  466loPI   C3A 7449  13.796  11.005   9.396 -0.3582  0.2465  0.0049
  466loPI   C4A 7450  13.934  10.893   8.994  0.0729  0.0579 -0.0123
  466loPI   C5A 7451  13.916  10.959   8.580  0.1369 -0.0223 -0.2565
  466loPI   C6A 7452  14.015  10.857   8.199 -0.2044  0.1038 -0.2070
  466loPI   C1B 7453  13.555  11.272  10.021  0.1210  0.2437  0.0515
  466loPI   C2B 7454  13.615  11.411   9.587 -0.2549 -0.2401 -0.1582
  466loPI   C3B 7455  13.690  11.395   9.117  0.0278  0.0753  0.2020
  466loPI   C4B 7456  13.613  11.319   8.758 -0.2244 -0.1760 -0.4326
  467loPI    C1 7457   6.209   7.450  11.022 -0.0200 -0.0643  0.1792
  467loPI    C2 7458   5.867   7.618  10.901  0.0892  0.1507  0.1632
  467loPI    C3 7459   5.865   7.350  11.199 -0.1417 -0.1453 -0.0971
  467loPI   PO4 7460   6.378   7.639  10.933  0.0743  0.2056 -0.0793
  467loPI   GL1 7461   6.488   7.567  10.496 -0.3068  0.1064  0.1675
  467loPI   GL2 7462   6.818   7.410  10.403  0.0067  0.1162  0.0756
  467loPI   C1A 7463   6.434   7.760  10.097  0.1991  0.2261 -0.1812
  467loPI   C2A 7464   6.389   7.749   9.637  0.0988  0.0591  0.1163
  467loPI   C3A 7465   6.377   7.707   9.203  0.1209  0.1262  0.4484
  467loPI   C4A 7466   6.422   7.541   8.763  0.0108 -0.3238 -0.4151
  467loPI   C5A 7467   6.492   7.801   8.365  0.0501  0.0912 -0.2645
  467loPI   C6A 7468   6.780   7.831   7.961  0.1911  0.3385 -0.0563
  467loPI   C1B 7469   6.724   7.380   9.935  0.2969  0.0214  0.0037
  467loPI   C2B 7470   6.699   7.311   9.480  0.0617 -0.0944  0.3029
  467loPI   C3B 7471   6.801   7.295   8.979  0.0151  0.0493 -0.1889
  467loPI   C4B 7472   6.776   7.380   8.512  0.1124  0.0458 -0.0019
  468loPI    C1 7473   5.765   6.416  11.395  0.2129  0.1471 -0.1081
  468loPI    C2 7474   5.377   6.493  11.456  0.1635 -0.1111 -0.0872
  468loPI    C3 7475   5.651   6.629  11.714  0.0643 -0.1419  0.0355
  468loPI   PO4 7476   5.810   6.501  11.080 -0.2464  0.2472 -0.0249
  468loPI   GL1 7477   5.580   6.521  10.643 -0.0194 -0.1001  0.2377
  468loPI   GL2 7478   5.318   6.492  10.711 -0.0471 -0.1529  0.1412
  468loPI   C1A 7479   5.607   6.561  10.273 -0.3100  0.3220  0.1234
  468loPI   C2A 7480   5.466   6.603   9.868  0.2095  0.2244 -0.1110
  468loPI   C3A 7481   5.509   6.622   9.435  0.1007 -0.0007 -0.0706
  468loPI   C4A 7482   5.604   6.661   9.020  0.1555 -0.0757  0.2086
  468loPI   C5A 7483   5.585   6.449   8.606  0.0830  0.0829  0.3629
  468loPI   C6A 7484   5.770   6.096   8.368 -0.0782 -0.3504  0.1158
  468loPI   C1B 7485   5.116   6.532  10.245 -0.0012  0.1264 -0.0714
  468loPI   C2B 7486   4.887   6.588   9.869 -0.1727 -0.0495 -0.1180
  468loPI   C3B 7487   4.957   6.541   9.403  0.3372  0.3905  0.0331
  468loPI   C4B 7488   5.095   6.487   9.082 -0.0012 -0.2271  0.2233
  469loPI    C1 7489   0.627   3.294  11.298 -0.1560 -0.1406 -0.1072
  469loPI    C2 7490   0.600   2.900  11.236 -0.1800 -0.1898  0.1998
  469loPI    C3 7491   0.362   3.077  11.504  0.2317 -0.0670  0.4947
  469loPI   PO4 7492   0.616   3.486  11.081 -0.1571 -0.3287  0.1766
  469loPI   GL1 7493   0.556   3.616  10.737  0.2062  0.1968  0.0761
  469loPI   GL2 7494   0.339   3.819  10.730  0.2599 -0.2167  0.2281
  469loPI   C1A 7495   0.415   3.607  10.304 -0.1767 -0.1729  0.1431
  469loPI   C2A 7496   0.346   3.591   9.929 -0.0400  0.0739 -0.1833
  469loPI   C3A 7497   0.361   3.521   9.560  0.0904  0.2894 -0.0642
  469loPI   C4A 7498   0.334   3.481   9.179  0.2701 -0.3180  0.0514
  469loPI   C5A 7499   0.122   3.576   8.790 -0.2022  0.3570 -0.1530
  469loPI   C6A 7500   0.020   3.863   8.480  0.0238  0.0384 -0.0757
  469loPI   C1B 7501   0.058   4.007  10.454  0.2821  0.1939 -0.6178
  469loPI   C2B 7502   0.149   4.050  10.009 -0.0051  0.3965 -0.2996
  469loPI   C3B 7503   0.063   4.008   9.656  0.1572 -0.1085  0.2994
  469loPI   C4B 7504   0.074   3.962   9.184 -0.0482  0.1130  0.0059
  470loPI    C1 7505  17.063  11.874  11.113 -0.3323 -0.0606  0.0276
  470loPI    C2 7506  16.936  12.217  11.275 -0.2158 -0.0042  0.0002
  470loPI    C3 7507  17.324  12.120  11.290 -0.2408 -0.1105 -0.0373
  470loPI   PO4 7508  17.079  11.891  10.893 -0.2123 -0.1289 -0.0968
  470loPI   GL1 7509  17.113  12.029  10.504 -0.0451 -0.1343 -0.0740
  470loPI   GL2 7510  16.804  12.035  10.397 -0.1731  0.2977 -0.1078
  470loPI   C1A 7511  17.239  12.088  10.103  0.0929 -0.0887 -0.0666
  470loPI   C2A 7512  17.242  12.103   9.720  0.2919 -0.1173  0.2065
  470loPI   C3A 7513  17.339  12.174   9.353  0.3108 -0.1000  0.2230
  470loPI   C4A 7514  17.373  12.177   8.942 -0.1139  0.0041  0.1607
  470loPI   C5A 7515  17.310  12.037   8.500 -0.1836 -0.1542  0.1746
  470loPI   C6A 7516  17.509  11.923   8.119 -0.1614  0.0520 -0.0006
  470loPI   C1B 7517  16.742  12.072   9.936 -0.0453  0.1927  0.0056
  470loPI   C2B 7518  16.779  12.124   9.509 -0.0957 -0.0487 -0.1671
  470loPI   C3B 7519  16.821  12.142   9.106 -0.1527  0.1938  0.0126
  470loPI   C4B 7520  16.857  12.219   8.643 -0.2591  0.0032  0.1374
  471loPI    C1 7521   4.585   6.610  11.130  0.0863 -0.1388 -0.1487
  471loPI    C2 7522   4.460   6.451  11.476 -0.1135  0.2846 -0.0194
  471loPI    C3 7523   4.809   6.646  11.460  0.1140 -0.1222 -0.1694
  471loPI   PO4 7524   4.385   6.662  10.993 -0.0173  0.0048 -0.0851
  471loPI   GL1 7525   4.257   6.816  10.536  0.2671 -0.2155 -0.0121
  471loPI   GL2 7526   4.192   6.514  10.565 -0.0972  0.1596  0.1138
  471loPI   C1A 7527   4.066   6.954  10.062 -0.2425 -0.0813 -0.0927
  471loPI   C2A 7528   4.073   6.965   9.670  0.0957 -0.0582  0.0190
  471loPI   C3A 7529   4.185   6.859   9.218  0.0479 -0.1154  0.0474
  471loPI   C4A 7530   4.312   6.820   8.899  0.0280 -0.0264  0.1279
  471loPI   C5A 7531   4.457   6.397   8.612  0.1177 -0.2681  0.2402
  471loPI   C6A 7532   4.780   6.123   8.346 -0.0850  0.0690 -0.0187
  471loPI   C1B 7533   3.970   6.513  10.210 -0.2712  0.0973  0.1535
  471loPI   C2B 7534   3.879   6.507   9.780 -0.2794  0.1129 -0.0540
  471loPI   C3B 7535   3.906   6.492   9.388  0.0662 -0.0474  0.3881
  471loPI   C4B 7536   4.075   6.360   8.971 -0.2348  0.0721 -0.1789
  472loPI    C1 7537  11.408   8.645  11.205 -0.0073  0.0626  0.0209
  472loPI    C2 7538  11.787   8.662  11.329  0.0180  0.0799 -0.0583
  472loPI    C3 7539  11.500   8.537  11.578  0.0616  0.1582  0.0319
  472loPI   PO4 7540  11.432   8.586  10.918 -0.0753 -0.1611 -0.0435
  472loPI   GL1 7541  11.436   8.338  10.614 -0.1489  0.3306 -0.1508
  472loPI   GL2 7542  11.183   8.637  10.511 -0.3845  0.0555  0.0604
  472loPI   C1A 7543  11.348   8.141  10.268  0.0360  0.0967  0.2837
  472loPI   C2A 7544  11.328   8.062   9.889 -0.1118 -0.1562 -0.1026
  472loPI   C3A 7545  11.576   8.315   9.499  0.1226 -0.0853 -0.2974
  472loPI   C4A 7546  11.562   8.414   9.092 -0.0560  0.2984 -0.0831
  472loPI   C5A 7547  11.701   8.513   8.719 -0.1029  0.1192 -0.2160
  472loPI   C6A 7548  11.519   8.484   8.267 -0.0799  0.0234 -0.0935
  472loPI   C1B 7549  11.153   8.544  10.077  0.4485  0.1485 -0.1536
  472loPI   C2B 7550  11.150   8.785   9.664  0.1478 -0.0004  0.2549
  472loPI   C3B 7551  11.266   8.968   9.286 -0.1072  0.1788 -0.0437
  472loPI   C4B 7552  11.477   8.877   8.979  0.0286  0.0643 -0.1322
  473loPI    C1 7553   4.256   4.032  11.251 -0.0304  0.0610  0.1018
  473loPI    C2 7554   4.495   3.730  11.358 -0.0173  0.0368  0.0053
  473loPI    C3 7555   4.396   4.011  11.625 -0.0053 -0.0362  0.0871
  473loPI   PO4 7556   4.327   4.131  11.044 -0.1530  0.0173  0.1163
  473loPI   GL1 7557   4.379   4.130  10.556  0.2647  0.2444 -0.0474
  473loPI   GL2 7558   4.592   4.408  10.610 -0.0350 -0.2215  0.1960
  473loPI   C1A 7559   4.450   4.192  10.131  0.0483 -0.3220 -0.1742
  473loPI   C2A 7560   4.461   4.242   9.740  0.2897  0.2130 -0.1637
  473loPI   C3A 7561   4.566   4.214   9.344  0.0896  0.0635  0.2717
  473loPI   C4A 7562   4.612   4.193   8.907  0.2638  0.1542  0.0190
  473loPI   C5A 7563   4.750   4.426   8.628 -0.1670 -0.3162 -0.1761
  473loPI   C6A 7564   4.973   4.778   8.386  0.0111 -0.2003  0.0228
  473loPI   C1B 7565   4.746   4.688  10.292  0.0178  0.0282 -0.1247
  473loPI   C2B 7566   4.687   4.799   9.854  0.2294 -0.4597 -0.2917
  473loPI   C3B 7567   4.784   4.765   9.472 -0.1490  0.2362  0.0618
  473loPI   C4B 7568   4.853   4.623   9.100  0.1117 -0.0422 -0.2159
  474loPI    C1 7569  10.908  13.057  10.758 -0.2710 -0.0892  0.0974
  474loPI    C2 7570  10.935  13.268  11.097 -0.1130 -0.1480  0.1221
  474loPI    C3 7571  10.941  13.455  10.743 -0.1081 -0.1002  0.1474
  474loPI   PO4 7572  11.071  12.848  10.775  0.4768 -0.1346 -0.1872
  474loPI   GL1 7573  11.270  12.399  10.571 -0.1416 -0.0463 -0.1948
  474loPI   GL2 7574  11.420  12.615  10.473 -0.0082  0.2397  0.4739
  474loPI   C1A 7575  11.058  12.204  10.122  0.0341  0.0956 -0.0489
  474loPI   C2A 7576  10.903  12.051   9.790 -0.0700  0.0890  0.0526
  474loPI   C3A 7577  10.956  12.001   9.388 -0.1229  0.1118 -0.0336
  474loPI   C4A 7578  11.026  12.044   8.983  0.0345  0.1123 -0.0910
  474loPI   C5A 7579  11.060  12.085   8.607  0.2163  0.0747 -0.2863
  474loPI   C6A 7580  10.735  12.109   8.261  0.0814 -0.1100  0.1405
  474loPI   C1B 7581  11.269  12.637  10.040 -0.0437 -0.0779 -0.1283
  474loPI   C2B 7582  11.159  12.529   9.648  0.2917  0.1196 -0.0581
  474loPI   C3B 7583  11.213  12.462   9.305 -0.1864  0.1621 -0.4048
  474loPI   C4B 7584  11.182  12.528   8.791 -0.2062 -0.1247  0.1133
  475loPI    C1 7585  17.146  17.703  11.207 -0.0410 -0.1572  0.0586
  475loPI    C2 7586  17.266  18.077  11.131 -0.3969 -0.0318  0.0949
  475loPI    C3 7587  17.456  17.858  11.406 -0.0526  0.0440 -0.0766
  475loPI   PO4 7588  17.084  17.570  10.973  0.0295  0.0912  0.0410
  475loPI   GL1 7589  17.252  17.660  10.562 -0.2535 -0.1670 -0.1321
  475loPI   GL2 7590  17.220  17.900  10.556 -0.0280  0.0861  0.0503
  475loPI   C1A 7591  17.121  17.509  10.261 -0.0790 -0.2753  0.0652
  475loPI   C2A 7592  17.083  17.461   9.765 -0.1414 -0.0639  0.1948
  475loPI   C3A 7593  17.123  17.477   9.377 -0.0390  0.1007  0.0790
  475loPI   C4A 7594  17.145  17.551   8.972 -0.2931 -0.0369  0.4701
  475loPI   C5A 7595  16.977  17.443   8.558  0.1185 -0.0855  0.1510
  475loPI   C6A 7596  16.969  17.170   8.179  0.2120 -0.2228  0.1300
  475loPI   C1B 7597  17.367  17.881  10.078  0.3651  0.0461 -0.0812
  475loPI   C2B 7598  17.423  17.859   9.606  0.1278  0.1377 -0.0004
  475loPI   C3B 7599  17.324  17.936   9.196 -0.5308 -0.3039 -0.0465
  475loPI   C4B 7600  17.289  18.136   8.749  0.2761 -0.3664  0.1057
  476loPI    C1 7601   5.013   7.710  11.424  0.1078  0.2644  0.1172
  476loPI    C2 7602   4.814   7.674  11.769 -0.0301  0.1868  0.0304
  476loPI    C3 7603   5.175   7.506  11.727 -0.1103  0.0035  0.0620
  476loPI   PO4 7604   4.951   7.534  11.098 -0.2331  0.0991  0.0470
  476loPI   GL1 7605   5.140   7.289  10.784  0.1478 -0.1740  0.1436
  476loPI   GL2 7606   5.238   6.951  10.542 -0.1804  0.2482 -0.0609
  476loPI   C1A 7607   5.438   7.451  10.501  0.1516 -0.0388 -0.0232
  476loPI   C2A 7608   5.393   7.482  10.084  0.0396  0.1245  0.2677
  476loPI   C3A 7609   5.357   7.519   9.639 -0.0104 -0.0433 -0.3252
  476loPI   C4A 7610   5.436   7.504   9.219  0.0402  0.0096  0.0280
  476loPI   C5A 7611   5.375   7.515   8.688 -0.2048  0.3035  0.2223
  476loPI   C6A 7612   5.485   7.668   8.268  0.2710 -0.1112  0.0861
  476loPI   C1B 7613   5.199   7.007  10.057  0.0385 -0.0065 -0.2018
  476loPI   C2B 7614   5.114   6.949   9.666  0.3090  0.2881 -0.2128
  476loPI   C3B 7615   5.246   7.038   9.231 -0.0972 -0.3280  0.1287
  476loPI   C4B 7616   5.225   6.962   8.881 -0.0708 -0.5573 -0.0110
  477loPI    C1 7617   3.075  10.463  11.179 -0.1145  0.0386 -0.0409
  477loPI    C2 7618   3.340  10.239  11.378  0.1051  0.1545 -0.1984
  477loPI    C3 7619   3.269  10.614  11.494 -0.3547 -0.0288  0.1419
  477loPI   PO4 7620   3.075  10.356  10.965  0.1653  0.0853 -0.0671
  477loPI   GL1 7621   3.245  10.502  10.587  0.4876  0.1007 -0.2269
  477loPI   GL2 7622   3.138  10.176  10.501  0.0737  0.0323  0.1424
  477loPI   C1A 7623   3.203  10.473  10.079 -0.4182  0.0202  0.0666
  477loPI   C2A 7624   3.101  10.473   9.664 -0.1949  0.2049 -0.0013
  477loPI   C3A 7625   3.045  10.450   9.216  0.0320  0.3420  0.0208
  477loPI   C4A 7626   3.198  10.393   8.787  0.1483  0.2280  0.1272
  477loPI   C5A 7627   3.387  10.675   8.411  0.2042 -0.1591 -0.0727
  477loPI   C6A 7628   3.700  10.960   8.186  0.3333 -0.2684  0.1932
  477loPI   C1B 7629   2.939  10.085  10.157 -0.1003 -0.0494  0.0667
  477loPI   C2B 7630   2.983   9.917   9.746  0.0209  0.1915  0.1203
  477loPI   C3B 7631   2.901   9.984   9.340  0.2744  0.0682  0.0011
  477loPI   C4B 7632   2.919   9.992   8.954 -0.2389  0.0746  0.0053
  478loPI    C1 7633  11.059  13.782  11.132  0.0251 -0.1175  0.1142
  478loPI    C2 7634  10.881  14.090  11.317 -0.0925 -0.0689 -0.0774
  478loPI    C3 7635  10.870  13.725  11.480 -0.0016  0.0162  0.1223
  478loPI   PO4 7636  11.091  13.910  10.918  0.0812 -0.1684  0.1133
  478loPI   GL1 7637  11.195  13.940  10.492 -0.0412  0.1712 -0.1905
  478loPI   GL2 7638  11.393  13.720  10.524 -0.1699  0.0726  0.0205
  478loPI   C1A 7639  11.144  13.968   9.980  0.1006 -0.0459 -0.2385
  478loPI   C2A 7640  11.244  13.935   9.593 -0.4196  0.1090  0.3197
  478loPI   C3A 7641  11.317  13.857   9.128 -0.2639 -0.0119 -0.2115
  478loPI   C4A 7642  11.382  13.848   8.687  0.2378 -0.3212  0.1984
  478loPI   C5A 7643  11.608  13.715   8.357  0.1034  0.2688 -0.0440
  478loPI   C6A 7644  12.011  13.520   8.209  0.0256 -0.0297 -0.1357
  478loPI   C1B 7645  11.516  13.584  10.126  0.1972  0.1659 -0.0145
  478loPI   C2B 7646  11.539  13.544   9.601  0.3479  0.1510  0.1072
  478loPI   C3B 7647  11.611  13.437   9.228 -0.0275  0.0911  0.2342
  478loPI   C4B 7648  11.648  13.412   8.811 -0.0443 -0.0808  0.2078
  479loPI    C1 7649  13.350   5.463  11.168 -0.0473  0.0425  0.0237
  479loPI    C2 7650  13.559   5.121  11.170  0.0420  0.0970  0.0752
  479loPI    C3 7651  13.484   5.312  11.514  0.0132  0.1420  0.0441
  479loPI   PO4 7652  13.312   5.498  10.969  0.0170 -0.0974 -0.0170
  479loPI   GL1 7653  13.466   5.383  10.641 -0.3150 -0.1574 -0.0995
  479loPI   GL2 7654  13.683   5.079  10.611  0.2832  0.3586 -0.1130
  479loPI   C1A 7655  13.142   5.234  10.412  0.1394 -0.2365  0.0168
  479loPI   C2A 7656  13.156   5.244   9.926  0.1275  0.0542  0.2033
  479loPI   C3A 7657  13.084   5.158   9.503 -0.2330 -0.0940  0.1333
  479loPI   C4A 7658  13.186   5.116   9.071 -0.3345  0.1279 -0.0607
  479loPI   C5A 7659  13.277   4.898   8.655 -0.3261  0.3319 -0.2289
  479loPI   C6A 7660  13.145   5.191   8.370  0.2526 -0.0949  0.1125
  479loPI   C1B 7661  13.654   5.103  10.223  0.3850  0.0138 -0.1726
  479loPI   C2B 7662  13.695   5.063   9.797 -0.0248  0.2076  0.0030
  479loPI   C3B 7663  13.715   5.067   9.384  0.1437  0.1053 -0.0315
  479loPI   C4B 7664  13.761   5.083   8.951  0.0129  0.0479  0.0243
  480loPI    C1 7665  12.091   7.884  11.063 -0.0209 -0.0586 -0.0017
  480loPI    C2 7666  12.245   7.841  11.430  0.1659  0.0407 -0.0672
  480loPI    C3 7667  12.188   7.520  11.198 -0.1362 -0.0449  0.1201
  480loPI   PO4 7668  12.229   8.090  10.983  0.1159  0.1696 -0.1938
  480loPI   GL1 7669  12.271   8.141  10.561 -0.0820  0.1764  0.0369
  480loPI   GL2 7670  12.146   8.406  10.445  0.3661  0.0102  0.1600
  480loPI   C1A 7671  12.317   7.907  10.213 -0.0119  0.2018 -0.2079
  480loPI   C2A 7672  12.361   7.877   9.810  0.1203  0.1079 -0.3476
  480loPI   C3A 7673  12.407   7.972   9.395 -0.0114  0.0877 -0.1884
  480loPI   C4A 7674  12.450   7.941   8.915  0.2547  0.0805 -0.1984
  480loPI   C5A 7675  12.139   7.773   8.518 -0.2887  0.0526  0.2989
  480loPI   C6A 7676  12.090   7.562   8.141  0.1488 -0.4707  0.0721
  480loPI   C1B 7677  12.218   8.328  10.023  0.0236  0.0297 -0.0216
  480loPI   C2B 7678  12.509   8.417   9.727  0.1846 -0.1206  0.0558
  480loPI   C3B 7679  12.750   8.341   9.339  0.0521 -0.0958 -0.3009
  480loPI   C4B 7680  12.724   8.411   8.887 -0.0891 -0.0261  0.2138
  481loPI    C1 7681   1.106   0.153  11.107 -0.1083  0.1064  0.0262
  481loPI    C2 7682   0.923   0.283  11.438  0.1541  0.0763  0.1856
  481loPI    C3 7683   1.023   0.542  11.150  0.1988  0.1492  0.2662
  481loPI   PO4 7684   0.986   0.021  10.944  0.1503 -0.1549 -0.2686
  481loPI   GL1 7685   0.967   0.003  10.501  0.0095  0.2312  0.0177
  481loPI   GL2 7686   0.648   0.144  10.571  0.0216 -0.1528  0.1699
  481loPI   C1A 7687   1.093  -0.019  10.082 -0.1725  0.0196 -0.1972
  481loPI   C2A 7688   1.147  -0.084   9.643 -0.2371  0.4866  0.0576
  481loPI   C3A 7689   1.187  -0.061   9.173  0.0411 -0.1119 -0.0501
  481loPI   C4A 7690   1.182  -0.048   8.761 -0.0154 -0.3727 -0.0312
  481loPI   C5A 7691   0.808   0.104   8.565  0.2508  0.3381  0.3209
  481loPI   C6A 7692   0.448   0.258   8.728 -0.1425 -0.3398 -0.0338
  481loPI   C1B 7693   0.572  -0.028  10.174  0.2901  0.1210 -0.0468
  481loPI   C2B 7694   0.710   0.159   9.751 -0.2655  0.5546  0.0429
  481loPI   C3B 7695   0.905   0.338   9.412 -0.1385  0.2242 -0.0975
  481loPI   C4B 7696   0.938   0.394   8.956  0.1193  0.0553 -0.0791
  482loPI    C1 7697  15.272  13.645  11.420 -0.1628 -0.0324 -0.1901
  482loPI    C2 7698  15.409  13.768  11.775  0.0458  0.0245 -0.2886
  482loPI    C3 7699  15.178  13.442  11.752 -0.0439  0.0724 -0.0913
  482loPI   PO4 7700  15.439  13.727  11.292 -0.1691  0.3254  0.2035
  482loPI   GL1 7701  15.505  13.608  10.818 -0.2625 -0.2516 -0.0199
  482loPI   GL2 7702  15.448  13.899  10.694  0.2832 -0.0112 -0.1516
  482loPI   C1A 7703  15.549  13.444  10.421  0.2242 -0.3328 -0.3355
  482loPI   C2A 7704  15.566  13.474   9.930 -0.3145 -0.4270  0.0757
  482loPI   C3A 7705  15.612  13.527   9.543 -0.0562 -0.0518  0.0209
  482loPI   C4A 7706  15.564  13.486   9.090 -0.0229  0.0035  0.1538
  482loPI   C5A 7707  15.527  13.427   8.690  0.2866 -0.3238 -0.0286
  482loPI   C6A 7708  15.723  13.491   8.234 -0.1670  0.0743 -0.2383
  482loPI   C1B 7709  15.327  13.909  10.293  0.2864 -0.1208  0.1116
  482loPI   C2B 7710  15.329  13.994   9.816  0.1277 -0.1459 -0.2066
  482loPI   C3B 7711  15.309  13.979   9.347 -0.1168 -0.0779 -0.1050
  482loPI   C4B 7712  15.301  14.015   8.851 -0.0367 -0.1361  0.0433
  483loPI    C1 7713  16.245   5.300  10.885 -0.0091  0.1382 -0.0269
  483loPI    C2 7714  16.306   5.678  10.770 -0.0102  0.1643  0.0577
  483loPI    C3 7715  16.413   5.561  11.137  0.1640  0.0346 -0.0328
  483loPI   PO4 7716  16.258   5.126  10.729  0.1648 -0.0838 -0.2372
  483loPI   GL1 7717  16.036   5.035  10.395  0.2418 -0.4520 -0.1100
  483loPI   GL2 7718  16.171   5.370  10.282  0.2931 -0.3070  0.1713
  483loPI   C1A 7719  15.940   5.005   9.945  0.0953 -0.2298  0.3336
  483loPI   C2A 7720  15.817   5.193   9.634  0.1047 -0.1125  0.0161
  483loPI   C3A 7721  15.915   5.062   9.269 -0.0939 -0.2385 -0.3467
  483loPI   C4A 7722  15.937   5.007   8.932 -0.5181  0.1671 -0.1665
  483loPI   C5A 7723  16.026   4.982   8.522  0.0475  0.3314  0.4531
  483loPI   C6A 7724  16.316   4.848   8.214  0.1889  0.0903  0.1085
  483loPI   C1B 7725  16.311   5.438   9.889  0.1112 -0.2027 -0.1613
  483loPI   C2B 7726  16.270   5.390   9.460  0.1262  0.3241  0.1145
  483loPI   C3B 7727  16.174   5.435   8.979  0.1268  0.0680 -0.0323
  483loPI   C4B 7728  16.075   5.481   8.610  0.1154 -0.3105 -0.0291
  484loPI    C1 7729   2.520  16.733  10.726  0.2326 -0.4395 -0.0259
  484loPI    C2 7730   2.214  16.541  10.898  0.0211  0.0557  0.1690
  484loPI    C3 7731   2.571  16.552  11.079 -0.0036 -0.0345  0.2237
  484loPI   PO4 7732   2.449  16.819  10.422  0.0399  0.2021  0.0043
  484loPI   GL1 7733   2.176  16.897  10.129 -0.0804  0.0676  0.0298
  484loPI   GL2 7734   2.236  16.665   9.959  0.1265  0.0492  0.0572
  484loPI   C1A 7735   2.308  17.195   9.820  0.0174 -0.1510  0.0017
  484loPI   C2A 7736   2.381  17.235   9.380  0.3382  0.0385  0.5841
  484loPI   C3A 7737   2.472  17.239   8.974 -0.0363 -0.0861  0.0188
  484loPI   C4A 7738   2.363  17.334   8.627  0.1631  0.0604  0.1761
  484loPI   C5A 7739   2.304  17.344   8.182  0.0896 -0.3387  0.2884
  484loPI   C6A 7740   1.980  17.531   8.023  0.3114  0.2501 -0.3569
  484loPI   C1B 7741   2.120  16.795   9.548  0.0253  0.0182  0.1049
  484loPI   C2B 7742   2.165  16.805   9.014 -0.0559  0.0144 -0.0004
  484loPI   C3B 7743   2.066  16.825   8.610  0.0602  0.1860 -0.0636
  484loPI   C4B 7744   1.963  16.743   8.136  0.0172  0.1844 -0.0045
  485loPI    C1 7745   7.568   1.376  10.701  0.0829  0.0205  0.0504
  485loPI    C2 7746   7.447   1.119  10.983  0.0675  0.0724  0.0915
  485loPI    C3 7747   7.829   1.122  10.866  0.0216 -0.1219 -0.0696
  485loPI   PO4 7748   7.381   1.313  10.506 -0.0811  0.1218  0.1745
  485loPI   GL1 7749   7.443   1.320  10.172 -0.2785 -0.1709 -0.0931
  485loPI   GL2 7750   7.109   1.148  10.073 -0.0028 -0.0057 -0.3124
  485loPI   C1A 7751   7.677   1.170   9.769  0.1564  0.0306 -0.1723
  485loPI   C2A 7752   7.482   1.213   9.368 -0.0947  0.1202 -0.0016
  485loPI   C3A 7753   7.326   1.376   9.032  0.1478  0.1664 -0.1896
  485loPI   C4A 7754   7.191   1.320   8.634 -0.1373  0.1487 -0.3533
  485loPI   C5A 7755   7.039   1.545   8.284 -0.0058  0.0766 -0.0302
  485loPI   C6A 7756   6.757   1.782   7.989  0.0257 -0.1853  0.1510
  485loPI   C1B 7757   7.190   1.508   9.721  0.1718  0.5165 -0.5785
  485loPI   C2B 7758   7.356   1.794   9.362 -0.0856 -0.0132  0.0346
  485loPI   C3B 7759   7.527   1.972   8.932 -0.0054 -0.2374  0.2750
  485loPI   C4B 7760   7.660   2.257   8.641 -0.0104 -0.0315 -0.0945
  486loPI    C1 7761   9.566   2.098  10.793 -0.2393  0.0650 -0.2981
  486loPI    C2 7762   9.328   2.314  11.031 -0.0249  0.0591 -0.0744
  486loPI    C3 7763   9.677   2.177  11.169 -0.0442 -0.2188 -0.2933
  486loPI   PO4 7764   9.626   2.300  10.578 -0.0829 -0.1928  0.3886
  486loPI   GL1 7765   9.451   2.375  10.214 -0.0507  0.0294  0.0442
  486loPI   GL2 7766   9.121   2.199  10.249  0.3725 -0.0974  0.0514
  486loPI   C1A 7767   9.703   2.212   9.923  0.0821 -0.2916  0.1326
  486loPI   C2A 7768   9.761   2.250   9.484  0.0443 -0.6620  0.0783
  486loPI   C3A 7769   9.657   2.206   9.035 -0.2923  0.0692 -0.2388
  486loPI   C4A 7770   9.624   2.179   8.515 -0.1830 -0.0524 -0.2007
  486loPI   C5A 7771   9.525   2.222   8.067 -0.4034 -0.0485  0.0381
  486loPI   C6A 7772   9.513   2.236   7.623 -0.1018  0.1142 -0.0320
  486loPI   C1B 7773   9.171   2.156   9.759  0.0572 -0.0586  0.0552
  486loPI   C2B 7774   9.179   2.139   9.363 -0.2243 -0.0014 -0.1026
  486loPI   C3B 7775   9.142   2.139   8.942 -0.0455  0.5083 -0.2666
  486loPI   C4B 7776   9.135   2.140   8.524  0.0662 -0.2653 -0.0919
  487loPI    C1 7777   6.517  11.143  11.076  0.2256  0.2537  0.0473
  487loPI    C2 7778   6.708  10.881  10.842 -0.1245  0.0511 -0.0193
  487loPI    C3 7779   6.663  10.805  11.232  0.0366  0.1590  0.0217
  487loPI   PO4 7780   6.268  11.138  10.967  0.1170  0.1330  0.2215
  487loPI   GL1 7781   6.126  11.311  10.564 -0.0547  0.0998 -0.0523
  487loPI   GL2 7782   6.437  11.324  10.366 -0.4098  0.4341  0.0853
  487loPI   C1A 7783   5.926  11.458  10.170 -0.1280  0.1746  0.1668
  487loPI   C2A 7784   5.851  11.276   9.771 -0.4178  0.2485 -0.0702
  487loPI   C3A 7785   5.985  11.245   9.315  0.2684  0.2798 -0.1015
  487loPI   C4A 7786   6.034  11.276   8.901  0.0387 -0.1114  0.1423
  487loPI   C5A 7787   6.228  10.927   8.648  0.0946 -0.0272 -0.0543
  487loPI   C6A 7788   5.959  10.852   8.270  0.2371  0.3976 -0.0536
  487loPI   C1B 7789   6.393  11.383   9.941  0.1154  0.1474 -0.3026
  487loPI   C2B 7790   6.407  11.340   9.538  0.1648  0.2316  0.1607
  487loPI   C3B 7791   6.520  11.369   9.075  0.0839  0.2097  0.1050
  487loPI   C4B 7792   6.581  11.365   8.697  0.0087 -0.0627 -0.1580
  488loPI    C1 7793   5.256  10.964  11.195 -0.0679  0.1487 -0.0192
  488loPI    C2 7794   5.550  10.971  11.466 -0.0283  0.3807 -0.0665
  488loPI    C3 7795   5.175  10.890  11.580  0.0932 -0.1983 -0.0477
  488loPI   PO4 7796   5.334  10.794  10.977 -0.0974  0.1692  0.0346
  488loPI   GL1 7797   5.446  10.660  10.541  0.0268 -0.3140  0.2177
  488loPI   GL2 7798   5.617  11.043  10.436 -0.2944  0.1948  0.0950
  488loPI   C1A 7799   5.662  10.732  10.032 -0.1240  0.3922  0.2610
  488loPI   C2A 7800   5.714  10.782   9.580  0.0789  0.0213  0.0981
  488loPI   C3A 7801   5.714  10.770   9.141 -0.1556  0.3683  0.0283
  488loPI   C4A 7802   5.697  10.731   8.768  0.4215  0.1494 -0.0839
  488loPI   C5A 7803   5.498  10.989   8.482  0.0478  0.4977  0.2922
  488loPI   C6A 7804   5.414  11.377   8.404 -0.1927 -0.0795 -0.1152
  488loPI   C1B 7805   5.413  11.234  10.094  0.0571  0.0582 -0.0758
  488loPI   C2B 7806   5.303  11.165   9.684 -0.1372 -0.2725  0.1320
  488loPI   C3B 7807   5.434  11.219   9.332  0.0164  0.1086 -0.0205
  488loPI   C4B 7808   5.511  11.282   8.925  0.0708  0.1356 -0.0940
  489loPI    C1 7809  10.373   6.221  10.913 -0.1635 -0.1108  0.0189
  489loPI    C2 7810  10.027   6.406  10.996 -0.0419  0.1106  0.0397
  489loPI    C3 7811  10.296   6.343  11.286 -0.0728 -0.0820  0.0284
  489loPI   PO4 7812  10.345   6.357  10.573 -0.1663  0.2448  0.3483
  489loPI   GL1 7813  10.364   6.639  10.303 -0.2231 -0.0386 -0.0083
  489loPI   GL2 7814  10.078   6.813  10.269  0.0595 -0.2457 -0.1182
  489loPI   C1A 7815  10.443   6.526   9.946  0.0090 -0.3182  0.2588
  489loPI   C2A 7816  10.464   6.569   9.457 -0.4530  0.1750  0.0989
  489loPI   C3A 7817  10.456   6.783   9.103 -0.1676 -0.2525  0.1496
  489loPI   C4A 7818  10.392   7.134   8.735 -0.1327  0.1052 -0.2773
  489loPI   C5A 7819  10.445   7.527   8.853  0.0080  0.0003  0.2395
  489loPI   C6A 7820  10.575   7.892   8.724 -0.2276  0.2543  0.3421
  489loPI   C1B 7821  10.013   6.787   9.853  0.0825  0.1580  0.0543
  489loPI   C2B 7822   9.937   6.881   9.520  0.2605  0.2618  0.3143
  489loPI   C3B 7823   9.987   6.769   9.012  0.0333 -0.1477 -0.2491
  489loPI   C4B 7824  10.192   6.686   8.609 -0.0771 -0.1450  0.1534
  490loPI    C1 7825  13.130   6.961  11.031 -0.0067 -0.0370 -0.0438
  490loPI    C2 7826  13.338   6.726  11.278  0.2342  0.2681  0.0505
  490loPI    C3 7827  13.099   7.009  11.427 -0.0802  0.0667 -0.0619
  490loPI   PO4 7828  13.189   6.875  10.766  0.1614 -0.0371 -0.1337
  490loPI   GL1 7829  13.133   6.857  10.413 -0.3641 -0.0447 -0.0384
  490loPI   GL2 7830  13.089   6.535  10.375  0.1107  0.0526  0.0730
  490loPI   C1A 7831  13.250   6.929  10.086  0.0935 -0.1728  0.2189
  490loPI   C2A 7832  13.254   6.846   9.695  0.2600  0.0129 -0.0560
  490loPI   C3A 7833  13.326   6.999   9.342  0.1308  0.1593  0.0355
  490loPI   C4A 7834  13.301   6.945   8.866 -0.2951 -0.0365  0.0606
  490loPI   C5A 7835  13.374   6.832   8.444 -0.1619  0.0431  0.1078
  490loPI   C6A 7836  13.614   6.604   8.079 -0.0771  0.1000 -0.2863
  490loPI   C1B 7837  12.994   6.504   9.988  0.1088  0.0597  0.3017
  490loPI   C2B 7838  12.912   6.441   9.504 -0.0312  0.2341 -0.1466
  490loPI   C3B 7839  12.961   6.455   9.043 -0.0799 -0.3040 -0.2018
  490loPI   C4B 7840  13.001   6.392   8.666 -0.0367 -0.1914 -0.1332
  491loPI    C1 7841   9.684   6.889  10.907 -0.0259 -0.1201  0.0267
  491loPI    C2 7842   9.598   6.617  11.187 -0.1852  0.0298  0.1257
  491loPI    C3 7843   9.336   6.908  11.104  0.0250  0.2118  0.0915
  491loPI   PO4 7844   9.791   6.732  10.697 -0.0345 -0.0681  0.0819
  491loPI   GL1 7845   9.605   6.569  10.369 -0.1236 -0.1602 -0.1042
  491loPI   GL2 7846   9.771   6.439  10.143  0.0437 -0.0550  0.0744
  491loPI   C1A 7847   9.414   6.775   9.939 -0.1057  0.3940 -0.1109
  491loPI   C2A 7848   9.420   6.814   9.500 -0.0608  0.3128 -0.1091
  491loPI   C3A 7849   9.505   6.825   9.068 -0.0280  0.0244  0.3213
  491loPI   C4A 7850   9.548   6.806   8.681  0.2257  0.0389  0.2329
  491loPI   C5A 7851   9.880   7.049   8.439 -0.1579  0.2100 -0.2302
  491loPI   C6A 7852  10.241   7.062   8.279 -0.2106 -0.1699 -0.1318
  491loPI   C1B 7853   9.674   6.435   9.684 -0.1576  0.2042  0.1558
  491loPI   C2B 7854   9.744   6.464   9.318  0.2207  0.1196  0.2067
  491loPI   C3B 7855   9.774   6.333   8.839  0.1409 -0.1020 -0.0650
  491loPI   C4B 7856  10.018   6.199   8.493  0.0054  0.0778  0.2005
  492loPI    C1 7857  14.497   1.539  11.052  0.0048  0.0301 -0.0019
  492loPI    C2 7858  14.508   1.640  11.439 -0.0453  0.0108  0.0046
  492loPI    C3 7859  14.181   1.468  11.286 -0.1155  0.2334 -0.1001
  492loPI   PO4 7860  14.536   1.720  10.863  0.2490 -0.0291  0.1050
  492loPI   GL1 7861  14.681   1.588  10.519 -0.0261  0.4657  0.2232
  492loPI   GL2 7862  14.801   1.858  10.436  0.0876 -0.1171 -0.0880
  492loPI   C1A 7863  14.543   1.526  10.103 -0.4338 -0.2437 -0.1134
  492loPI   C2A 7864  14.610   1.556   9.730  0.1946  0.3338 -0.0883
  492loPI   C3A 7865  14.566   1.559   9.276  0.1926 -0.0895  0.0643
  492loPI   C4A 7866  14.502   1.546   8.701 -0.0247  0.2547  0.2230
  492loPI   C5A 7867  14.292   1.401   8.331 -0.2291 -0.1610  0.0156
  492loPI   C6A 7868  14.431   1.439   7.895 -0.1431  0.0121  0.0053
  492loPI   C1B 7869  14.876   1.982   9.981  0.0048 -0.1320 -0.4810
  492loPI   C2B 7870  14.855   1.984   9.567 -0.1418  0.0202 -0.3095
  492loPI   C3B 7871  14.826   1.937   9.083 -0.0192 -0.0201 -0.0073
  492loPI   C4B 7872  14.739   1.948   8.689 -0.0076 -0.0723 -0.0647
  493loPI    C1 7873  14.803   2.895  11.056  0.0919  0.0353  0.0274
  493loPI    C2 7874  14.827   3.058  10.692  0.1907  0.0122  0.0232
  493loPI    C3 7875  14.904   3.279  11.016 -0.1688  0.1082  0.0482
  493loPI   PO4 7876  14.833   2.629  11.001  0.1362  0.0795 -0.0343
  493loPI   GL1 7877  14.824   2.532  10.608 -0.1470  0.5041 -0.1011
  493loPI   GL2 7878  14.762   2.393  10.444 -0.0349  0.0022  0.0276
  493loPI   C1A 7879  14.841   2.867  10.211  0.0865  0.1910  0.0819
  493loPI   C2A 7880  14.859   2.888   9.800 -0.2020 -0.0287  0.0455
  493loPI   C3A 7881  14.992   2.828   9.356  0.0646 -0.1180 -0.2287
  493loPI   C4A 7882  14.987   2.828   8.909  0.2288  0.0997 -0.1374
  493loPI   C5A 7883  15.045   3.031   8.496 -0.1819  0.0586 -0.0626
  493loPI   C6A 7884  15.203   3.394   8.300  0.0949 -0.0134  0.4515
  493loPI   C1B 7885  14.576   2.424  10.032  0.1267  0.3139  0.0400
  493loPI   C2B 7886  14.603   2.476   9.631 -0.2102  0.0331 -0.0667
  493loPI   C3B 7887  14.611   2.355   9.231  0.0189  0.1613 -0.0423
  493loPI   C4B 7888  14.707   2.419   8.889 -0.2231  0.1302  0.2953
  494loPI    C1 7889   5.941   9.810  11.179  0.4869  0.0873 -0.2348
  494loPI    C2 7890   6.223   9.916  11.442 -0.0468  0.1443  0.3374
  494loPI    C3 7891   5.876  10.115  11.430 -0.0553  0.1095 -0.3898
  494loPI   PO4 7892   6.043   9.841  10.932  0.0841  0.1250 -0.2678
  494loPI   GL1 7893   6.035  10.077  10.609 -0.0216  0.0968  0.1247
  494loPI   GL2 7894   5.760   9.952  10.375 -0.3610  0.1680 -0.0669
  494loPI   C1A 7895   6.373  10.093  10.443 -0.1502 -0.0121 -0.0524
  494loPI   C2A 7896   6.316  10.004   9.942  0.0308 -0.0396  0.0949
  494loPI   C3A 7897   6.303   9.943   9.550 -0.0763 -0.3178 -0.4217
  494loPI   C4A 7898   6.380   9.880   9.099  0.1301 -0.3105 -0.1096
  494loPI   C5A 7899   6.456  10.004   8.654  0.1911 -0.1649  0.1672
  494loPI   C6A 7900   6.191  10.020   8.309  0.2389 -0.0001  0.0439
  494loPI   C1B 7901   5.765   9.942  10.014  0.2577  0.2165  0.0107
  494loPI   C2B 7902   5.835   9.862   9.594 -0.1869 -0.1672  0.0791
  494loPI   C3B 7903   5.795   9.804   9.239 -0.3376  0.2740 -0.0921
  494loPI   C4B 7904   5.882   9.878   8.801 -0.4611  0.1268 -0.2893
  495loPI    C1 7905  16.146   9.834  11.305 -0.3002  0.1151  0.0441
  495loPI    C2 7906  16.183  10.231  11.342  0.0852  0.0787  0.0900
  495loPI    C3 7907  16.229   9.996  11.662 -0.2505  0.0011  0.0845
  495loPI   PO4 7908  16.021   9.711  11.090 -0.0955  0.2366  0.1055
  495loPI   GL1 7909  16.056   9.651  10.664  0.1093  0.0352 -0.0094
  495loPI   GL2 7910  15.862   9.726  10.511  0.1427  0.0045  0.1289
  495loPI   C1A 7911  16.292   9.628  10.236  0.2484  0.0985  0.1613
  495loPI   C2A 7912  16.332   9.920   9.830  0.2231 -0.0290 -0.0009
  495loPI   C3A 7913  16.441   9.863   9.371 -0.0552 -0.0827 -0.1347
  495loPI   C4A 7914  16.469   9.931   8.973  0.0385 -0.0775  0.2847
  495loPI   C5A 7915  16.568   9.969   8.556  0.3883 -0.0980 -0.1767
  495loPI   C6A 7916  16.642   9.998   8.154 -0.2142  0.0937 -0.0169
  495loPI   C1B 7917  15.876   9.859  10.112  0.0630 -0.0890  0.0307
  495loPI   C2B 7918  15.804   9.995   9.674  0.1654  0.0897 -0.1013
  495loPI   C3B 7919  15.971   9.934   9.189 -0.0722 -0.1619  0.2168
  495loPI   C4B 7920  16.063   9.999   8.705  0.2527  0.0365 -0.1330
  496loPI    C1 7921   2.432   8.426  11.131  0.2808 -0.1161 -0.0103
  496loPI    C2 7922   2.186   8.236  11.383  0.0669  0.1461 -0.0167
  496loPI    C3 7923   2.456   8.495  11.524  0.1517  0.0670 -0.0331
  496loPI   PO4 7924   2.167   8.428  10.914 -0.1068  0.0724  0.1889
  496loPI   GL1 7925   2.204   8.122  10.601 -0.0291  0.0675 -0.0459
  496loPI   GL2 7926   2.313   8.481  10.435 -0.2922 -0.0392  0.1865
  496loPI   C1A 7927   2.078   8.031  10.271  0.1413  0.0917  0.0851
  496loPI   C2A 7928   2.072   8.029   9.822 -0.0041 -0.0213 -0.2030
  496loPI   C3A 7929   2.134   7.970   9.420 -0.0225  0.2437 -0.1932
  496loPI   C4A 7930   2.146   8.039   8.954  0.2010 -0.0248  0.1680
  496loPI   C5A 7931   2.222   7.932   8.593  0.1382  0.2114  0.0795
  496loPI   C6A 7932   2.230   7.958   8.099 -0.0674 -0.0332 -0.1729
  496loPI   C1B 7933   2.337   8.473  10.050 -0.2600 -0.1332  0.0855
  496loPI   C2B 7934   2.331   8.509   9.566  0.1370 -0.1673 -0.1098
  496loPI   C3B 7935   2.375   8.451   9.164  0.1477 -0.1377  0.0889
  496loPI   C4B 7936   2.403   8.453   8.702 -0.0432 -0.3585  0.1802
  497loPI    C1 7937  13.176  15.412  11.403  0.0086 -0.2857 -0.2357
  497loPI    C2 7938  13.428  15.172  11.599  0.0954 -0.1655 -0.1989
  497loPI    C3 7939  13.084  15.027  11.458  0.1264 -0.3007 -0.1378
  497loPI   PO4 7940  13.405  15.577  11.231 -0.1260 -0.2584 -0.0220
  497loPI   GL1 7941  13.441  15.813  10.790  0.0239 -0.0785 -0.1164
  497loPI   GL2 7942  13.432  15.566  10.732  0.4336 -0.0806  0.0000
  497loPI   C1A 7943  13.375  15.841  10.327 -0.4511 -0.0263  0.0219
  497loPI   C2A 7944  13.418  15.861   9.911 -0.3100 -0.0667  0.0445
  497loPI   C3A 7945  13.460  15.967   9.466 -0.0349 -0.0623 -0.2519
  497loPI   C4A 7946  13.397  15.980   9.050  0.0238  0.1232  0.1229
  497loPI   C5A 7947  13.565  15.539   8.777 -0.2109 -0.0992 -0.1231
  497loPI   C6A 7948  14.055  15.503   8.605 -0.3724 -0.1112  0.3419
  497loPI   C1B 7949  13.592  15.433  10.331  0.2295 -0.1022 -0.0591
  497loPI   C2B 7950  13.610  15.386   9.969 -0.0145 -0.1312  0.0438
  497loPI   C3B 7951  13.480  15.467   9.573  0.1411 -0.1611 -0.1228
  497loPI   C4B 7952  13.705  15.493   9.297 -0.0323 -0.0196 -0.2160
  498loPI    C1 7953  17.734  16.893  11.199  0.0058 -0.1594  0.1032
  498loPI    C2 7954  17.596  16.962  11.568 -0.0092 -0.2887  0.1220
  498loPI    C3 7955  17.786  16.619  11.486  0.0710 -0.2229  0.0313
  498loPI   PO4 7956  17.633  16.930  11.062  0.1548  0.1809  0.0172
  498loPI   GL1 7957  17.708  16.821  10.646 -0.0314  0.1041  0.1848
  498loPI   GL2 7958  17.548  16.620  10.613  0.1764 -0.2353 -0.0502
  498loPI   C1A 7959  17.898  17.008  10.325 -0.0107  0.0687  0.1014
  498loPI   C2A 7960  17.758  16.946   9.923 -0.2866  0.2367 -0.0922
  498loPI   C3A 7961  17.837  16.907   9.502  0.0706  0.1036 -0.0847
  498loPI   C4A 7962  17.796  16.870   9.104 -0.1329  0.0096 -0.0059
  498loPI   C5A 7963  17.773  16.781   8.616 -0.2706 -0.1842 -0.1382
  498loPI   C6A 7964  17.618  16.483   8.335 -0.0381  0.0272 -0.2039
  498loPI   C1B 7965  17.514  16.564  10.227 -0.0708 -0.2322 -0.2922
  498loPI   C2B 7966  17.613  16.481   9.840 -0.1771 -0.1870  0.2560
  498loPI   C3B 7967  17.517  16.450   9.453 -0.1084 -0.1098  0.0147
  498loPI   C4B 7968  17.498  16.507   9.069 -0.2169 -0.0076  0.0523
  499loPI    C1 7969  15.493  12.162  11.102 -0.0382  0.3008  0.1671
  499loPI    C2 7970  15.325  12.336  10.784  0.0064  0.0758  0.0182
  499loPI    C3 7971  15.130  12.329  11.133 -0.1025  0.2029 -0.0387
  499loPI   PO4 7972  15.614  11.963  10.978  0.2739 -0.2967  0.2275
  499loPI   GL1 7973  15.513  11.867  10.558 -0.2223  0.0049  0.1440
  499loPI   GL2 7974  15.759  12.116  10.515 -0.0212 -0.3394  0.0440
  499loPI   C1A 7975  15.357  11.782  10.191  0.0232  0.0604  0.1920
  499loPI   C2A 7976  15.503  11.716   9.801  0.1544 -0.0674  0.1508
  499loPI   C3A 7977  15.423  11.724   9.350 -0.0972  0.1740  0.0086
  499loPI   C4A 7978  15.421  11.776   8.912  0.2929 -0.0934  0.0633
  499loPI   C5A 7979  15.670  11.855   8.608 -0.1890  0.0674 -0.3563
  499loPI   C6A 7980  16.040  11.962   8.334  0.0268 -0.0748  0.2930
  499loPI   C1B 7981  15.671  12.131  10.082  0.2332  0.0448 -0.0251
  499loPI   C2B 7982  15.698  12.110   9.538 -0.0990  0.2919  0.1513
  499loPI   C3B 7983  15.746  12.187   9.044  0.0616 -0.0611 -0.0582
  499loPI   C4B 7984  15.852  12.367   8.580  0.4967 -0.0412  0.1824
  500loPI    C1 7985  13.402   6.175  11.204 -0.0148 -0.0195 -0.1248
  500loPI    C2 7986  13.714   6.393  11.325 -0.0788 -0.0001  0.0070
  500loPI    C3 7987  13.429   6.291  11.586 -0.1947  0.0024 -0.1177
  500loPI   PO4 7988  13.472   6.010  11.076 -0.1454 -0.1388 -0.4105
  500loPI   GL1 7989  13.459   5.863  10.599  0.0496 -0.1737 -0.1838
  500loPI   GL2 7990  13.445   6.154  10.445  0.0989 -0.0979  0.0098
  500loPI   C1A 7991  13.428   5.618  10.237  0.0280  0.3294  0.0372
  500loPI   C2A 7992  13.467   5.499   9.695  0.0052  0.1032 -0.0910
  500loPI   C3A 7993  13.455   5.480   9.284 -0.1374 -0.0587 -0.2148
  500loPI   C4A 7994  13.524   5.488   8.806 -0.3571  0.0255 -0.1605
  500loPI   C5A 7995  13.687   5.214   8.502  0.3320  0.0404 -0.1574
  500loPI   C6A 7996  14.101   5.149   8.273  0.1632  0.3581  0.0778
  500loPI   C1B 7997  13.233   6.032  10.037 -0.0665  0.2600  0.1336
  500loPI   C2B 7998  13.212   5.922   9.684 -0.0287 -0.1549 -0.1113
  500loPI   C3B 7999  13.149   6.006   9.210  0.1021  0.1319  0.2095
  500loPI   C4B 8000  13.362   5.945   8.829  0.0330 -0.2200  0.0949
  501loPI    C1 8001   2.570  16.115  10.784 -0.1043  0.1000  0.0566
  501loPI    C2 8002   2.722  15.934  11.107 -0.0745 -0.0536 -0.0425
  501loPI    C3 8003   2.338  16.044  11.102 -0.0592  0.0064  0.0689
  501loPI   PO4 8004   2.768  16.286  10.681  0.3426 -0.0487  0.1381
  501loPI   GL1 8005   2.856  16.199  10.223 -0.1458  0.2165 -0.0736
  501loPI   GL2 8006   2.946  16.435  10.224  0.0881 -0.0427  0.1642
  501loPI   C1A 8007   2.909  16.030   9.828  0.0735 -0.3071  0.2179
  501loPI   C2A 8008   3.092  15.890   9.394 -0.0232  0.1088 -0.3796
  501loPI   C3A 8009   2.966  15.793   8.960 -0.1876  0.0378 -0.2285
  501loPI   C4A 8010   3.143  15.769   8.547  0.2970 -0.0987  0.0416
  501loPI   C5A 8011   3.476  15.785   8.385 -0.0262 -0.0556  0.1448
  501loPI   C6A 8012   3.558  16.146   8.151  0.1158  0.1430  0.2936
  501loPI   C1B 8013   2.777  16.639   9.849 -0.0001  0.1218  0.2249
  501loPI   C2B 8014   2.571  16.787   9.405 -0.1628  0.1010  0.1327
  501loPI   C3B 8015   2.757  16.739   8.999  0.0745  0.1002 -0.2372
  501loPI   C4B 8016   2.649  16.875   8.591  0.2028 -0.0334  0.0882
  502loPI    C1 8017   6.218   0.870  10.964 -0.1966  0.0107  0.1613
  502loPI    C2 8018   6.522   1.079  10.811 -0.2029  0.0193  0.1606
  502loPI    C3 8019   6.255   1.259  11.049 -0.1506 -0.0112  0.2429
  502loPI   PO4 8020   6.049   0.808  10.698  0.2848 -0.1104 -0.0906
  502loPI   GL1 8021   6.283   0.800  10.349 -0.3805 -0.0683  0.1528
  502loPI   GL2 8022   6.523   1.156  10.267  0.1064 -0.1495 -0.1895
  502loPI   C1A 8023   6.535   0.792   9.937 -0.2305 -0.1979  0.1819
  502loPI   C2A 8024   6.583   0.950   9.481 -0.1486 -0.0954 -0.1445
  502loPI   C3A 8025   6.601   0.840   9.110 -0.1813  0.1093 -0.0632
  502loPI   C4A 8026   6.423   0.726   8.814  0.1146  0.1731  0.2210
  502loPI   C5A 8027   6.193   0.526   8.446 -0.2577 -0.0761 -0.1392
  502loPI   C6A 8028   6.082   0.160   8.126 -0.0347  0.2987  0.1351
  502loPI   C1B 8029   6.717   1.307   9.804 -0.0889 -0.1194 -0.0306
  502loPI   C2B 8030   6.826   1.394   9.407  0.1090  0.0083 -0.0182
  502loPI   C3B 8031   6.769   1.333   8.982  0.2257  0.0026  0.0676
  502loPI   C4B 8032   6.738   1.074   8.525 -0.0982 -0.2899 -0.0897
  503loPI    C1 8033   6.391   9.487  11.212  0.1845  0.0189 -0.0221
  503loPI    C2 8034   6.546   9.194  11.436  0.0005 -0.2177 -0.1990
  503loPI    C3 8035   6.212   9.381  11.553  0.1245 -0.0682 -0.0803
  503loPI   PO4 8036   6.291   9.422  10.947 -0.5312  0.0290  0.2361
  503loPI   GL1 8037   6.409   9.651  10.596  0.4531  0.1986 -0.3900
  503loPI   GL2 8038   6.535   9.266  10.506 -0.1153  0.0137 -0.1794
  503loPI   C1A 8039   6.222   9.554  10.193 -0.1128  0.2573  0.1444
  503loPI   C2A 8040   6.121   9.491   9.744 -0.0680 -0.2410 -0.1129
  503loPI   C3A 8041   6.070   9.423   9.304 -0.0380  0.0754 -0.0160
  503loPI   C4A 8042   6.160   9.456   8.871 -0.0848  0.1806  0.1644
  503loPI   C5A 8043   6.267   9.571   8.500 -0.1435 -0.0739  0.3217
  503loPI   C6A 8044   6.531   9.347   8.131  0.3095  0.1064 -0.1798
  503loPI   C1B 8045   6.432   9.169  10.040 -0.2742  0.0119  0.0676
  503loPI   C2B 8046   6.413   9.156   9.553  0.0743 -0.0346  0.1031
  503loPI   C3B 8047   6.451   8.994   9.132  0.3828  0.1995 -0.0525
  503loPI   C4B 8048   6.509   9.156   8.659  0.1596 -0.1120 -0.1006
  504loPI    C1 8049   1.775   9.950  10.884  0.2524  0.0988 -0.0294
  504loPI    C2 8050   1.885   9.685  11.161  0.0281  0.0879  0.0512
  504loPI    C3 8051   1.502   9.707  11.047  0.0713  0.2785 -0.0601
  504loPI   PO4 8052   1.813   9.952  10.640 -0.0782 -0.2181  0.4616
  504loPI   GL1 8053   1.853  10.218  10.324  0.1043  0.3307 -0.0850
  504loPI   GL2 8054   2.075  10.303  10.127  0.1736  0.0155 -0.0126
  504loPI   C1A 8055   1.636  10.075   9.930 -0.3546 -0.1938  0.2617
  504loPI   C2A 8056   1.556   9.998   9.504 -0.1656 -0.4977  0.1704
  504loPI   C3A 8057   1.597  10.155   9.173  0.1950 -0.0104 -0.0372
  504loPI   C4A 8058   1.572  10.209   8.748  0.0714  0.3951 -0.2397
  504loPI   C5A 8059   1.621  10.508   8.323  0.1112  0.0401  0.1093
  504loPI   C6A 8060   1.889  10.602   8.114  0.0384  0.0344 -0.0160
  504loPI   C1B 8061   2.102  10.289   9.761  0.3513  0.0180 -0.0560
  504loPI   C2B 8062   2.059  10.262   9.361  0.2795  0.1325  0.1784
  504loPI   C3B 8063   2.081  10.228   8.900  0.1097 -0.1522  0.1763
  504loPI   C4B 8064   2.061  10.428   8.579 -0.0479  0.0850  0.0621
  505loPI    C1 8065  14.040   2.108  11.435  0.0178  0.1532  0.2319
  505loPI    C2 8066  14.014   1.766  11.641  0.2040  0.1063  0.1799
  505loPI    C3 8067  13.922   2.114  11.817  0.1251  0.0418  0.2673
  505loPI   PO4 8068  14.103   1.986  11.118  0.6242 -0.3816 -0.1094
  505loPI   GL1 8069  14.035   1.957  10.668  0.1939  0.1218  0.1683
  505loPI   GL2 8070  14.079   1.580  10.645  0.0924 -0.0511  0.0432
  505loPI   C1A 8071  13.815   2.055  10.256 -0.0619 -0.1889  0.0779
  505loPI   C2A 8072  13.713   2.026   9.790  0.3364 -0.0644 -0.1919
  505loPI   C3A 8073  13.793   2.018   9.360  0.4568  0.3441 -0.0252
  505loPI   C4A 8074  13.807   2.060   8.909 -0.2171 -0.0779 -0.1900
  505loPI   C5A 8075  13.764   2.388   8.618  0.1409 -0.0312 -0.2532
  505loPI   C6A 8076  13.643   2.684   8.320  0.2388 -0.0275 -0.1360
  505loPI   C1B 8077  14.066   1.619  10.241  0.1491 -0.3329 -0.0422
  505loPI   C2B 8078  14.037   1.588   9.811 -0.1624  0.0325  0.2525
  505loPI   C3B 8079  14.077   1.531   9.322  0.3153 -0.2221 -0.1090
  505loPI   C4B 8080  14.126   1.613   8.947  0.5377  0.1663  0.2096
  506loPI    C1 8081   0.067  12.791  11.119 -0.1165  0.0387 -0.2650
  506loPI    C2 8082   0.053  13.029  11.440  0.1348  0.0101 -0.2307
  506loPI    C3 8083  -0.215  13.073  11.147  0.0119  0.1527 -0.0986
  506loPI   PO4 8084   0.271  12.763  11.049 -0.5512  0.1618 -0.0495
  506loPI   GL1 8085   0.436  12.932  10.702 -0.2149 -0.2498 -0.2789
  506loPI   GL2 8086   0.548  13.204  10.691 -0.3674  0.1871  0.1670
  506loPI   C1A 8087   0.537  13.046  10.255  0.0918 -0.1214 -0.2085
  506loPI   C2A 8088   0.458  12.955   9.789 -0.3847 -0.0647 -0.1334
  506loPI   C3A 8089   0.551  12.910   9.451 -0.0988  0.0986  0.4315
  506loPI   C4A 8090   0.649  12.890   8.975 -0.0457  0.1550  0.2517
  506loPI   C5A 8091   0.742  12.683   8.504  0.1404 -0.0943  0.0827
  506loPI   C6A 8092   1.121  12.409   8.305 -0.0724  0.0504 -0.2434
  506loPI   C1B 8093   0.234  13.403  10.284  0.0509  0.1136  0.1187
  506loPI   C2B 8094   0.234  13.404   9.864  0.1369 -0.3473  0.2492
  506loPI   C3B 8095   0.224  13.375   9.403 -0.1006  0.1881  0.3558
  506loPI   C4B 8096   0.380  13.303   8.973  0.3420 -0.1453  0.0897
  507loPI    C1 8097  13.009   0.426  11.309  0.0128 -0.0872 -0.1627
  507loPI    C2 8098  12.951   0.157  11.599  0.0218  0.0555 -0.0273
  507loPI    C3 8099  13.288   0.372  11.590  0.0018  0.0836 -0.1173
  507loPI   PO4 8100  13.026   0.276  11.073 -0.1710 -0.2527  0.0685
  507loPI   GL1 8101  13.220   0.166  10.773 -0.1993  0.1383  0.1734
  507loPI   GL2 8102  13.451   0.162  10.891 -0.2252 -0.1409 -0.0422
  507loPI   C1A 8103  13.293   0.351  10.317 -0.1013  0.4305  0.4290
  507loPI   C2A 8104  13.210   0.250   9.900 -0.2632  0.0572 -0.0111
  507loPI   C3A 8105  13.205   0.239   9.421 -0.0242  0.0254 -0.1558
  507loPI   C4A 8106  13.314   0.294   8.990 -0.2459  0.1611 -0.2133
  507loPI   C5A 8107  13.697   0.250   8.754 -0.1939 -0.2428 -0.0031
  507loPI   C6A 8108  14.021  -0.046   8.563 -0.1077  0.0303 -0.1765
  507loPI   C1B 8109  13.756   0.195  10.553 -0.1274 -0.0059  0.2142
  507loPI   C2B 8110  13.797   0.321  10.119 -0.1953 -0.0953  0.0741
  507loPI   C3B 8111  13.643   0.273   9.634  0.0915 -0.1170 -0.2154
  507loPI   C4B 8112  13.810   0.396   9.290 -0.2526 -0.1075  0.5252
  508loPI    C1 8113  16.349  13.528  11.235 -0.0842 -0.0537 -0.0427
  508loPI    C2 8114  15.966  13.533  11.349 -0.0918 -0.1011 -0.0660
  508loPI    C3 8115  16.156  13.184  11.301 -0.1048 -0.0833 -0.2525
  508loPI   PO4 8116  16.315  13.657  10.985 -0.3414 -0.2681 -0.1249
  508loPI   GL1 8117  16.487  13.904  10.681  0.0975  0.1930 -0.0107
  508loPI   GL2 8118  16.527  14.143  10.545 -0.0951  0.0707 -0.1704
  508loPI   C1A 8119  16.403  13.844  10.224  0.0164 -0.0962  0.2115
  508loPI   C2A 8120  16.376  13.953   9.836 -0.1433  0.0392 -0.1599
  508loPI   C3A 8121  16.321  13.965   9.385 -0.0168 -0.1953  0.1905
  508loPI   C4A 8122  16.441  13.953   8.988 -0.0443 -0.1534 -0.3695
  508loPI   C5A 8123  16.430  14.209   8.550 -0.2123  0.0269 -0.1995
  508loPI   C6A 8124  16.082  14.490   8.531 -0.0634 -0.1088  0.0980
  508loPI   C1B 8125  16.592  14.344  10.171 -0.2828  0.2601 -0.2588
  508loPI   C2B 8126  16.619  14.398   9.696 -0.1191  0.2412  0.2224
  508loPI   C3B 8127  16.672  14.319   9.311  0.0436 -0.0424  0.1506
  508loPI   C4B 8128  16.663  14.419   8.996 -0.1291 -0.1259  0.0103
  509loPI    C1 8129   2.287   3.794  10.944  0.1661 -0.0675 -0.0622
  509loPI    C2 8130   1.938   3.655  11.080  0.0599  0.2130 -0.0424
  509loPI    C3 8131   2.279   3.548  11.259 -0.0349  0.1317  0.0913
  509loPI   PO4 8132   2.203   3.708  10.677 -0.0860 -0.0909 -0.1142
  509loPI   GL1 8133   2.237   3.719  10.332  0.0615 -0.2433  0.1218
  509loPI   GL2 8134   2.323   3.982  10.225  0.1393  0.0845 -0.2225
  509loPI   C1A 8135   1.944   3.475  10.033 -0.1512  0.0845  0.1782
  509loPI   C2A 8136   1.965   3.388   9.572  0.0756  0.0344  0.3324
  509loPI   C3A 8137   1.881   3.347   9.117 -0.0171  0.0847 -0.0686
  509loPI   C4A 8138   1.819   3.469   8.694  0.0772  0.1232  0.0650
  509loPI   C5A 8139   1.563   3.514   8.439  0.1542  0.0821  0.0776
  509loPI   C6A 8140   1.297   3.310   8.115  0.0079  0.1881  0.1296
  509loPI   C1B 8141   2.301   3.925   9.805 -0.1241  0.1416  0.1389
  509loPI   C2B 8142   2.206   3.790   9.482 -0.0043 -0.0776 -0.0883
  509loPI   C3B 8143   2.148   3.845   9.059 -0.0598 -0.1854 -0.1402
  509loPI   C4B 8144   2.053   3.908   8.605  0.2013  0.0830 -0.0809
  510loPI    C1 8145   9.502  14.788  10.930 -0.1900  0.2547  0.0695
  510loPI    C2 8146   9.366  14.494  11.165 -0.1674  0.0362 -0.1875
  510loPI    C3 8147   9.617  14.768  11.313 -0.2170 -0.0520  0.0638
  510loPI   PO4 8148   9.654  14.750  10.747  0.1504  0.2548  0.1097
  510loPI   GL1 8149   9.899  14.489  10.581 -0.1344 -0.3343  0.2594
  510loPI   GL2 8150   9.837  14.237  10.337 -0.0337 -0.0504  0.2231
  510loPI   C1A 8151   9.939  14.683  10.088 -0.3352 -0.4053 -0.2124
  510loPI   C2A 8152  10.041  14.678   9.712  0.1053 -0.0647  0.1738
  510loPI   C3A 8153  10.123  14.726   9.315  0.1145  0.1182 -0.0897
  510loPI   C4A 8154  10.162  14.692   8.857  0.0286 -0.1167  0.3018
  510loPI   C5A 8155  10.273  14.737   8.465 -0.0791 -0.1888  0.0339
  510loPI   C6A 8156  10.612  14.615   8.180 -0.0883  0.0172  0.0210
  510loPI   C1B 8157   9.820  14.207   9.899 -0.4526  0.1697 -0.0169
  510loPI   C2B 8158   9.908  14.231   9.401 -0.1740 -0.1275  0.2297
  510loPI   C3B 8159   9.948  14.151   8.831 -0.2143  0.3867  0.0404
  510loPI   C4B 8160   9.956  14.297   8.371 -0.1477 -0.1394  0.0550
  511loPI    C1 8161  17.358  10.551  10.745  0.2707 -0.0219  0.0537
  511loPI    C2 8162  17.483  10.349  11.066  0.1558 -0.0423  0.0862
  511loPI    C3 8163  17.092  10.396  11.001  0.1811  0.0815  0.0237
  511loPI   PO4 8164  17.360  10.705  10.714  0.0335 -0.2421 -0.1593
  511loPI   GL1 8165  17.442  10.877  10.338 -0.0148  0.0569  0.1048
  511loPI   GL2 8166  17.287  11.131  10.316  0.1460  0.0193  0.0068
  511loPI   C1A 8167  17.508  10.939   9.926  0.3695 -0.0347  0.1824
  511loPI   C2A 8168  17.482  10.695   9.536 -0.1231  0.1204 -0.4212
  511loPI   C3A 8169  17.693  10.812   9.115  0.1784 -0.1279  0.0961
  511loPI   C4A 8170  17.685  10.833   8.732  0.4185  0.4885 -0.1322
  511loPI   C5A 8171  17.895  10.584   8.475 -0.2724  0.1924 -0.0849
  511loPI   C6A 8172  18.170  10.197   8.385  0.1417  0.0143  0.1843
  511loPI   C1B 8173  17.116  11.248   9.874  0.1335 -0.0777  0.1763
  511loPI   C2B 8174  17.319  11.202   9.460 -0.0414 -0.1848 -0.0125
  511loPI   C3B 8175  17.413  11.280   9.031  0.0939 -0.2950 -0.0144
  511loPI   C4B 8176  17.533  11.395   8.564  0.4245 -0.1877 -0.0628
  512loPI    C1 8177   7.312  13.636  10.800 -0.1555 -0.0499 -0.1712
  512loPI    C2 8178   7.197  13.432  11.124 -0.0026  0.0445 -0.0561
  512loPI    C3 8179   7.440  13.747  11.162 -0.0416  0.1001 -0.2562
  512loPI   PO4 8180   7.059  13.694  10.696 -0.3101  0.1302  0.0860
  512loPI   GL1 8181   6.724  13.608  10.410 -0.0621 -0.2232  0.2195
  512loPI   GL2 8182   7.035  13.379  10.245  0.1082 -0.2356 -0.1644
  512loPI   C1A 8183   6.669  13.772   9.983  0.2255  0.2728  0.3911
  512loPI   C2A 8184   6.660  13.792   9.493 -0.1189 -0.0459 -0.0849
  512loPI   C3A 8185   6.766  13.750   9.024  0.0001  0.3121  0.3260
  512loPI   C4A 8186   6.829  13.757   8.619  0.0063 -0.3475 -0.1421
  512loPI   C5A 8187   6.855  13.785   8.174  0.6063  0.4976 -0.0639
  512loPI   C6A 8188   6.619  13.590   7.905 -0.0416  0.1365 -0.2808
  512loPI   C1B 8189   7.052  13.363   9.795 -0.0788  0.0502 -0.0666
  512loPI   C2B 8190   6.989  13.403   9.298 -0.0732 -0.0182 -0.2198
  512loPI   C3B 8191   7.122  13.386   8.905 -0.1961  0.1026 -0.1487
  512loPI   C4B 8192   7.115  13.227   8.438 -0.2276 -0.3010  0.5759
  513loPI    C1 8193   1.166  11.154  11.137 -0.1870  0.0028  0.0560
  513loPI    C2 8194   1.496  11.366  11.216 -0.1168 -0.1615  0.2109
  513loPI    C3 8195   1.241  11.274  11.511 -0.2737 -0.0828  0.1014
  513loPI   PO4 8196   1.120  11.233  10.845  0.0892  0.1014  0.1047
  513loPI   GL1 8197   1.164  11.257  10.485  0.1688  0.0578  0.0379
  513loPI   GL2 8198   0.948  11.234  10.281 -0.0558  0.0180  0.1142
  513loPI   C1A 8199   1.331  11.492  10.048  0.0589  0.2614  0.0731
  513loPI   C2A 8200   1.356  11.654   9.592  0.2985 -0.1768 -0.1145
  513loPI   C3A 8201   1.662  11.540   9.280 -0.2339  0.3327 -0.3263
  513loPI   C4A 8202   1.552  11.464   8.825 -0.1777 -0.2030  0.1966
  513loPI   C5A 8203   1.354  11.701   8.502 -0.0104 -0.3334  0.0122
  513loPI   C6A 8204   1.277  11.929   8.143 -0.2334 -0.1833  0.1634
  513loPI   C1B 8205   0.941  11.161   9.795  0.2020  0.2495  0.1086
  513loPI   C2B 8206   0.956  10.980   9.349  0.2364  0.0127  0.0486
  513loPI   C3B 8207   0.913  11.002   8.906  0.0868 -0.2817 -0.1140
  513loPI   C4B 8208   1.014  11.305   8.585 -0.0205 -0.2176 -0.2238
  514loPI    C1 8209  11.564   3.252  11.295 -0.0652  0.2105 -0.0684
  514loPI    C2 8210  11.335   3.188  11.617  0.1985 -0.0824  0.0664
  514loPI    C3 8211  11.721   3.284  11.662  0.1593  0.1958 -0.1617
  514loPI   PO4 8212  11.313   3.289  11.096 -0.0412 -0.0318  0.1438
  514loPI   GL1 8213  11.296   3.450  10.671  0.0976  0.2180  0.1295
  514loPI   GL2 8214  11.109   3.200  10.589 -0.1479  0.2396  0.1374
  514loPI   C1A 8215  11.517   3.567  10.311  0.2781  0.6406 -0.0808
  514loPI   C2A 8216  11.532   3.561   9.898 -0.0526 -0.1735 -0.0371
  514loPI   C3A 8217  11.605   3.563   9.553 -0.2349 -0.0755  0.0512
  514loPI   C4A 8218  11.589   3.422   9.082  0.2015  0.2681 -0.3458
  514loPI   C5A 8219  11.606   3.374   8.680  0.0214  0.0041 -0.2308
  514loPI   C6A 8220  11.837   3.274   8.282 -0.1486 -0.2303 -0.3558
  514loPI   C1B 8221  11.193   3.155  10.141 -0.3871  0.1024  0.0068
  514loPI   C2B 8222  11.286   3.051   9.708  0.0051  0.1915 -0.1344
  514loPI   C3B 8223  11.250   3.021   9.274 -0.2300  0.2442  0.1221
  514loPI   C4B 8224  11.185   3.074   8.818 -0.0408 -0.1265  0.0915
  515loPI    C1 8225   1.870   1.483  11.102 -0.0857 -0.0783  0.1119
  515loPI    C2 8226   2.200   1.591  11.299  0.2492 -0.3104 -0.3036
  515loPI    C3 8227   1.935   1.348  11.473  0.1289  0.1278  0.1517
  515loPI   PO4 8228   1.806   1.773  10.941  0.1344  0.3086 -0.2949
  515loPI   GL1 8229   1.748   1.683  10.504  0.0155 -0.3305 -0.1870
  515loPI   GL2 8230   1.553   1.919  10.564 -0.0092 -0.1119  0.2333
  515loPI   C1A 8231   1.764   1.679  10.030  0.2543 -0.0901 -0.1552
  515loPI   C2A 8232   1.785   1.631   9.585 -0.0746 -0.1303 -0.1538
  515loPI   C3A 8233   1.803   1.689   9.177  0.0927 -0.3113  0.2900
  515loPI   C4A 8234   1.792   1.828   8.764  0.0362 -0.1108 -0.0093
  515loPI   C5A 8235   1.639   1.680   8.392  0.1001 -0.0650  0.3625
  515loPI   C6A 8236   1.540   1.397   8.080  0.1405 -0.1538 -0.1379
  515loPI   C1B 8237   1.635   2.110  10.198 -0.1020 -0.0247 -0.1447
  515loPI   C2B 8238   1.677   2.174   9.844  0.1193  0.0608  0.0680
  515loPI   C3B 8239   1.621   2.145   9.481 -0.0328  0.0115 -0.1147
  515loPI   C4B 8240   1.514   2.142   9.049  0.1083  0.3533  0.0675
  516loPI    C1 8241   8.007   1.658  10.761  0.0780 -0.0575  0.1627
  516loPI    C2 8242   8.113   1.462  11.093  0.1141 -0.2748  0.0246
  516loPI    C3 8243   8.125   1.861  11.084 -0.0852 -0.2581  0.3518
  516loPI   PO4 8244   8.039   1.622  10.542 -0.0288  0.2498 -0.0657
  516loPI   GL1 8245   8.296   1.632  10.223  0.2601 -0.0399 -0.2766
  516loPI   GL2 8246   8.176   1.389  10.103 -0.2173  0.0673  0.0544
  516loPI   C1A 8247   8.481   1.698   9.837 -0.1248 -0.0634  0.0549
  516loPI   C2A 8248   8.417   1.598   9.405  0.0318  0.0991 -0.0469
  516loPI   C3A 8249   8.409   1.635   8.906 -0.4388  0.1426 -0.1670
  516loPI   C4A 8250   8.423   1.601   8.469 -0.0436 -0.1846 -0.1745
  516loPI   C5A 8251   8.101   1.740   8.142  0.0551 -0.1886 -0.2855
  516loPI   C6A 8252   7.926   1.766   7.849 -0.0212  0.0523  0.4377
  516loPI   C1B 8253   8.181   1.215   9.661  0.1595  0.0537  0.0461
  516loPI   C2B 8254   8.200   1.210   9.126  0.0481 -0.2250 -0.1291
  516loPI   C3B 8255   8.136   1.279   8.688  0.1631  0.0605  0.0720
  516loPI   C4B 8256   8.017   1.261   8.257  0.0449  0.2576 -0.1086
  517loPI    C1 8257   2.839   2.974  11.015 -0.1790  0.2664  0.2881
  517loPI    C2 8258   3.006   2.656  11.189  0.0785  0.1869 -0.0919
  517loPI    C3 8259   2.608   2.683  11.163  0.0550 -0.1430 -0.1240
  517loPI   PO4 8260   3.004   3.040  10.755  0.1293  0.0320  0.3450
  517loPI   GL1 8261   2.770   3.211  10.377  0.1354 -0.0903 -0.0504
  517loPI   GL2 8262   2.615   3.372  10.239 -0.2365 -0.2023  0.0669
  517loPI   C1A 8263   2.968   3.366   9.924 -0.4014  0.1642  0.2034
  517loPI   C2A 8264   3.061   3.299   9.604 -0.0753 -0.1268  0.2019
  517loPI   C3A 8265   3.039   3.188   9.172 -0.0066  0.1747 -0.0959
  517loPI   C4A 8266   3.185   3.082   8.717 -0.2816 -0.0688  0.1477
  517loPI   C5A 8267   2.950   2.951   8.360 -0.1197 -0.1339  0.0923
  517loPI   C6A 8268   3.076   2.658   8.181  0.0751  0.2382 -0.0785
  517loPI   C1B 8269   2.451   3.447   9.923  0.3265  0.0489 -0.1620
  517loPI   C2B 8270   2.459   3.363   9.586 -0.0017  0.1950  0.1794
  517loPI   C3B 8271   2.350   3.397   9.174  0.2673  0.3034  0.1806
  517loPI   C4B 8272   2.384   3.470   8.690  0.1309  0.0164 -0.3031
  518loPI    C1 8273   1.379   3.141  11.187 -0.0908 -0.0797  0.2255
  518loPI    C2 8274   1.387   3.312  11.548  0.1049  0.0309  0.1704
  518loPI    C3 8275   1.077   3.081  11.443 -0.2546  0.4953  0.1797
  518loPI   PO4 8276   1.485   3.357  11.003  0.3036  0.0861  0.1624
  518loPI   GL1 8277   1.293   3.421  10.558  0.0265 -0.1332  0.2812
  518loPI   GL2 8278   1.012   3.446  10.467 -0.1284  0.0270  0.0263
  518loPI   C1A 8279   1.378   3.538  10.065 -0.1924  0.1300 -0.3336
  518loPI   C2A 8280   1.482   3.431   9.627  0.1715  0.2238  0.0372
  518loPI   C3A 8281   1.361   3.529   9.284  0.1382  0.2099 -0.1045
  518loPI   C4A 8282   1.258   3.409   8.855 -0.0321  0.3649  0.1253
  518loPI   C5A 8283   1.074   3.177   8.532 -0.1137  0.1784 -0.0605
  518loPI   C6A 8284   0.831   3.284   8.353  0.0711 -0.0597  0.1436
  518loPI   C1B 8285   0.855   3.552  10.075  0.0030  0.3827 -0.1347
  518loPI   C2B 8286   0.846   3.490   9.628 -0.0933  0.1586 -0.1649
  518loPI   C3B 8287   0.828   3.486   9.127  0.0695  0.1791 -0.2319
  518loPI   C4B 8288   0.583   3.406   8.787  0.3078  0.0515  0.1588
  519loPI    C1 8289   0.888   6.550  11.471  0.2978 -0.2138 -0.1208
  519loPI    C2 8290   1.114   6.475  11.793  0.2070 -0.1123 -0.0327
  519loPI    C3 8291   0.715   6.448  11.818  0.1925  0.0340 -0.0988
  519loPI   PO4 8292   1.040   6.596  11.332  0.0678  0.1096  0.1290
  519loPI   GL1 8293   1.137   6.708  10.945  0.0387  0.1381  0.0033
  519loPI   GL2 8294   1.113   6.402  10.844 -0.1647  0.2106 -0.0562
  519loPI   C1A 8295   0.834   6.776  10.556  0.1534  0.0663  0.0249
  519loPI   C2A 8296   0.776   6.804  10.107 -0.1106  0.2907 -0.0364
  519loPI   C3A 8297   0.698   6.660   9.748 -0.1754 -0.2046  0.1030
  519loPI   C4A 8298   0.688   6.546   9.261 -0.0568 -0.0667  0.0355
  519loPI   C5A 8299   0.948   6.497   8.837  0.4618  0.0860  0.1204
  519loPI   C6A 8300   1.129   6.301   8.517  0.0047  0.0017  0.1851
  519loPI   C1B 8301   0.950   6.323  10.458 -0.3341 -0.0106  0.0998
  519loPI   C2B 8302   0.995   6.263  10.011 -0.2299 -0.0336 -0.1398
  519loPI   C3B 8303   0.934   6.236   9.607 -0.5032 -0.0569 -0.0624
  519loPI   C4B 8304   0.887   6.099   9.098  0.1949 -0.0740 -0.0286
  520loPI    C1 8305   0.639   9.292  11.274 -0.1122 -0.0024  0.0035
  520loPI    C2 8306   0.819   8.952  11.168  0.2046  0.1780 -0.0484
  520loPI    C3 8307   0.622   8.973  11.515  0.1766 -0.0592 -0.0479
  520loPI   PO4 8308   0.546   9.410  11.090 -0.1530  0.3420  0.0341
  520loPI   GL1 8309   0.589   9.098  10.702 -0.0611 -0.3285 -0.1106
  520loPI   GL2 8310   0.736   9.405  10.613  0.0152 -0.0857 -0.1002
  520loPI   C1A 8311   0.508   8.942  10.364  0.1421 -0.1384 -0.2192
  520loPI   C2A 8312   0.503   8.947   9.881  0.0004  0.0483 -0.4294
  520loPI   C3A 8313   0.549   8.913   9.499 -0.0081  0.2749 -0.2177
  520loPI   C4A 8314   0.468   8.910   9.022  0.0086 -0.1581 -0.0006
  520loPI   C5A 8315   0.580   8.730   8.616  0.0023  0.1995 -0.0879
  520loPI   C6A 8316   0.897   8.471   8.499  0.0228 -0.0749  0.0488
  520loPI   C1B 8317   0.642   9.381  10.154 -0.0428  0.2440  0.0454
  520loPI   C2B 8318   0.754   9.357   9.698  0.1846 -0.1400 -0.2135
  520loPI   C3B 8319   0.834   9.341   9.319 -0.2171 -0.1012  0.0303
  520loPI   C4B 8320   0.848   9.391   8.915 -0.1203 -0.2049 -0.0710
  521loPI    C1 8321   8.529  16.222  10.919 -0.0065  0.0311  0.2488
  521loPI    C2 8322   8.545  16.032  11.271  0.1107  0.0429  0.2502
  521loPI    C3 8323   8.883  16.130  11.081  0.0474 -0.0082  0.1099
  521loPI   PO4 8324   8.390  16.109  10.758 -0.2276  0.0754 -0.2689
  521loPI   GL1 8325   8.410  15.837  10.379  0.2112  0.0197  0.2132
  521loPI   GL2 8326   8.472  15.548  10.420  0.2689 -0.1639  0.0892
  521loPI   C1A 8327   8.567  15.907   9.969 -0.0307 -0.1194  0.0040
  521loPI   C2A 8328   8.595  15.894   9.586 -0.1350 -0.1326  0.2191
  521loPI   C3A 8329   8.550  15.902   9.152 -0.0491 -0.0744 -0.0414
  521loPI   C4A 8330   8.628  15.809   8.767  0.0726  0.1871 -0.1468
  521loPI   C5A 8331   8.597  15.898   8.219  0.0453  0.0889 -0.2371
  521loPI   C6A 8332   8.657  15.595   7.780 -0.0364  0.0305 -0.2287
  521loPI   C1B 8333   8.222  15.344  10.088  0.3273  0.1278  0.0195
  521loPI   C2B 8334   8.336  15.417   9.743 -0.1306 -0.1039  0.1491
  521loPI   C3B 8335   8.351  15.473   9.337 -0.1172 -0.0364  0.1672
  521loPI   C4B 8336   8.510  15.289   8.911  0.0113  0.0221  0.1623
  522loPI    C1 8337   3.617  17.695  10.982  0.0154 -0.2924  0.0618
  522loPI    C2 8338   3.643  18.060  11.144 -0.3719 -0.1205 -0.2448
  522loPI    C3 8339   3.456  17.766  11.341 -0.0301 -0.1690  0.0174
  522loPI   PO4 8340   3.656  17.749  10.742  0.2852  0.0097  0.1569
  522loPI   GL1 8341   3.502  17.985  10.447 -0.0790 -0.1057 -0.2332
  522loPI   GL2 8342   3.191  18.016  10.321 -0.1762 -0.1521 -0.1644
  522loPI   C1A 8343   3.537  18.044   9.956  0.1102 -0.0364 -0.0352
  522loPI   C2A 8344   3.464  18.050   9.553 -0.0360 -0.1926 -0.0316
  522loPI   C3A 8345   3.390  18.102   9.100 -0.0000  0.0881 -0.1149
  522loPI   C4A 8346   3.419  18.147   8.702 -0.1033 -0.0238 -0.2794
  522loPI   C5A 8347   3.432  18.380   8.341 -0.4822 -0.0642  0.0444
  522loPI   C6A 8348   3.540  18.619   7.912  0.3120  0.1578 -0.2155
  522loPI   C1B 8349   2.994  18.080   9.966  0.1345  0.1134 -0.1369
  522loPI   C2B 8350   2.969  18.101   9.468  0.1039 -0.2734 -0.0754
  522loPI   C3B 8351   2.862  18.061   9.064  0.0924  0.1180  0.4352
  522loPI   C4B 8352   2.924  18.203   8.635 -0.4403 -0.0374  0.0191
  523loPI    C1 8353   4.140   4.791  11.236  0.1011  0.0002  0.1474
  523loPI    C2 8354   3.928   4.451  11.233 -0.0043  0.0660  0.1067
  523loPI    C3 8355   4.257   4.480  11.458  0.2021 -0.1831 -0.1554
  523loPI   PO4 8356   4.035   4.898  10.940 -0.2366  0.0156 -0.0636
  523loPI   GL1 8357   3.807   4.843  10.532  0.1455  0.2144  0.1491
  523loPI   GL2 8358   3.614   4.712  10.497  0.0857  0.1046 -0.0790
  523loPI   C1A 8359   3.736   4.630  10.006 -0.0305 -0.0701 -0.0282
  523loPI   C2A 8360   3.727   4.533   9.545 -0.1624  0.2039 -0.0197
  523loPI   C3A 8361   3.890   4.547   9.152  0.0866 -0.0757 -0.0474
  523loPI   C4A 8362   3.805   4.600   8.670 -0.0498 -0.0478  0.1241
  523loPI   C5A 8363   4.020   4.364   8.279 -0.0026 -0.0876  0.0709
  523loPI   C6A 8364   4.191   3.930   8.108  0.0819  0.2049  0.1850
  523loPI   C1B 8365   3.262   4.464  10.243  0.0909 -0.0293 -0.1794
  523loPI   C2B 8366   3.198   4.523   9.821 -0.2630 -0.0454  0.0554
  523loPI   C3B 8367   3.041   4.325   9.457 -0.1927 -0.0756  0.1851
  523loPI   C4B 8368   3.139   4.101   9.040 -0.2951 -0.1398  0.1510
  524loPI    C1 8369  16.673   9.087  11.303 -0.0178 -0.0918 -0.1208
  524loPI    C2 8370  16.387   8.916  11.524  0.0850 -0.1578 -0.0382
  524loPI    C3 8371  16.747   8.989  11.684  0.0727  0.0473 -0.1015
  524loPI   PO4 8372  16.713   8.967  11.096  0.1866 -0.0301 -0.0339
  524loPI   GL1 8373  16.747   9.169  10.739  0.0315  0.1328 -0.1627
  524loPI   GL2 8374  16.538   9.305  10.565  0.0030  0.2784  0.0218
  524loPI   C1A 8375  16.889   8.879  10.424 -0.2101 -0.0305  0.1316
  524loPI   C2A 8376  16.823   8.886  10.027 -0.1641  0.1312  0.1829
  524loPI   C3A 8377  16.805   8.995   9.611  0.0515  0.0836 -0.0265
  524loPI   C4A 8378  16.875   8.952   9.277  0.0806  0.1758  0.1206
  524loPI   C5A 8379  16.831   8.969   8.825 -0.1498 -0.1555 -0.0597
  524loPI   C6A 8380  16.986   8.826   8.487 -0.2441 -0.0232  0.0118
  524loPI   C1B 8381  16.619   9.283  10.088  0.2187 -0.0180  0.1310
  524loPI   C2B 8382  16.590   9.532   9.686 -0.1967 -0.0651  0.1558
  524loPI   C3B 8383  16.629   9.437   9.218  0.2507  0.1472 -0.0274
  524loPI   C4B 8384  16.639   9.498   8.790  0.1619  0.0698  0.1261
  525loPI    C1 8385   8.772   2.359  10.569 -0.4035 -0.2244 -0.0190
  525loPI    C2 8386   8.644   2.216  10.920  0.0633 -0.2535  0.1458
  525loPI    C3 8387   8.893   2.529  10.910  0.0969 -0.2867 -0.1581
  525loPI   PO4 8388   8.550   2.507  10.483  0.2298 -0.0474  0.2035
  525loPI   GL1 8389   8.149   2.441  10.217  0.1540 -0.2591  0.0008
  525loPI   GL2 8390   8.171   2.068  10.106  0.1214  0.1673 -0.1215
  525loPI   C1A 8391   8.223   2.514   9.862 -0.0879  0.2540 -0.2060
  525loPI   C2A 8392   8.144   2.522   9.411  0.0249  0.3365 -0.0700
  525loPI   C3A 8393   8.307   2.572   9.065  0.0333  0.0307 -0.0226
  525loPI   C4A 8394   8.356   2.594   8.648 -0.1879  0.1836 -0.4532
  525loPI   C5A 8395   8.439   2.579   8.210 -0.0358 -0.1026 -0.0016
  525loPI   C6A 8396   8.362   2.919   7.995  0.0721 -0.1815  0.3772
  525loPI   C1B 8397   8.074   2.006   9.687  0.1488  0.0454 -0.0180
  525loPI   C2B 8398   8.153   2.036   9.270  0.3107 -0.1747 -0.3124
  525loPI   C3B 8399   8.175   2.137   8.836  0.1842 -0.0876 -0.1359
  525loPI   C4B 8400   8.130   2.166   8.387 -0.3876 -0.0282 -0.1138
  526loPI    C1 8401   5.753   2.358  10.683 -0.0749  0.1310  0.2342
  526loPI    C2 8402   6.083   2.381  10.908  0.0374  0.0347  0.0807
  526loPI    C3 8403   5.743   2.240  11.065  0.1490 -0.1551  0.1544
  526loPI   PO4 8404   5.957   2.587  10.460 -0.2863  0.0486  0.1339
  526loPI   GL1 8405   6.094   2.671   9.933 -0.1392 -0.0705 -0.0754
  526loPI   GL2 8406   5.716   2.648   9.987  0.1709  0.1610 -0.0684
  526loPI   C1A 8407   6.224   2.683   9.506 -0.1504 -0.0747  0.1924
  526loPI   C2A 8408   6.429   2.681   9.127 -0.4075  0.0957  0.1841
  526loPI   C3A 8409   6.491   2.605   8.676 -0.0972  0.0122 -0.2970
  526loPI   C4A 8410   6.417   2.687   8.305 -0.1130 -0.0629  0.0530
  526loPI   C5A 8411   6.078   2.763   7.974  0.0092 -0.1036 -0.1239
  526loPI   C6A 8412   5.767   2.894   7.649  0.3143 -0.2025  0.0380
  526loPI   C1B 8413   5.757   2.559   9.506  0.0420  0.3189  0.2819
  526loPI   C2B 8414   5.891   2.545   9.113  0.0623 -0.3213  0.0163
  526loPI   C3B 8415   5.931   2.569   8.688  0.0856  0.1377  0.1221
  526loPI   C4B 8416   5.967   2.333   8.178  0.0522 -0.1897  0.1738
  527loPI    C1 8417  13.818  17.039  11.478  0.2017  0.3666 -0.0110
  527loPI    C2 8418  14.134  16.994  11.718  0.1105  0.1871  0.0774
  527loPI    C3 8419  14.009  17.361  11.620  0.3329  0.2595  0.0576
  527loPI   PO4 8420  13.826  16.860  11.313 -0.1361  0.2984  0.1545
  527loPI   GL1 8421  13.733  16.935  10.931 -0.0008  0.1459 -0.3610
  527loPI   GL2 8422  13.490  16.654  10.885 -0.1891  0.1141  0.1349
  527loPI   C1A 8423  13.827  17.155  10.580  0.0111  0.2354 -0.1733
  527loPI   C2A 8424  13.770  17.179  10.086  0.0550 -0.0658  0.0408
  527loPI   C3A 8425  13.728  17.279   9.626 -0.1517  0.4117  0.3610
  527loPI   C4A 8426  13.791  17.328   9.117 -0.2993  0.0729 -0.3105
  527loPI   C5A 8427  13.910  17.204   8.698 -0.0298 -0.1034 -0.2580
  527loPI   C6A 8428  13.921  16.974   8.221 -0.1819 -0.1377 -0.1724
  527loPI   C1B 8429  13.487  16.730  10.409  0.0445  0.1334  0.1901
  527loPI   C2B 8430  13.506  16.803  10.000 -0.1615  0.1427  0.2675
  527loPI   C3B 8431  13.496  16.858   9.517  0.3580  0.3076  0.3138
  527loPI   C4B 8432  13.557  16.920   9.075 -0.3141  0.3114 -0.1365
  528loPI    C1 8433   6.953   1.988  10.735  0.0392 -0.2907  0.0696
  528loPI    C2 8434   6.757   2.116  11.060 -0.0773  0.1020 -0.1500
  528loPI    C3 8435   7.138   1.997  11.090 -0.1097  0.0661  0.1419
  528loPI   PO4 8436   6.922   2.155  10.485  0.0819  0.0826  0.3312
  528loPI   GL1 8437   6.742   2.129  10.109 -0.0254 -0.0236  0.0367
  528loPI   GL2 8438   7.030   2.003   9.970  0.0934 -0.2667  0.1297
  528loPI   C1A 8439   6.526   2.298   9.862 -0.0277  0.1339  0.3224
  528loPI   C2A 8440   6.609   2.300   9.414  0.2343 -0.0833  0.1108
  528loPI   C3A 8441   6.731   2.285   9.010 -0.0707 -0.1923 -0.1211
  528loPI   C4A 8442   6.792   2.204   8.578 -0.0708  0.1421 -0.1787
  528loPI   C5A 8443   6.715   2.287   8.148  0.2290 -0.1254  0.0328
  528loPI   C6A 8444   6.422   2.507   7.792 -0.0995 -0.2830 -0.1341
  528loPI   C1B 8445   6.856   1.896   9.559 -0.1925 -0.1980 -0.0978
  528loPI   C2B 8446   6.911   1.829   9.181 -0.2053  0.0565  0.0094
  528loPI   C3B 8447   7.043   1.814   8.894 -0.2710 -0.0259  0.3196
  528loPI   C4B 8448   7.251   2.005   8.478 -0.3397 -0.0888  0.0327
  529loPI    C1 8449   1.836   2.332  11.213 -0.0538  0.1076 -0.1226
  529loPI    C2 8450   1.887   1.972  11.380 -0.1106  0.0566 -0.2140
  529loPI    C3 8451   2.171   2.251  11.415 -0.0145 -0.0371 -0.2441
  529loPI   PO4 8452   1.797   2.308  10.884  0.1651 -0.0584  0.0042
  529loPI   GL1 8453   1.592   2.453  10.536  0.0518 -0.2187 -0.0266
  529loPI   GL2 8454   1.359   2.424  10.596  0.2918 -0.0380 -0.0977
  529loPI   C1A 8455   1.881   2.589  10.064  0.0872 -0.1559  0.0485
  529loPI   C2A 8456   1.932   2.593   9.654 -0.1968 -0.1819  0.0285
  529loPI   C3A 8457   1.843   2.539   9.186 -0.1012  0.0715 -0.1399
  529loPI   C4A 8458   1.855   2.492   8.813  0.3721  0.0808  0.0973
  529loPI   C5A 8459   1.960   2.598   8.455 -0.0938  0.0666 -0.0829
  529loPI   C6A 8460   1.759   2.617   8.056 -0.0022  0.1293  0.0870
  529loPI   C1B 8461   1.372   2.615  10.142 -0.0609  0.1160  0.2467
  529loPI   C2B 8462   1.440   2.619   9.613  0.0780  0.1694  0.0203
  529loPI   C3B 8463   1.234   2.569   9.131 -0.0151  0.2462 -0.1083
  529loPI   C4B 8464   1.355   2.576   8.682 -0.0316 -0.1933 -0.0609
  530loPI    C1 8465   6.226   1.750  10.989 -0.3098 -0.0710  0.4068
  530loPI    C2 8466   6.303   2.061  11.229  0.3266  0.0840  0.0277
  530loPI    C3 8467   6.396   1.690  11.346 -0.0248  0.0767  0.3000
  530loPI   PO4 8468   5.978   1.898  10.774  0.0758  0.0387 -0.1653
  530loPI   GL1 8469   5.839   1.862  10.368 -0.1433 -0.1168  0.1645
  530loPI   GL2 8470   6.054   2.117  10.222 -0.0101 -0.1491 -0.1615
  530loPI   C1A 8471   5.917   1.742   9.894 -0.0966 -0.0784 -0.0787
  530loPI   C2A 8472   5.880   1.697   9.439 -0.2819  0.1390 -0.0654
  530loPI   C3A 8473   6.027   1.653   8.992 -0.0254  0.0101 -0.0310
  530loPI   C4A 8474   6.066   1.664   8.599  0.0659  0.0915 -0.6094
  530loPI   C5A 8475   6.169   1.817   8.164  0.0737  0.0430  0.0423
  530loPI   C6A 8476   6.112   1.455   7.875  0.1412  0.2644 -0.0128
  530loPI   C1B 8477   6.028   2.225   9.810 -0.1168  0.0076 -0.1480
  530loPI   C2B 8478   6.098   2.163   9.383 -0.1810  0.1612  0.0482
  530loPI   C3B 8479   6.216   2.214   8.946  0.0202  0.2433  0.1074
  530loPI   C4B 8480   6.281   2.168   8.521 -0.0708  0.2632  0.1138
  531loPI    C1 8481   3.934   9.337  11.384  0.1201  0.0899 -0.0870
  531loPI    C2 8482   3.638   9.591  11.294  0.1290  0.1496  0.0485
  531loPI    C3 8483   3.619   9.373  11.628  0.2343  0.1474  0.0534
  531loPI   PO4 8484   4.077   9.288  11.128 -0.2163  0.2377  0.0710
  531loPI   GL1 8485   3.951   9.096  10.656  0.2326  0.0611  0.2716
  531loPI   GL2 8486   4.202   9.344  10.633  0.0274 -0.2985 -0.4559
  531loPI   C1A 8487   3.858   8.806  10.331 -0.2693  0.2981  0.3034
  531loPI   C2A 8488   4.000   8.694   9.997  0.1855 -0.3971  0.3881
  531loPI   C3A 8489   3.941   8.716   9.580 -0.4510  0.2349  0.4702
  531loPI   C4A 8490   3.889   8.478   9.180  0.0282  0.0391 -0.0108
  531loPI   C5A 8491   3.870   8.851   8.847  0.0429 -0.0413 -0.2179
  531loPI   C6A 8492   3.706   9.248   8.788  0.1181  0.1392 -0.1561
  531loPI   C1B 8493   4.115   9.244  10.200  0.2200  0.0911 -0.1754
  531loPI   C2B 8494   4.069   9.233   9.792  0.1303  0.0007  0.1826
  531loPI   C3B 8495   4.068   9.201   9.375 -0.3874 -0.0663 -0.1609
  531loPI   C4B 8496   4.192   9.182   8.997 -0.1001  0.0524  0.2104
  532loPI    C1 8497  11.388   7.799  11.140  0.0604 -0.0381  0.0647
  532loPI    C2 8498  11.620   8.122  11.186  0.0518 -0.0496  0.1930
  532loPI    C3 8499  11.403   7.987  11.493 -0.0699 -0.0816  0.0937
  532loPI   PO4 8500  11.324   7.822  10.829 -0.3892 -0.2514  0.1074
  532loPI   GL1 8501  11.225   7.672  10.400 -0.0467 -0.1542  0.1479
  532loPI   GL2 8502  11.501   7.669  10.137 -0.0310  0.0814 -0.3846
  532loPI   C1A 8503  10.916   7.765  10.218 -0.0183  0.0284  0.0302
  532loPI   C2A 8504  10.844   8.050   9.985 -0.1533  0.0373 -0.1550
  532loPI   C3A 8505  10.963   8.350   9.597 -0.0325 -0.1974  0.0379
  532loPI   C4A 8506  11.095   8.432   9.192  0.1387  0.1126  0.3068
  532loPI   C5A 8507  11.187   8.481   8.731  0.3791  0.1506 -0.2781
  532loPI   C6A 8508  11.067   8.173   8.476  0.0336 -0.2363 -0.0283
  532loPI   C1B 8509  11.404   7.456   9.680  0.0379  0.0510  0.1168
  532loPI   C2B 8510  11.619   7.535   9.326 -0.0505 -0.0264 -0.1228
  532loPI   C3B 8511  11.591   7.719   8.909 -0.2599 -0.1004  0.0635
  532loPI   C4B 8512  11.476   8.082   8.648 -0.3492  0.2192 -0.2450
  533loPI    C1 8513  16.408  14.978  11.265  0.0656 -0.1729  0.0501
  533loPI    C2 8514  16.244  14.811  11.589 -0.0557  0.2005  0.1873
  533loPI    C3 8515  16.090  15.148  11.438 -0.0191  0.0160 -0.2804
  533loPI   PO4 8516  16.371  14.771  11.107 -0.0118 -0.0246  0.0045
  533loPI   GL1 8517  16.481  14.631  10.749 -0.2832 -0.1231 -0.0042
  533loPI   GL2 8518  16.155  14.523  10.609 -0.2097  0.2009 -0.2253
  533loPI   C1A 8519  16.414  14.827  10.303  0.0720  0.1698 -0.1041
  533loPI   C2A 8520  16.459  14.859   9.788 -0.1263 -0.2786 -0.2603
  533loPI   C3A 8521  16.475  14.789   9.335  0.3058 -0.0343 -0.1327
  533loPI   C4A 8522  16.374  14.882   8.920 -0.0611  0.1223  0.0853
  533loPI   C5A 8523  16.227  15.036   8.487 -0.0595 -0.0231 -0.4025
  533loPI   C6A 8524  16.000  14.796   8.085  0.0058 -0.0420 -0.2505
  533loPI   C1B 8525  15.935  14.829  10.264 -0.2906 -0.0722  0.1442
  533loPI   C2B 8526  15.924  14.861   9.735 -0.1330 -0.1202  0.0568
  533loPI   C3B 8527  15.863  14.884   9.341  0.1748  0.2075  0.0586
  533loPI   C4B 8528  15.913  14.778   8.930 -0.2221  0.0998 -0.4245
  534loPI    C1 8529  11.375  12.451  11.077  0.0590  0.2047  0.1236
  534loPI    C2 8530  11.469  12.510  11.461 -0.0597 -0.2812  0.2336
  534loPI    C3 8531  11.086  12.510  11.347 -0.0136  0.1484  0.0584
  534loPI   PO4 8532  11.544  12.263  10.984  0.0666 -0.0663 -0.2243
  534loPI   GL1 8533  11.768  12.203  10.659  0.1550 -0.1272 -0.1175
  534loPI   GL2 8534  12.086  12.247  10.504  0.0928 -0.0573 -0.0261
  534loPI   C1A 8535  11.562  12.116  10.332  0.1003  0.2369 -0.0956
  534loPI   C2A 8536  11.498  12.181   9.882  0.1904 -0.0188  0.1033
  534loPI   C3A 8537  11.472  12.079   9.396 -0.2002  0.1379 -0.0416
  534loPI   C4A 8538  11.522  12.173   8.954  0.1382  0.1860 -0.4793
  534loPI   C5A 8539  11.919  12.131   8.644 -0.0366 -0.2571 -0.0568
  534loPI   C6A 8540  11.987  12.216   8.300 -0.2377 -0.1400 -0.2764
  534loPI   C1B 8541  11.997  12.278  10.088 -0.0286 -0.0265  0.0441
  534loPI   C2B 8542  12.012  12.222   9.719 -0.0331 -0.2428  0.1063
  534loPI   C3B 8543  12.007  12.100   9.207  0.2187 -0.0864 -0.1742
  534loPI   C4B 8544  12.274  11.922   8.931 -0.1870  0.2114 -0.0917
  535loPI    C1 8545  16.046   9.150  11.187 -0.2118  0.1024 -0.2387
  535loPI    C2 8546  15.690   8.984  11.110 -0.3023  0.1994 -0.0380
  535loPI    C3 8547  15.710   9.346  11.280 -0.1069  0.1817 -0.0201
  535loPI   PO4 8548  16.221   9.168  10.937  0.1622  0.1420 -0.2079
  535loPI   GL1 8549  16.289   8.833  10.692  0.0801 -0.0444  0.0552
  535loPI   GL2 8550  16.054   8.676  10.479  0.0104  0.3260  0.2053
  535loPI   C1A 8551  16.383   8.884  10.266 -0.1105 -0.1833  0.2398
  535loPI   C2A 8552  16.281   8.956   9.857 -0.0375  0.4706  0.2842
  535loPI   C3A 8553  16.280   9.002   9.417  0.3507  0.1940  0.2672
  535loPI   C4A 8554  16.303   8.996   9.045 -0.0896 -0.0598 -0.0310
  535loPI   C5A 8555  16.273   8.997   8.566 -0.1104 -0.0940 -0.2273
  535loPI   C6A 8556  15.934   8.855   8.366 -0.3869  0.0848 -0.1399
  535loPI   C1B 8557  16.002   8.496  10.036  0.2121 -0.2231 -0.1563
  535loPI   C2B 8558  16.059   8.535   9.598  0.3283 -0.5183  0.3702
  535loPI   C3B 8559  15.998   8.561   9.266 -0.2388  0.1517  0.0118
  535loPI   C4B 8560  16.072   8.586   8.858  0.1174 -0.1356  0.1007
  536loPI    C1 8561   3.898  10.270  11.355 -0.0655 -0.1048 -0.1374
  536loPI    C2 8562   3.780  10.016  11.641  0.2806  0.1064  0.2030
  536loPI    C3 8563   3.689  10.404  11.669  0.1558  0.0996 -0.0745
  536loPI   PO4 8564   3.807  10.158  11.111  0.1035  0.0586  0.0947
  536loPI   GL1 8565   3.987   9.794  10.787  0.4214 -0.3708  0.1114
  536loPI   GL2 8566   4.267   9.905  10.660  0.1476  0.0771  0.0275
  536loPI   C1A 8567   3.831   9.688  10.428 -0.0930 -0.1400 -0.0310
  536loPI   C2A 8568   3.776   9.696   9.924  0.0676 -0.2404  0.1121
  536loPI   C3A 8569   3.840   9.623   9.504 -0.0184  0.0113 -0.3631
  536loPI   C4A 8570   3.873   9.598   9.055  0.1522  0.1289  0.3800
  536loPI   C5A 8571   4.046   9.618   8.647  0.1298  0.1590  0.1188
  536loPI   C6A 8572   4.479   9.369   8.425 -0.2998  0.0665 -0.3728
  536loPI   C1B 8573   4.305   9.758  10.206 -0.1725  0.1603 -0.0260
  536loPI   C2B 8574   4.295   9.687   9.802  0.1685  0.1212 -0.0355
  536loPI   C3B 8575   4.319   9.788   9.381  0.2222  0.1663  0.1134
  536loPI   C4B 8576   4.390   9.607   9.025  0.0625 -0.1036 -0.1053
  537loPI    C1 8577   0.372   5.284  11.200  0.0354 -0.0625 -0.1524
  537loPI    C2 8578   0.453   5.654  11.330 -0.2848 -0.1532  0.3306
  537loPI    C3 8579   0.594   5.336  11.528 -0.0061 -0.2973 -0.0851
  537loPI   PO4 8580   0.294   5.363  10.909 -0.0049  0.1655 -0.2227
  537loPI   GL1 8581   0.104   5.183  10.458 -0.0287 -0.0926 -0.2865
  537loPI   GL2 8582   0.229   4.949  10.342 -0.1549 -0.0179 -0.2426
  537loPI   C1A 8583  -0.043   5.423  10.102  0.6065  0.0392  0.3434
  537loPI   C2A 8584  -0.088   5.373   9.688 -0.0701 -0.1416 -0.2213
  537loPI   C3A 8585  -0.117   5.358   9.239  0.0120 -0.0003  0.2459
  537loPI   C4A 8586  -0.056   5.323   8.714 -0.0290  0.1689 -0.1388
  537loPI   C5A 8587  -0.127   5.102   8.382 -0.0131 -0.1752 -0.0313
  537loPI   C6A 8588  -0.372   4.782   8.141  0.1879  0.1208 -0.0408
  537loPI   C1B 8589   0.204   4.955   9.858 -0.0409 -0.1905 -0.1376
  537loPI   C2B 8590   0.194   4.905   9.454  0.0868 -0.1900  0.2197
  537loPI   C3B 8591   0.133   4.956   9.040 -0.0451  0.1001  0.0885
  537loPI   C4B 8592   0.162   4.812   8.672 -0.1002 -0.0818 -0.1286
  538loPI    C1 8593   3.848  11.587  11.091 -0.2899 -0.3000 -0.2794
  538loPI    C2 8594   3.739  11.882  10.845 -0.1244 -0.1958 -0.2294
  538loPI    C3 8595   3.579  11.858  11.211  0.0928  0.0179 -0.1178
  538loPI   PO4 8596   3.894  11.409  10.899  0.0077  0.2739 -0.3695
  538loPI   GL1 8597   3.744  11.508  10.495 -0.3267  0.0258 -0.1911
  538loPI   GL2 8598   3.977  11.664  10.271  0.1378 -0.1356  0.0720
  538loPI   C1A 8599   3.460  11.451  10.124 -0.5034 -0.0638  0.0512
  538loPI   C2A 8600   3.537  11.485   9.726  0.3888 -0.1436 -0.0108
  538loPI   C3A 8601   3.493  11.480   9.337  0.1168 -0.1440  0.0932
  538loPI   C4A 8602   3.485  11.401   8.941 -0.1295  0.0967  0.1872
  538loPI   C5A 8603   3.568  11.257   8.603  0.3407 -0.0706 -0.0574
  538loPI   C6A 8604   3.249  11.182   8.283  0.2005  0.0187 -0.2743
  538loPI   C1B 8605   4.062  11.508   9.882  0.1754 -0.0328 -0.0768
  538loPI   C2B 8606   4.034  11.508   9.442 -0.0243  0.2286  0.2514
  538loPI   C3B 8607   4.002  11.419   9.006  0.0003 -0.1903 -0.0703
  538loPI   C4B 8608   4.108  11.358   8.622 -0.0753 -0.2893  0.1423
  539loPI    C1 8609  17.024  13.184  11.296  0.1448  0.2145 -0.1604
  539loPI    C2 8610  17.029  13.570  11.401 -0.0038  0.1961 -0.0837
  539loPI    C3 8611  16.728  13.334  11.520  0.1237  0.0390 -0.0689
  539loPI   PO4 8612  17.094  13.260  10.995  0.0673 -0.1063 -0.0919
  539loPI   GL1 8613  17.015  13.244  10.535  0.0715  0.2419  0.1694
  539loPI   GL2 8614  16.784  13.524  10.572  0.2002  0.2969  0.0719
  539loPI   C1A 8615  16.875  12.915  10.135  0.0059 -0.2760  0.2544
  539loPI   C2A 8616  16.803  12.927   9.748  0.0634  0.2561 -0.2076
  539loPI   C3A 8617  16.875  13.012   9.338 -0.3919  0.1552 -0.1141
  539loPI   C4A 8618  16.910  13.122   8.866  0.0648 -0.0643  0.1470
  539loPI   C5A 8619  16.612  13.133   8.566 -0.0400 -0.0059 -0.1456
  539loPI   C6A 8620  16.195  13.333   8.587 -0.1166  0.3061  0.1017
  539loPI   C1B 8621  16.624  13.331  10.187  0.0951  0.3145  0.1604
  539loPI   C2B 8622  16.653  13.473   9.725 -0.0195 -0.2773  0.0294
  539loPI   C3B 8623  16.578  13.492   9.242  0.0688  0.1374 -0.1174
  539loPI   C4B 8624  16.657  13.517   8.880  0.0314  0.0761 -0.0083
  540loPI    C1 8625   5.291  14.040  11.160  0.0559 -0.0221  0.1122
  540loPI    C2 8626   5.463  13.746  11.369  0.1818 -0.0718 -0.0583
  540loPI    C3 8627   5.619  14.114  11.377  0.2305 -0.0908 -0.1229
  540loPI   PO4 8628   5.139  13.765  10.990  0.0548  0.0847  0.1294
  540loPI   GL1 8629   5.395  13.655  10.663 -0.0923  0.0198 -0.2652
  540loPI   GL2 8630   5.668  13.668  10.453 -0.0035  0.0768 -0.0488
  540loPI   C1A 8631   5.110  13.555  10.165  0.1189  0.0768 -0.0513
  540loPI   C2A 8632   5.119  13.426   9.797  0.2542 -0.0474  0.1654
  540loPI   C3A 8633   5.235  13.425   9.374  0.2490  0.1568 -0.4191
  540loPI   C4A 8634   5.195  13.530   8.964 -0.1814  0.0741  0.2691
  540loPI   C5A 8635   5.432  13.561   8.568 -0.0820 -0.0981  0.1212
  540loPI   C6A 8636   5.894  13.492   8.511  0.0130  0.4846 -0.1441
  540loPI   C1B 8637   5.611  13.545  10.054  0.0514  0.2937  0.0325
  540loPI   C2B 8638   5.665  13.537   9.691 -0.2665 -0.0504  0.0190
  540loPI   C3B 8639   5.678  13.626   9.158  0.2355  0.0489  0.0925
  540loPI   C4B 8640   5.842  13.809   8.905  0.3143 -0.1745  0.0506
  541loPI    C1 8641  12.975  16.842  11.799  0.1106 -0.1869 -0.1959
  541loPI    C2 8642  12.596  16.719  11.757 -0.0134  0.0679  0.1322
  541loPI    C3 8643  12.873  16.469  11.903 -0.1059 -0.0456  0.1149
  541loPI   PO4 8644  13.065  16.918  11.566  0.0355 -0.1141 -0.1885
  541loPI   GL1 8645  13.200  17.028  11.194  0.1776 -0.1072  0.0118
  541loPI   GL2 8646  12.936  16.785  11.058 -0.0815  0.2939 -0.1203
  541loPI   C1A 8647  13.299  17.130  10.714  0.0365 -0.1099 -0.0908
  541loPI   C2A 8648  13.320  17.190  10.266 -0.0189  0.2856  0.0037
  541loPI   C3A 8649  13.235  17.275   9.835  0.1750 -0.1491 -0.1324
  541loPI   C4A 8650  13.206  17.299   9.366 -0.3024 -0.1452 -0.1472
  541loPI   C5A 8651  13.306  17.397   8.973 -0.4561 -0.1101  0.0363
  541loPI   C6A 8652  13.576  17.594   8.700  0.3074 -0.3524  0.5044
  541loPI   C1B 8653  13.010  16.763  10.598  0.2172 -0.0841 -0.1540
  541loPI   C2B 8654  12.995  16.685  10.210  0.0913  0.0109 -0.2266
  541loPI   C3B 8655  12.995  16.816   9.789  0.1661 -0.0186  0.0870
  541loPI   C4B 8656  12.919  16.902   9.267 -0.0592  0.2053 -0.3391
  542loPI    C1 8657   6.631  16.889  10.743  0.0033  0.0855  0.0996
  542loPI    C2 8658   6.485  16.660  11.037  0.0312  0.1024  0.1267
  542loPI    C3 8659   6.346  17.032  10.985  0.0464  0.1094  0.1364
  542loPI   PO4 8660   6.586  16.781  10.570  0.1563  0.0027  0.2727
  542loPI   GL1 8661   6.458  16.898  10.135 -0.0501  0.1369  0.0988
  542loPI   GL2 8662   6.711  17.058  10.176  0.1100 -0.2141 -0.2336
  542loPI   C1A 8663   6.355  16.888   9.677 -0.1604  0.0800 -0.1031
  542loPI   C2A 8664   6.239  16.975   9.228  0.2539 -0.0544 -0.3080
  542loPI   C3A 8665   6.172  16.819   8.905  0.0465 -0.1398  0.0307
  542loPI   C4A 8666   6.134  16.730   8.445 -0.1901 -0.0220  0.0418
  542loPI   C5A 8667   5.992  16.593   8.013 -0.1564  0.1666  0.0565
  542loPI   C6A 8668   5.897  16.541   7.666 -0.2358  0.0780 -0.0716
  542loPI   C1B 8669   6.670  17.324   9.826  0.0228 -0.1284 -0.0788
  542loPI   C2B 8670   6.699  17.186   9.389  0.0007 -0.0454  0.1257
  542loPI   C3B 8671   6.677  16.998   8.934  0.6597 -0.1981 -0.2020
  542loPI   C4B 8672   6.797  17.005   8.495 -0.0541  0.2542 -0.1897
  543loPI    C1 8673   8.931  14.809  10.663  0.0666 -0.3111 -0.1045
  543loPI    C2 8674   8.892  14.517  10.934  0.0379 -0.1746  0.0407
  543loPI    C3 8675   9.004  14.883  11.050  0.1463 -0.1458 -0.1502
  543loPI   PO4 8676   9.093  14.672  10.494 -0.1642 -0.3871  0.2564
  543loPI   GL1 8677   9.047  14.609  10.148  0.0075 -0.4755 -0.0801
  543loPI   GL2 8678   9.342  14.341  10.157  0.1389 -0.1922 -0.2138
  543loPI   C1A 8679   8.890  14.616   9.805  0.1220  0.2440  0.0938
  543loPI   C2A 8680   8.989  14.572   9.364  0.0805 -0.1350  0.0211
  543loPI   C3A 8681   9.180  14.439   9.037 -0.0123  0.0395 -0.0367
  543loPI   C4A 8682   9.143  14.436   8.633  0.1563  0.0679  0.0845
  543loPI   C5A 8683   9.025  14.236   8.261 -0.0019 -0.1171 -0.2028
  543loPI   C6A 8684   8.920  14.199   7.868 -0.1613 -0.2536  0.0326
  543loPI   C1B 8685   9.209  14.204   9.806  0.0719  0.0472 -0.1911
  543loPI   C2B 8686   9.312  14.091   9.365  0.1046 -0.1619  0.4550
  543loPI   C3B 8687   9.459  14.052   8.936  0.1720  0.0038 -0.2318
  543loPI   C4B 8688   9.534  14.061   8.501 -0.0449 -0.1468 -0.1637
  544loPI    C1 8689   6.709   6.686  11.025 -0.1653 -0.0119  0.0588
  544loPI    C2 8690   6.834   6.317  11.114  0.2839  0.1198 -0.0019
  544loPI    C3 8691   6.617   6.523  11.379 -0.0367 -0.2119  0.0017
  544loPI   PO4 8692   6.577   6.661  10.869  0.0096  0.1464  0.6178
  544loPI   GL1 8693   6.325   6.553  10.497 -0.2436 -0.2635 -0.2080
  544loPI   GL2 8694   6.085   6.663  10.484 -0.0300  0.2155  0.0185
  544loPI   C1A 8695   6.441   6.322  10.069 -0.3492  0.0688  0.1305
  544loPI   C2A 8696   6.379   6.334   9.586  0.0340 -0.1611 -0.0147
  544loPI   C3A 8697   6.335   6.275   9.110 -0.2021 -0.0993  0.0571
  544loPI   C4A 8698   6.482   6.167   8.667 -0.2423  0.1884 -0.2129
  544loPI   C5A 8699   6.892   5.921   8.681  0.3679 -0.3339  0.1392
  544loPI   C6A 8700   7.273   6.086   8.491 -0.1678  0.0551 -0.0510
  544loPI   C1B 8701   6.066   6.760  10.065  0.1334  0.0191  0.1908
  544loPI   C2B 8702   6.037   6.838   9.605  0.1493  0.1620 -0.1952
  544loPI   C3B 8703   6.128   6.710   9.157  0.2598 -0.1854  0.0534
  544loPI   C4B 8704   6.004   6.654   8.698 -0.0133 -0.2861 -0.2071
  545loPI    C1 8705  13.678   0.041  11.742 -0.0592  0.1729  0.0912
  545loPI    C2 8706  13.673  -0.314  11.925  0.1399  0.2112  0.1736
  545loPI    C3 8707  13.331  -0.119  11.858 -0.0046 -0.1492 -0.1770
  545loPI   PO4 8708  13.804  -0.038  11.529 -0.0766 -0.1150 -0.1560
  545loPI   GL1 8709  13.802  -0.332  11.187  0.2462 -0.3904  0.1316
  545loPI   GL2 8710  13.589  -0.328  10.955 -0.0033  0.0982  0.0470
  545loPI   C1A 8711  14.080  -0.309  10.778 -0.1094 -0.5577  0.1134
  545loPI   C2A 8712  13.986  -0.214  10.338 -0.0380 -0.1985 -0.0880
  545loPI   C3A 8713  13.945  -0.197   9.983  0.0106 -0.0309 -0.0317
  545loPI   C4A 8714  13.986  -0.056   9.576  0.2088  0.0550 -0.0150
  545loPI   C5A 8715  14.045  -0.066   9.053 -0.0015  0.0060  0.0171
  545loPI   C6A 8716  14.264   0.335   8.847  0.0674  0.0484  0.2411
  545loPI   C1B 8717  13.507  -0.265  10.608  0.0154  0.3133  0.3091
  545loPI   C2B 8718  13.454  -0.125  10.226  0.0548  0.1283  0.2557
  545loPI   C3B 8719  13.434  -0.149   9.741  0.1492  0.0904 -0.0432
  545loPI   C4B 8720  13.561  -0.073   9.305  0.0756  0.2372  0.1034
  546loPI    C1 8721   1.052   1.912  11.512  0.0588  0.2748 -0.1605
  546loPI    C2 8722   0.715   1.903  11.727 -0.0299 -0.1633 -0.3081
  546loPI    C3 8723   0.994   2.179  11.804 -0.2133 -0.0921  0.1308
  546loPI   PO4 8724   0.930   1.917  11.235  0.0976  0.1957 -0.1465
  546loPI   GL1 8725   0.863   1.787  10.726 -0.0702 -0.0423  0.0318
  546loPI   GL2 8726   0.994   2.085  10.713 -0.1416  0.3136 -0.2981
  546loPI   C1A 8727   0.685   1.755  10.376 -0.0053 -0.1506  0.0071
  546loPI   C2A 8728   0.682   1.733   9.880 -0.2993 -0.2674 -0.2393
  546loPI   C3A 8729   0.786   1.703   9.431  0.0808  0.1538  0.1751
  546loPI   C4A 8730   0.612   1.677   8.988  0.0392 -0.0223  0.1585
  546loPI   C5A 8731   0.717   1.835   8.529 -0.1562  0.1184  0.0408
  546loPI   C6A 8732   0.698   1.911   8.165 -0.1937 -0.1840 -0.0539
  546loPI   C1B 8733   1.138   2.148  10.290  0.3894 -0.2595 -0.0304
  546loPI   C2B 8734   1.190   2.231   9.825 -0.2470  0.1470  0.3161
  546loPI   C3B 8735   1.102   2.192   9.431  0.0800  0.2450  0.1232
  546loPI   C4B 8736   0.971   2.109   9.031 -0.2742 -0.1197  0.1111
  547loPI    C1 8737  15.649  15.140  11.191 -0.1419 -0.1129 -0.1046
  547loPI    C2 8738  15.495  15.457  11.380 -0.0996 -0.0912 -0.1064
  547loPI    C3 8739  15.603  15.134  11.589 -0.1724 -0.1170 -0.1081
  547loPI   PO4 8740  15.463  15.107  10.934 -0.1660 -0.0310  0.1835
  547loPI   GL1 8741  15.524  15.332  10.599  0.0355 -0.1422  0.1360
  547loPI   GL2 8742  15.841  15.362  10.493  0.2949 -0.0267  0.1469
  547loPI   C1A 8743  15.185  15.191  10.267 -0.0749  0.0703 -0.2725
  547loPI   C2A 8744  15.112  15.266   9.765  0.0007 -0.2048 -0.0063
  547loPI   C3A 8745  15.125  15.344   9.279 -0.1447  0.1284 -0.0455
  547loPI   C4A 8746  15.172  15.284   8.904  0.4812  0.2046 -0.4017
  547loPI   C5A 8747  15.146  15.403   8.501  0.3435  0.0765 -0.0686
  547loPI   C6A 8748  14.906  15.182   8.218 -0.3783  0.0849  0.1067
  547loPI   C1B 8749  15.735  15.259  10.012 -0.2172  0.1194  0.0987
  547loPI   C2B 8750  15.534  15.259   9.560  0.1435 -0.0314  0.0448
  547loPI   C3B 8751  15.658  15.380   9.143  0.0818  0.2503  0.0072
  547loPI   C4B 8752  15.608  15.422   8.725 -0.0824  0.2710  0.1256
  548loPI    C1 8753  16.778  14.277  10.930  0.0407 -0.1526 -0.0879
  548loPI    C2 8754  16.726  13.950  11.154  0.1659 -0.0686  0.0657
  548loPI    C3 8755  16.604  14.306  11.289  0.3038 -0.0072  0.0311
  548loPI   PO4 8756  16.982  14.244  10.814  0.1489  0.1309  0.2353
  548loPI   GL1 8757  16.952  14.498  10.464  0.0553 -0.3264  0.0618
  548loPI   GL2 8758  16.912  14.743  10.540  0.2162 -0.0879 -0.3420
  548loPI   C1A 8759  17.090  14.371  10.114 -0.3598 -0.1475 -0.0243
  548loPI   C2A 8760  17.176  14.283   9.672 -0.0349 -0.0536  0.1426
  548loPI   C3A 8761  17.169  14.316   9.223 -0.2176 -0.0067 -0.0809
  548loPI   C4A 8762  17.241  14.339   8.789 -0.0935  0.1753  0.0808
  548loPI   C5A 8763  16.933  14.358   8.416 -0.1205 -0.1048 -0.0385
  548loPI   C6A 8764  17.008  14.542   8.071 -0.1705  0.1345 -0.0866
  548loPI   C1B 8765  16.889  14.788  10.047  0.1045  0.1317 -0.1031
  548loPI   C2B 8766  16.920  14.743   9.551 -0.1930  0.0126  0.2117
  548loPI   C3B 8767  16.884  14.851   9.018 -0.1236  0.0133  0.0787
  548loPI   C4B 8768  17.027  14.772   8.670 -0.0730  0.0111 -0.2900
  549loPI    C1 8769   6.539   8.183  11.002  0.2314 -0.0414  0.0606
  549loPI    C2 8770   6.522   7.919  11.302  0.0780 -0.1844 -0.0720
  549loPI    C3 8771   6.876   8.025  11.149  0.1495 -0.1981  0.0821
  549loPI   PO4 8772   6.405   8.109  10.753  0.2208  0.1887  0.0457
  549loPI   GL1 8773   6.192   7.977  10.546 -0.0229 -0.4178 -0.1686
  549loPI   GL2 8774   5.897   8.056  10.587 -0.0291  0.1450 -0.1122
  549loPI   C1A 8775   5.981   7.657  10.337 -0.0983 -0.3651 -0.0335
  549loPI   C2A 8776   5.911   7.611   9.886 -0.1434  0.2226  0.0711
  549loPI   C3A 8777   5.882   7.654   9.423  0.0394 -0.3498 -0.1860
  549loPI   C4A 8778   5.938   7.590   9.038 -0.1714 -0.0289  0.0334
  549loPI   C5A 8779   5.868   7.553   8.581 -0.1672 -0.0030  0.0029
  549loPI   C6A 8780   5.958   7.749   8.173  0.0543 -0.3346  0.0125
  549loPI   C1B 8781   6.025   8.115  10.091  0.0627  0.0854  0.1342
  549loPI   C2B 8782   6.036   8.136   9.698  0.4723 -0.1008  0.0573
  549loPI   C3B 8783   6.078   8.155   9.229 -0.3794 -0.1631 -0.1421
  549loPI   C4B 8784   6.138   8.030   8.747  0.0804  0.0965 -0.0160
  550loPI    C1 8785  15.872  14.707  11.236 -0.1345 -0.1116  0.0944
  550loPI    C2 8786  15.484  14.651  11.319 -0.1476  0.0142  0.1190
  550loPI    C3 8787  15.750  14.685  11.616 -0.1351  0.0479  0.1039
  550loPI   PO4 8788  15.889  14.605  11.027 -0.3079 -0.2329  0.1130
  550loPI   GL1 8789  15.650  14.573  10.707 -0.0554  0.0207 -0.0345
  550loPI   GL2 8790  15.638  14.323  10.540  0.1983  0.2983 -0.2919
  550loPI   C1A 8791  15.456  14.758  10.426 -0.1722 -0.0416  0.0147
  550loPI   C2A 8792  15.373  14.877   9.959  0.0701 -0.0019 -0.1181
  550loPI   C3A 8793  15.342  14.827   9.516  0.2019 -0.1171  0.2611
  550loPI   C4A 8794  15.424  14.924   9.125 -0.1974 -0.1337  0.2787
  550loPI   C5A 8795  15.450  14.824   8.772  0.0480 -0.1284  0.2524
  550loPI   C6A 8796  15.706  14.940   8.478 -0.2963  0.1200 -0.0390
  550loPI   C1B 8797  15.683  14.393  10.081 -0.0010  0.2583  0.1925
  550loPI   C2B 8798  15.579  14.420   9.703  0.1488  0.3960  0.0813
  550loPI   C3B 8799  15.668  14.454   9.206 -0.0580  0.0355  0.0350
  550loPI   C4B 8800  15.669  14.383   8.788 -0.2763  0.0360  0.2626
  551loPI    C1 8801   9.544  12.442  10.986 -0.0237 -0.1010 -0.1777
  551loPI    C2 8802   9.929  12.543  11.025 -0.0788  0.0476 -0.0062
  551loPI    C3 8803   9.661  12.662  11.298 -0.2008 -0.2933  0.0287
  551loPI   PO4 8804   9.478  12.428  10.811 -0.0056  0.1448  0.1727
  551loPI   GL1 8805   9.683  12.266  10.367  0.0314 -0.2041 -0.2086
  551loPI   GL2 8806   9.906  12.382  10.556 -0.5184  0.3239 -0.4145
  551loPI   C1A 8807   9.560  12.353   9.976 -0.2507  0.1501  0.0560
  551loPI   C2A 8808   9.679  12.399   9.477  0.1179 -0.0049  0.1800
  551loPI   C3A 8809   9.693  12.433   9.051 -0.1203  0.0083  0.5794
  551loPI   C4A 8810   9.869  12.434   8.657  0.1478 -0.1033  0.2794
  551loPI   C5A 8811   9.744  12.375   8.337 -0.0529 -0.0261 -0.1781
  551loPI   C6A 8812   9.573  12.401   8.016 -0.0053  0.0352 -0.1589
  551loPI   C1B 8813   9.959  12.710  10.191  0.0834  0.1549 -0.0894
  551loPI   C2B 8814   9.896  12.863   9.796 -0.0418  0.4202  0.1323
  551loPI   C3B 8815   9.932  12.820   9.343 -0.1731 -0.0618  0.0212
  551loPI   C4B 8816   9.842  12.890   8.896  0.2891  0.1538  0.0216
  552loPI    C1 8817  15.185   4.012  11.208 -0.1717  0.1154 -0.1027
  552loPI    C2 8818  15.058   4.036  11.587  0.1015  0.0906 -0.0071
  552loPI    C3 8819  15.136   4.370  11.381  0.1103  0.1006  0.0124
  552loPI   PO4 8820  15.074   3.875  11.091 -0.0875  0.0558 -0.0794
  552loPI   GL1 8821  14.847   3.819  10.702  0.1384  0.0920  0.2635
  552loPI   GL2 8822  14.661   3.521  10.665 -0.1750 -0.1572 -0.4029
  552loPI   C1A 8823  14.998   3.741  10.318 -0.1231  0.0074 -0.2524
  552loPI   C2A 8824  14.977   3.778   9.872  0.0408  0.1996  0.2325
  552loPI   C3A 8825  15.090   3.755   9.533  0.0256  0.2376  0.3014
  552loPI   C4A 8826  15.074   3.740   9.039  0.1052 -0.2395 -0.0923
  552loPI   C5A 8827  15.012   3.717   8.694 -0.1120  0.0384 -0.1785
  552loPI   C6A 8828  14.858   3.969   8.311 -0.1608 -0.1647  0.0867
  552loPI   C1B 8829  14.671   3.320  10.333 -0.0799 -0.2153  0.1724
  552loPI   C2B 8830  14.628   3.351   9.894  0.1069 -0.0867 -0.1611
  552loPI   C3B 8831  14.644   3.225   9.449 -0.1820 -0.0199 -0.1945
  552loPI   C4B 8832  14.756   3.312   9.036  0.2840 -0.1094  0.5409
  553loPI    C1 8833   2.814  13.022  11.298  0.0279  0.1388 -0.0316
  553loPI    C2 8834   2.845  13.263  11.616 -0.0912  0.0790  0.0259
  553loPI    C3 8835   3.133  12.996  11.539 -0.1288 -0.0030  0.1642
  553loPI   PO4 8836   2.719  13.191  11.078 -0.0223 -0.3102 -0.1797
  553loPI   GL1 8837   2.668  13.228  10.568 -0.0304  0.1648  0.1080
  553loPI   GL2 8838   3.012  13.231  10.665 -0.1089  0.0838  0.0381
  553loPI   C1A 8839   2.579  13.169  10.121 -0.1407  0.2613  0.2747
  553loPI   C2A 8840   2.618  13.121   9.655 -0.1949 -0.3951 -0.1249
  553loPI   C3A 8841   2.644  12.989   9.222 -0.0768 -0.2090 -0.2204
  553loPI   C4A 8842   2.745  13.036   8.866  0.0419  0.0957  0.0042
  553loPI   C5A 8843   2.578  13.216   8.534 -0.1597 -0.2583  0.3090
  553loPI   C6A 8844   2.753  13.317   8.116 -0.1318 -0.1788  0.0167
  553loPI   C1B 8845   3.099  13.206  10.278  0.0299  0.1813 -0.1750
  553loPI   C2B 8846   3.209  13.175   9.811  0.4195  0.2128 -0.1102
  553loPI   C3B 8847   3.123  13.104   9.392  0.2170  0.0645 -0.2416
  553loPI   C4B 8848   3.204  13.129   8.984  0.3514  0.2588 -0.0394
  554loPI    C1 8849  12.731   4.626  11.373 -0.2892 -0.2174  0.1616
  554loPI    C2 8850  13.008   4.700  11.653 -0.0063 -0.2601 -0.1021
  554loPI    C3 8851  12.648   4.563  11.759 -0.0231  0.0547  0.2677
  554loPI   PO4 8852  12.854   4.555  11.131 -0.1253 -0.3808 -0.0512
  554loPI   GL1 8853  12.873   4.422  10.786  0.1678 -0.2285  0.1387
  554loPI   GL2 8854  13.189   4.349  10.723 -0.0618 -0.0871 -0.0299
  554loPI   C1A 8855  12.877   4.758  10.526  0.2013  0.1393  0.0795
  554loPI   C2A 8856  12.926   4.723  10.024 -0.1413  0.0663 -0.0310
  554loPI   C3A 8857  12.836   4.757   9.626  0.2137 -0.0311 -0.0352
  554loPI   C4A 8858  12.973   4.653   9.143  0.0904 -0.0370 -0.2183
  554loPI   C5A 8859  12.962   4.500   8.641  0.1319  0.0728 -0.2237
  554loPI   C6A 8860  12.957   4.181   8.235 -0.0383 -0.0759  0.0048
  554loPI   C1B 8861  13.127   4.304  10.198  0.0754  0.3572 -0.2860
  554loPI   C2B 8862  13.116   4.314   9.720  0.1708  0.0050  0.2634
  554loPI   C3B 8863  13.151   4.266   9.375  0.0386 -0.1319  0.2361
  554loPI   C4B 8864  13.205   4.247   8.992 -0.0073 -0.0179 -0.2661
  555loPI    C1 8865   0.581   7.291  11.562  0.1569 -0.0764  0.0035
  555loPI    C2 8866   0.825   7.004  11.696  0.1835 -0.0074  0.1031
  555loPI    C3 8867   0.559   7.173  11.943  0.1904  0.0768  0.0535
  555loPI   PO4 8868   0.762   7.415  11.332 -0.0833 -0.2321 -0.2115
  555loPI   GL1 8869   1.100   7.431  10.978 -0.0529 -0.0781  0.1508
  555loPI   GL2 8870   1.230   7.685  10.791 -0.2077 -0.2172  0.1891
  555loPI   C1A 8871   1.074   7.215  10.566 -0.0271  0.1524  0.2166
  555loPI   C2A 8872   1.012   7.234  10.119  0.0120  0.0746 -0.1519
  555loPI   C3A 8873   0.946   7.144   9.730 -0.0171  0.0183  0.1321
  555loPI   C4A 8874   0.992   6.992   9.352  0.1491 -0.1563  0.0925
  555loPI   C5A 8875   1.124   6.978   8.895 -0.1878 -0.0624  0.0698
  555loPI   C6A 8876   1.524   7.169   8.733  0.0422 -0.0007 -0.1506
  555loPI   C1B 8877   1.259   7.655  10.257 -0.1414 -0.2477  0.2483
  555loPI   C2B 8878   1.259   7.551   9.761  0.2384 -0.0456 -0.0250
  555loPI   C3B 8879   1.258   7.482   9.368 -0.2849  0.0678  0.0945
  555loPI   C4B 8880   1.339   7.589   8.877  0.0678 -0.0201 -0.1832
  556loPI    C1 8881   3.451  15.715  10.671  0.1641  0.0832  0.1852
  556loPI    C2 8882   3.070  15.838  10.682  0.1207 -0.0302  0.0042
  556loPI    C3 8883   3.213  15.603  10.972  0.0210 -0.0773  0.0154
  556loPI   PO4 8884   3.503  15.510  10.482  0.2236  0.2460 -0.0350
  556loPI   GL1 8885   3.543  15.504  10.139  0.2001  0.0329 -0.2883
  556loPI   GL2 8886   3.863  15.519   9.958 -0.1330  0.0651  0.0411
  556loPI   C1A 8887   3.107  15.516   9.883  0.1308 -0.3110 -0.1503
  556loPI   C2A 8888   2.876  15.447   9.507 -0.0266  0.1888 -0.1729
  556loPI   C3A 8889   2.488  15.381   9.260  0.1339 -0.0387  0.1056
  556loPI   C4A 8890   2.232  15.470   8.903 -0.3831  0.1916  0.2195
  556loPI   C5A 8891   1.819  15.432   8.657 -0.0779  0.0869 -0.2020
  556loPI   C6A 8892   1.855  15.322   8.201 -0.2452  0.3892 -0.1564
  556loPI   C1B 8893   3.769  15.165   9.808  0.0616  0.1654  0.2061
  556loPI   C2B 8894   3.621  15.058   9.421 -0.0124  0.3015  0.1163
  556loPI   C3B 8895   3.487  15.121   8.971  0.2136 -0.2378 -0.2803
  556loPI   C4B 8896   3.296  15.253   8.634 -0.0992  0.0403 -0.0822
  557loPI    C1 8897  11.949   6.872  11.092 -0.0641  0.0702 -0.2243
  557loPI    C2 8898  12.314   6.709  11.092 -0.0399  0.1235 -0.0824
  557loPI    C3 8899  12.203   6.953  11.389 -0.2128  0.0589 -0.0926
  557loPI   PO4 8900  11.931   7.007  10.808  0.1552 -0.0891 -0.1287
  557loPI   GL1 8901  11.938   7.130  10.397 -0.2109  0.1257  0.3469
  557loPI   GL2 8902  11.616   7.219  10.401  0.4098 -0.1048 -0.0353
  557loPI   C1A 8903  12.229   7.019  10.157 -0.0389 -0.0305 -0.0516
  557loPI   C2A 8904  12.320   7.002   9.727 -0.1312 -0.1854  0.2461
  557loPI   C3A 8905  12.302   7.070   9.282  0.2469 -0.2173  0.0315
  557loPI   C4A 8906  12.293   7.153   8.822 -0.0211 -0.2215  0.0266
  557loPI   C5A 8907  11.968   7.271   8.598  0.2318  0.0659  0.1498
  557loPI   C6A 8908  11.658   7.527   8.450  0.1327 -0.1427 -0.1507
  557loPI   C1B 8909  11.694   7.081   9.951  0.0840  0.1327  0.4264
  557loPI   C2B 8910  11.802   7.098   9.520 -0.1891 -0.2553  0.1708
  557loPI   C3B 8911  11.751   7.172   9.027 -0.1293 -0.2169  0.0353
  557loPI   C4B 8912  11.467   7.155   8.714 -0.2406  0.1951  0.0742
  558loPI    C1 8913  14.957   5.837  11.092 -0.0689 -0.2521  0.0164
  558loPI    C2 8914  15.203   6.132  11.206 -0.2046 -0.0621 -0.1732
  558loPI    C3 8915  15.237   5.768  11.369  0.1143 -0.0034 -0.1022
  558loPI   PO4 8916  14.817   5.865  10.851  0.1397 -0.3175  0.2059
  558loPI   GL1 8917  14.850   6.009  10.464  0.2080 -0.3650 -0.0983
  558loPI   GL2 8918  14.855   5.658  10.345  0.2534 -0.0149 -0.0927
  558loPI   C1A 8919  14.727   6.071  10.002 -0.2564  0.0010 -0.1513
  558loPI   C2A 8920  14.743   6.017   9.581  0.3100 -0.2006  0.0875
  558loPI   C3A 8921  14.825   5.910   9.141 -0.3053 -0.0854  0.2212
  558loPI   C4A 8922  14.943   5.895   8.765  0.2329 -0.2457 -0.3133
  558loPI   C5A 8923  14.803   6.216   8.430 -0.1289 -0.0633 -0.0467
  558loPI   C6A 8924  14.767   6.463   8.096 -0.3794 -0.2806 -0.2544
  558loPI   C1B 8925  14.935   5.629   9.913 -0.2294  0.0458 -0.0588
  558loPI   C2B 8926  15.019   5.562   9.497 -0.0636  0.1026  0.2240
  558loPI   C3B 8927  15.102   5.537   9.028 -0.3176 -0.0917  0.1221
  558loPI   C4B 8928  15.093   5.216   8.675 -0.3023  0.0522  0.1251
  559loPI    C1 8929   4.507   2.827  11.055  0.2221  0.2582  0.1292
  559loPI    C2 8930   4.894   2.789  11.151  0.1482 -0.1158  0.2960
  559loPI    C3 8931   4.611   2.717  11.425 -0.0530 -0.5321 -0.0087
  559loPI   PO4 8932   4.441   2.644  10.787  0.1417  0.1428  0.0567
  559loPI   GL1 8933   4.078   2.600  10.386 -0.2638 -0.0807 -0.1248
  559loPI   GL2 8934   3.923   2.351  10.194 -0.0164 -0.2072  0.2890
  559loPI   C1A 8935   4.273   2.916  10.114 -0.0373  0.3843  0.0661
  559loPI   C2A 8936   4.534   2.863   9.710  0.1550 -0.1864 -0.0406
  559loPI   C3A 8937   4.507   2.897   9.308  0.1655 -0.1786 -0.1025
  559loPI   C4A 8938   4.615   2.980   8.873 -0.2129 -0.0597  0.0078
  559loPI   C5A 8939   4.561   3.033   8.421  0.0756 -0.0316  0.0115
  559loPI   C6A 8940   4.512   3.447   8.177  0.1186 -0.0719  0.1020
  559loPI   C1B 8941   4.172   2.433   9.864  0.0463 -0.0607  0.0798
  559loPI   C2B 8942   4.240   2.359   9.430  0.2274 -0.1227 -0.2006
  559loPI   C3B 8943   4.306   2.511   9.069 -0.2814  0.0906 -0.0716
  559loPI   C4B 8944   4.202   2.694   8.668 -0.0454  0.2415  0.0081
  560loPI    C1 8945  17.674   3.066  11.506  0.0661 -0.1168  0.0570
  560loPI    C2 8946  17.534   3.217  11.849  0.1364 -0.1831  0.1153
  560loPI    C3 8947  17.494   2.827  11.771 -0.3280 -0.0850 -0.1747
  560loPI   PO4 8948  17.532   3.184  11.325  0.2321 -0.4369  0.2085
  560loPI   GL1 8949  17.489   3.087  10.851 -0.0183  0.0137 -0.1087
  560loPI   GL2 8950  17.354   2.824  10.748  0.1459  0.1160  0.0174
  560loPI   C1A 8951  17.531   3.126  10.402  0.1698  0.1421 -0.0356
  560loPI   C2A 8952  17.450   3.184  10.069  0.1539 -0.0756  0.0774
  560loPI   C3A 8953  17.383   3.270   9.646  0.0851 -0.0332 -0.1236
  560loPI   C4A 8954  17.320   3.170   9.112 -0.3338  0.1907  0.1244
  560loPI   C5A 8955  17.160   3.159   8.727  0.3515  0.0921  0.2738
  560loPI   C6A 8956  16.771   2.989   8.476 -0.4914 -0.1850  0.0146
  560loPI   C1B 8957  17.101   2.829  10.358  0.1821 -0.3147 -0.2744
  560loPI   C2B 8958  17.070   2.854   9.906 -0.0643 -0.2574  0.3208
  560loPI   C3B 8959  16.968   2.699   9.479 -0.0376 -0.0901 -0.2160
  560loPI   C4B 8960  17.002   2.734   9.029  0.0485 -0.1791 -0.0522
  561loPI    C1 8961   2.321   2.979  10.830  0.2788  0.1731  0.2498
  561loPI    C2 8962   2.209   3.230  10.539  0.0845 -0.0149  0.1599
  561loPI    C3 8963   2.017   3.232  10.891 -0.1039 -0.2275  0.0610
  561loPI   PO4 8964   2.520   2.773  10.604  0.0991  0.0886  0.0457
  561loPI   GL1 8965   2.720   2.737  10.314  0.0288  0.1359 -0.0516
  561loPI   GL2 8966   2.362   2.767  10.124 -0.3314  0.2572 -0.2578
  561loPI   C1A 8967   2.728   2.945   9.893  0.4870  0.0158 -0.2376
  561loPI   C2A 8968   2.694   2.917   9.519  0.1130 -0.2535 -0.0488
  561loPI   C3A 8969   2.642   2.937   9.123  0.3559  0.0631  0.0723
  561loPI   C4A 8970   2.557   3.000   8.674 -0.1314  0.1123  0.1812
  561loPI   C5A 8971   2.509   2.687   8.374  0.0407  0.1936  0.0022
  561loPI   C6A 8972   2.337   2.366   8.081  0.3668 -0.1297  0.4641
  561loPI   C1B 8973   2.187   3.018   9.867 -0.0899  0.1452  0.0902
  561loPI   C2B 8974   2.137   2.968   9.376  0.0801  0.4669  0.0452
  561loPI   C3B 8975   2.085   2.910   8.906  0.0626  0.0776 -0.0534
  561loPI   C4B 8976   2.103   3.083   8.519  0.0366  0.2817  0.2492
  562loPI    C1 8977  16.732   8.572  11.416 -0.1661 -0.4001  0.0809
  562loPI    C2 8978  17.077   8.433  11.564 -0.0161 -0.0243  0.0955
  562loPI    C3 8979  16.770   8.506  11.809  0.0061 -0.0418  0.1284
  562loPI   PO4 8980  16.652   8.444  11.161 -0.1331 -0.1649 -0.1324
  562loPI   GL1 8981  16.722   8.569  10.790  0.1351  0.1055 -0.0079
  562loPI   GL2 8982  16.945   8.354  10.712 -0.0368 -0.0349 -0.2282
  562loPI   C1A 8983  16.541   8.403  10.460  0.0833  0.0809 -0.3233
  562loPI   C2A 8984  16.526   8.421  10.036 -0.0009  0.1721  0.3504
  562loPI   C3A 8985  16.571   8.540   9.635 -0.0538 -0.1801 -0.0774
  562loPI   C4A 8986  16.525   8.573   9.141  0.0458 -0.0007  0.0438
  562loPI   C5A 8987  16.572   8.597   8.677 -0.3494  0.1143 -0.1180
  562loPI   C6A 8988  16.498   8.674   8.264 -0.1794  0.1721  0.1355
  562loPI   C1B 8989  17.008   8.438  10.228 -0.0586  0.0534 -0.0896
  562loPI   C2B 8990  17.096   8.524   9.818  0.2580 -0.2176 -0.2665
  562loPI   C3B 8991  17.098   8.491   9.470  0.4344 -0.1543  0.4369
  562loPI   C4B 8992  16.983   8.480   9.089  0.0369 -0.2520 -0.0219
  563loPI    C1 8993  15.210   9.437  11.385 -0.2024 -0.2354 -0.1203
  563loPI    C2 8994  15.059   9.235  11.696 -0.0560 -0.1275  0.0230
  563loPI    C3 8995  15.004   9.630  11.668 -0.1636 -0.1535 -0.1477
  563loPI   PO4 8996  15.249   9.197  11.206  0.3092 -0.3203 -0.0177
  563loPI   GL1 8997  15.372   9.231  10.724  0.1500  0.0220  0.0771
  563loPI   GL2 8998  15.658   9.321  10.765 -0.0731  0.0382  0.1561
  563loPI   C1A 8999  15.225   9.080  10.362  0.3281 -0.2278  0.0549
  563loPI   C2A 9000  15.279   9.024   9.951 -0.2549  0.0191 -0.1657
  563loPI   C3A 9001  15.343   9.019   9.502  0.0410 -0.1214  0.1061
  563loPI   C4A 9002  15.317   9.030   9.091 -0.0189 -0.0747  0.1323
  563loPI   C5A 9003  15.353   9.219   8.777 -0.0667 -0.4292  0.0616
  563loPI   C6A 9004  15.565   9.160   8.454  0.1703  0.0330 -0.0901
  563loPI   C1B 9005  15.963   9.270  10.325  0.0074  0.0466  0.0988
  563loPI   C2B 9006  16.084   9.469   9.861  0.0312  0.1902 -0.1240
  563loPI   C3B 9007  16.100   9.517   9.525 -0.3107  0.2160 -0.0077
  563loPI   C4B 9008  16.080   9.444   9.024 -0.1616  0.2631 -0.2894
  564loPI    C1 9009   1.198   8.192  11.286  0.2010 -0.1694  0.3085
  564loPI    C2 9010   1.177   8.554  11.116  0.4684 -0.2152  0.1729
  564loPI    C3 9011   1.119   8.514  11.510 -0.2436 -0.1189  0.0910
  564loPI   PO4 9012   1.362   8.079  11.120 -0.1368 -0.1507  0.0307
  564loPI   GL1 9013   1.430   8.240  10.779 -0.1462 -0.3231  0.2642
  564loPI   GL2 9014   1.255   8.518  10.603 -0.0424 -0.1497  0.0350
  564loPI   C1A 9015   1.568   8.043  10.377  0.4289  0.0019  0.1663
  564loPI   C2A 9016   1.539   8.013   9.895  0.1068 -0.1282 -0.2240
  564loPI   C3A 9017   1.528   7.984   9.483  0.3991 -0.1939  0.3991
  564loPI   C4A 9018   1.581   7.972   9.061  0.2195  0.2877  0.0932
  564loPI   C5A 9019   1.694   7.939   8.617 -0.3825 -0.1431  0.0462
  564loPI   C6A 9020   1.837   7.677   8.234 -0.1140  0.1325 -0.0620
  564loPI   C1B 9021   1.273   8.535  10.162 -0.0651  0.0074 -0.4163
  564loPI   C2B 9022   1.241   8.462   9.747 -0.1442 -0.3798  0.0466
  564loPI   C3B 9023   1.231   8.414   9.332  0.0778 -0.3359 -0.1128
  564loPI   C4B 9024   1.383   8.411   8.887  0.1596 -0.1259  0.1511
  565loPI    C1 9025   4.481  17.062  10.979  0.1054 -0.3300 -0.1323
  565loPI    C2 9026   4.505  16.725  11.193 -0.0682 -0.0967  0.2664
  565loPI    C3 9027   4.633  17.070  11.349 -0.1744  0.0750 -0.0183
  565loPI   PO4 9028   4.294  17.018  10.805  0.2530  0.1120  0.0774
  565loPI   GL1 9029   4.218  16.966  10.426  0.1339  0.0840  0.0252
  565loPI   GL2 9030   4.135  16.690  10.382  0.1267  0.1706  0.2440
  565loPI   C1A 9031   4.005  17.224  10.047  0.2595  0.1772 -0.1356
  565loPI   C2A 9032   4.079  17.412   9.692  0.0187 -0.2582  0.0472
  565loPI   C3A 9033   4.125  17.391   9.208 -0.2602 -0.0888 -0.1155
  565loPI   C4A 9034   4.086  17.465   8.750  0.0397  0.1146  0.0369
  565loPI   C5A 9035   3.966  17.158   8.465 -0.2069  0.0396  0.2270
  565loPI   C6A 9036   3.672  16.845   8.307 -0.1837  0.1767 -0.4296
  565loPI   C1B 9037   3.946  16.713   9.963  0.1121  0.2016  0.0711
  565loPI   C2B 9038   3.747  16.637   9.523  0.2166 -0.1063  0.3124
  565loPI   C3B 9039   3.682  16.426   9.090 -0.1846  0.1594 -0.0692
  565loPI   C4B 9040   3.342  16.142   8.991 -0.2039 -0.1410 -0.0556
  566loPI    C1 9041   0.060   7.292  11.004 -0.0072 -0.1767  0.1468
  566loPI    C2 9042  -0.179   7.205  11.312 -0.1405 -0.1436  0.0535
  566loPI    C3 9043  -0.240   7.032  10.956 -0.2953  0.1875 -0.0857
  566loPI   PO4 9044   0.298   7.196  11.111 -0.0705  0.2734  0.3707
  566loPI   GL1 9045   0.630   7.260  10.827 -0.2411  0.2351 -0.0072
  566loPI   GL2 9046   0.624   7.562  10.799  0.0195  0.3222 -0.2093
  566loPI   C1A 9047   0.515   7.152  10.369 -0.1904 -0.0677 -0.1575
  566loPI   C2A 9048   0.457   7.105   9.935 -0.0878 -0.3251 -0.0810
  566loPI   C3A 9049   0.485   7.030   9.499 -0.1775 -0.3034  0.0003
  566loPI   C4A 9050   0.505   7.090   9.124 -0.0287 -0.2502  0.0623
  566loPI   C5A 9051   0.629   6.962   8.725  0.1919  0.1254  0.1913
  566loPI   C6A 9052   0.903   6.869   8.380  0.1029  0.3506 -0.0106
  566loPI   C1B 9053   0.775   7.641  10.333  0.0706 -0.0249 -0.0886
  566loPI   C2B 9054   0.749   7.618   9.895  0.1540  0.0720 -0.0672
  566loPI   C3B 9055   0.728   7.541   9.476 -0.1448  0.0864  0.3075
  566loPI   C4B 9056   0.877   7.374   9.042  0.2163  0.0596 -0.0897
  567loPI    C1 9057   5.759  14.454  11.057  0.0260 -0.1262 -0.2291
  567loPI    C2 9058   5.661  14.838  11.110 -0.0520 -0.1483 -0.2128
  567loPI    C3 9059   5.731  14.604  11.427 -0.0225 -0.1522 -0.2223
  567loPI   PO4 9060   5.654  14.423  10.854  0.3139  0.1553 -0.0442
  567loPI   GL1 9061   5.259  14.455  10.521 -0.0355  0.1156  0.0403
  567loPI   GL2 9062   5.334  14.158  10.613  0.1615 -0.2890 -0.1537
  567loPI   C1A 9063   5.521  14.474  10.103 -0.3723 -0.1773  0.0305
  567loPI   C2A 9064   5.627  14.395   9.694  0.1282  0.0137 -0.0958
  567loPI   C3A 9065   5.603  14.594   9.326 -0.2286 -0.1580 -0.1624
  567loPI   C4A 9066   5.675  14.656   8.878  0.1588 -0.2504  0.1580
  567loPI   C5A 9067   5.802  14.690   8.473 -0.3444  0.0872  0.1988
  567loPI   C6A 9068   5.984  14.419   8.229  0.0317 -0.1982 -0.1155
  567loPI   C1B 9069   5.283  13.996  10.222 -0.0518  0.0504 -0.3977
  567loPI   C2B 9070   5.300  13.976   9.834 -0.2110 -0.1599 -0.1901
  567loPI   C3B 9071   5.474  14.021   9.407 -0.2005  0.0960  0.1138
  567loPI   C4B 9072   5.470  14.073   9.003  0.1121 -0.1578 -0.0528
  568loPI    C1 9073   4.221   2.214  10.810  0.1263  0.1230  0.2509
  568loPI    C2 9074   4.273   1.839  10.941  0.1185  0.1331  0.2829
  568loPI    C3 9075   3.948   2.046  11.050 -0.0360  0.0383  0.0103
  568loPI   PO4 9076   4.370   2.192  10.550 -0.3515 -0.4840 -0.1007
  568loPI   GL1 9077   4.564   2.079  10.151 -0.0981 -0.1688 -0.0398
  568loPI   GL2 9078   4.857   2.181  10.349 -0.1070 -0.0154 -0.0258
  568loPI   C1A 9079   4.481   1.997   9.716  0.1942  0.2208  0.0268
  568loPI   C2A 9080   4.624   1.964   9.275  0.0371 -0.0212 -0.1283
  568loPI   C3A 9081   4.606   2.065   8.894  0.0491 -0.2634  0.0881
  568loPI   C4A 9082   4.460   2.116   8.491  0.0444 -0.3301  0.2972
  568loPI   C5A 9083   4.251   2.322   8.204  0.0596  0.0884 -0.1916
  568loPI   C6A 9084   4.023   2.234   7.745  0.2338 -0.4237 -0.0800
  568loPI   C1B 9085   5.018   2.105   9.895 -0.0873 -0.2123  0.2336
  568loPI   C2B 9086   5.096   2.053   9.413 -0.0286 -0.1363 -0.0542
  568loPI   C3B 9087   5.130   2.038   9.009 -0.1632 -0.1964 -0.0834
  568loPI   C4B 9088   5.021   2.093   8.540  0.1372  0.0145  0.0159
  569loPI    C1 9089  16.609  12.858  11.333 -0.0580  0.1801  0.1702
  569loPI    C2 9090  16.626  12.569  11.609 -0.2455  0.0530  0.0502
  569loPI    C3 9091  16.451  12.918  11.696 -0.1565  0.0745  0.1450
  569loPI   PO4 9092  16.819  12.679  11.146 -0.2327 -0.0181 -0.0168
  569loPI   GL1 9093  16.931  12.777  10.762  0.0736 -0.2807 -0.3133
  569loPI   GL2 9094  16.689  12.816  10.640 -0.0813 -0.1518 -0.0388
  569loPI   C1A 9095  17.049  12.506  10.392  0.1681  0.0227  0.0934
  569loPI   C2A 9096  17.091  12.512   9.968 -0.0407  0.4338 -0.2082
  569loPI   C3A 9097  17.055  12.547   9.532 -0.0874 -0.1442  0.0344
  569loPI   C4A 9098  17.054  12.591   9.096 -0.0595 -0.1138 -0.0582
  569loPI   C5A 9099  17.098  12.626   8.603  0.1783 -0.1564  0.3638
  569loPI   C6A 9100  17.143  12.467   8.264 -0.3852  0.1467 -0.2314
  569loPI   C1B 9101  16.392  12.901  10.303 -0.0563  0.2256  0.1604
  569loPI   C2B 9102  16.338  12.878   9.947 -0.1109 -0.2216 -0.1041
  569loPI   C3B 9103  16.390  12.968   9.473  0.1481  0.1458 -0.4582
  569loPI   C4B 9104  16.334  13.093   9.112 -0.2688 -0.1241  0.0177
  570loPI    C1 9105   1.341   1.615  11.039 -0.2473 -0.1154 -0.0530
  570loPI    C2 9106   1.161   1.405  11.328  0.1789 -0.4359 -0.0108
  570loPI    C3 9107   1.468   1.645  11.417  0.1721 -0.3684 -0.1666
  570loPI   PO4 9108   1.389   1.442  10.819 -0.0711 -0.0863 -0.3645
  570loPI   GL1 9109   1.204   1.518  10.496 -0.0291  0.0900  0.1453
  570loPI   GL2 9110   1.469   1.308  10.335  0.2696  0.2860  0.3643
  570loPI   C1A 9111   1.279   1.723  10.143  0.0148 -0.2995  0.1269
  570loPI   C2A 9112   1.322   1.763   9.735  0.0295  0.0780  0.2783
  570loPI   C3A 9113   1.243   1.716   9.309 -0.1867  0.0001 -0.0687
  570loPI   C4A 9114   1.200   1.649   8.946 -0.2468 -0.2346 -0.0666
  570loPI   C5A 9115   1.249   2.029   8.597  0.1325  0.3292  0.0675
  570loPI   C6A 9116   0.980   2.270   8.408 -0.3258 -0.0886 -0.0388
  570loPI   C1B 9117   1.489   1.265   9.848 -0.1365 -0.0662  0.1866
  570loPI   C2B 9118   1.389   1.257   9.484 -0.3818 -0.0615  0.0040
  570loPI   C3B 9119   1.495   1.256   9.090 -0.1661  0.0972 -0.1706
  570loPI   C4B 9120   1.498   1.265   8.700  0.0772 -0.1700  0.0900
  571loPI    C1 9121   6.150   6.830  11.130 -0.2011 -0.0132 -0.2234
  571loPI    C2 9122   6.424   7.043  11.329 -0.1799 -0.1998 -0.0499
  571loPI    C3 9123   6.112   6.886  11.524 -0.2094 -0.3048 -0.1807
  571loPI   PO4 9124   6.091   6.953  10.943 -0.0913 -0.1212  0.0305
  571loPI   GL1 9125   5.925   7.231  10.613 -0.1256  0.0008  0.0214
  571loPI   GL2 9126   6.266   7.137  10.436  0.1001  0.1017  0.0044
  571loPI   C1A 9127   5.637   7.050  10.278  0.0782 -0.0709 -0.0345
  571loPI   C2A 9128   5.680   7.163   9.833 -0.2718  0.1059 -0.1256
  571loPI   C3A 9129   5.726   7.106   9.404  0.0207  0.0960 -0.0967
  571loPI   C4A 9130   5.733   7.147   9.026 -0.1325 -0.0279 -0.1904
  571loPI   C5A 9131   5.666   7.023   8.576  0.1647 -0.0258 -0.0115
  571loPI   C6A 9132   5.372   7.150   8.305  0.0457 -0.1615  0.3805
  571loPI   C1B 9133   6.247   7.271   9.938 -0.0657 -0.0726  0.0036
  571loPI   C2B 9134   6.218   7.293   9.575  0.0885 -0.1353 -0.0936
  571loPI   C3B 9135   6.300   7.233   9.134 -0.2721  0.0991  0.1631
  571loPI   C4B 9136   6.159   7.095   8.783  0.0126 -0.0922 -0.0044
  572loPI    C1 9137   4.008   2.844  10.975 -0.1540  0.0974 -0.0280
  572loPI    C2 9138   3.908   2.826  11.362 -0.0986  0.3305 -0.0012
  572loPI    C3 9139   4.121   2.531  11.197 -0.1543  0.2122  0.1362
  572loPI   PO4 9140   3.845   2.947  10.720 -0.4344  0.0399  0.0178
  572loPI   GL1 9141   3.957   3.203  10.390 -0.0356  0.3160 -0.1821
  572loPI   GL2 9142   4.029   3.459  10.496 -0.3067 -0.0221 -0.1613
  572loPI   C1A 9143   3.973   3.292   9.965 -0.2940  0.2174 -0.0329
  572loPI   C2A 9144   4.017   3.137   9.477 -0.2440  0.0064  0.0164
  572loPI   C3A 9145   4.104   3.055   9.039  0.0610  0.2373  0.0102
  572loPI   C4A 9146   3.905   3.099   8.638 -0.3653 -0.1750 -0.1699
  572loPI   C5A 9147   3.859   3.192   8.124  0.0083 -0.1160 -0.1903
  572loPI   C6A 9148   4.135   3.483   7.858  0.2587 -0.1795  0.0222
  572loPI   C1B 9149   4.149   3.756  10.171 -0.0997 -0.1640 -0.0509
  572loPI   C2B 9150   4.269   3.789   9.740 -0.0669  0.1788 -0.0960
  572loPI   C3B 9151   4.275   3.631   9.366  0.3122 -0.0889  0.2932
  572loPI   C4B 9152   4.533   3.739   9.017 -0.0675 -0.2264 -0.2124
  573loPI    C1 9153  17.615   4.424  11.193  0.0473  0.2475 -0.2033
  573loPI    C2 9154  17.347   4.298  10.924  0.0453  0.0235 -0.0986
  573loPI    C3 9155  17.384   4.108  11.274  0.1822  0.1943 -0.0186
  573loPI   PO4 9156  17.615   4.703  11.133 -0.1198  0.0414  0.1102
  573loPI   GL1 9157  17.403   4.776  10.750 -0.0859  0.0627 -0.1037
  573loPI   GL2 9158  17.472   4.969  10.507 -0.1766  0.1098  0.2046
  573loPI   C1A 9159  17.188   4.550  10.486  0.0635 -0.0512 -0.2295
  573loPI   C2A 9160  17.261   4.532  10.117  0.2231  0.0336 -0.0311
  573loPI   C3A 9161  17.220   4.444   9.725  0.0622  0.4597 -0.1431
  573loPI   C4A 9162  17.229   4.511   9.382  0.2722  0.3852  0.2254
  573loPI   C5A 9163  17.136   4.465   9.019  0.1752 -0.3565 -0.1545
  573loPI   C6A 9164  17.233   4.483   8.475  0.1292 -0.2119  0.0761
  573loPI   C1B 9165  17.522   4.956  10.013 -0.0522 -0.1763 -0.0526
  573loPI   C2B 9166  17.530   4.927   9.608  0.1152 -0.0927  0.0739
  573loPI   C3B 9167  17.394   4.974   9.174 -0.2945  0.0706 -0.1120
  573loPI   C4B 9168  17.404   5.028   8.727 -0.1265  0.0928 -0.2607
  574loPI    C1 9169   1.668   8.434  11.550  0.1047  0.0264 -0.0771
  574loPI    C2 9170   1.931   8.672  11.735 -0.0613 -0.0649  0.2858
  574loPI    C3 9171   1.857   8.306  11.879 -0.2901 -0.0891  0.1117
  574loPI   PO4 9172   1.688   8.468  11.325 -0.0693  0.0665  0.0613
  574loPI   GL1 9173   1.698   8.587  10.957 -0.1648 -0.2645 -0.0892
  574loPI   GL2 9174   1.790   8.529  10.598  0.0450 -0.0486  0.0221
  574loPI   C1A 9175   1.624   8.979  10.671 -0.0189 -0.0580  0.0460
  574loPI   C2A 9176   1.512   8.977  10.240 -0.0842  0.1071  0.5395
  574loPI   C3A 9177   1.450   8.902   9.808  0.0661  0.1066  0.4826
  574loPI   C4A 9178   1.536   8.808   9.418 -0.5932 -0.0972 -0.0542
  574loPI   C5A 9179   1.585   8.903   8.978  0.2669 -0.1060 -0.2911
  574loPI   C6A 9180   1.835   9.262   8.704  0.0290 -0.0080  0.1325
  574loPI   C1B 9181   1.768   8.472  10.172  0.2737 -0.1612 -0.0358
  574loPI   C2B 9182   1.809   8.502   9.754 -0.0400 -0.0077 -0.0820
  574loPI   C3B 9183   1.827   8.353   9.319  0.0178 -0.0133  0.1810
  574loPI   C4B 9184   1.919   8.450   8.852  0.1397  0.2891  0.0599
  575loPI    C1 9185   5.170   5.534  10.914 -0.0218 -0.0090  0.0491
  575loPI    C2 9186   5.059   5.801  11.190  0.0954  0.0506  0.0391
  575loPI    C3 9187   5.179   5.925  10.829  0.2300 -0.0106  0.0624
  575loPI   PO4 9188   4.990   5.316  10.900  0.2285 -0.0212 -0.0168
  575loPI   GL1 9189   4.925   5.248  10.441  0.2323  0.1181 -0.0376
  575loPI   GL2 9190   4.703   5.364  10.435  0.1085 -0.0970  0.2200
  575loPI   C1A 9191   4.925   5.225  10.014 -0.0726 -0.2500 -0.0021
  575loPI   C2A 9192   5.001   5.239   9.540  0.1031  0.0262 -0.0367
  575loPI   C3A 9193   4.908   5.115   9.123  0.1307  0.1061  0.0260
  575loPI   C4A 9194   4.628   4.963   8.767  0.1249  0.1982  0.1034
  575loPI   C5A 9195   4.403   4.731   8.406  0.0249  0.0325 -0.1439
  575loPI   C6A 9196   4.517   4.300   8.217 -0.1951  0.0160 -0.0134
  575loPI   C1B 9197   4.459   5.212  10.085 -0.1359  0.1488 -0.1027
  575loPI   C2B 9198   4.391   5.180   9.728 -0.2260 -0.0034  0.0057
  575loPI   C3B 9199   4.355   5.202   9.212 -0.2599 -0.0595  0.0093
  575loPI   C4B 9200   4.150   5.064   8.833 -0.2221 -0.0123  0.1517
  576loPI    C1 9201   8.657  15.277  10.933 -0.2147  0.0155 -0.3191
  576loPI    C2 9202   8.490  15.640  10.922 -0.0230  0.1296  0.2198
  576loPI    C3 9203   8.415  15.395  11.229 -0.0445 -0.2386 -0.0731
  576loPI   PO4 9204   8.828  15.347  10.715 -0.0666 -0.1251 -0.1079
  576loPI   GL1 9205   8.953  15.447  10.248 -0.2685  0.0118  0.1686
  576loPI   GL2 9206   8.996  15.115  10.299 -0.2543  0.2502 -0.0928
  576loPI   C1A 9207   8.839  15.436   9.915  0.2085  0.3776  0.0832
  576loPI   C2A 9208   8.906  15.424   9.478 -0.3069 -0.4215 -0.0317
  576loPI   C3A 9209   8.935  15.442   9.149 -0.0677 -0.0521 -0.0048
  576loPI   C4A 9210   8.971  15.323   8.698  0.3479  0.1083 -0.0131
  576loPI   C5A 9211   8.547  15.350   8.408 -0.0516 -0.0797  0.1080
  576loPI   C6A 9212   8.262  15.284   8.158  0.2939  0.1257  0.1330
  576loPI   C1B 9213   9.171  15.032   9.885  0.0302 -0.2478 -0.3883
  576loPI   C2B 9214   9.158  15.009   9.431  0.2386  0.2122 -0.1211
  576loPI   C3B 9215   9.368  14.985   9.040 -0.1925 -0.1758  0.3510
  576loPI   C4B 9216   9.339  14.951   8.627  0.0687  0.0762  0.1184
  577loPI    C1 9217   3.682  16.612  10.570 -0.2710 -0.1825  0.1903
  577loPI    C2 9218   3.664  16.429  10.214 -0.0729 -0.1668  0.1709
  577loPI    C3 9219   3.771  16.223  10.540  0.2231 -0.0722  0.1364
  577loPI   PO4 9220   3.530  16.813  10.499  0.3204  0.0959 -0.2257
  577loPI   GL1 9221   3.631  17.072  10.226  0.0724 -0.0052  0.2434
  577loPI   GL2 9222   3.417  16.822   9.975  0.0101  0.0303 -0.1931
  577loPI   C1A 9223   3.640  17.134   9.656 -0.0752  0.0823  0.1395
  577loPI   C2A 9224   3.660  17.162   9.314 -0.0442 -0.1112 -0.0021
  577loPI   C3A 9225   3.538  17.225   8.891  0.1501 -0.2194  0.1499
  577loPI   C4A 9226   3.499  17.295   8.402 -0.2140 -0.1011 -0.0578
  577loPI   C5A 9227   3.193  17.247   7.953 -0.0123  0.1536 -0.1448
  577loPI   C6A 9228   3.005  16.949   7.583  0.3820  0.1679  0.2798
  577loPI   C1B 9229   3.188  16.839   9.568 -0.0923  0.0861  0.0524
  577loPI   C2B 9230   3.303  16.779   9.108 -0.1982  0.1014 -0.2042
  577loPI   C3B 9231   3.178  16.684   8.773  0.0600  0.1748  0.0594
  577loPI   C4B 9232   3.445  16.420   8.602 -0.0938  0.2369 -0.0593
  578loPI    C1 9233   0.952   6.023  11.136 -0.0832  0.1023 -0.0403
  578loPI    C2 9234   0.743   6.054  11.476 -0.0897 -0.2259 -0.0112
  578loPI    C3 9235   1.141   6.100  11.480 -0.1054 -0.0870  0.0150
  578loPI   PO4 9236   0.649   5.984  10.959 -0.0524 -0.0035 -0.2188
  578loPI   GL1 9237   0.421   5.826  10.738  0.2182 -0.3008  0.1447
  578loPI   GL2 9238   0.572   5.565  10.549 -0.2422 -0.1424  0.3421
  578loPI   C1A 9239   0.198   5.860  10.329 -0.0706 -0.2366 -0.1086
  578loPI   C2A 9240   0.243   5.842   9.882  0.0750 -0.1608 -0.2908
  578loPI   C3A 9241   0.161   5.775   9.515  0.1950 -0.2811 -0.1572
  578loPI   C4A 9242   0.039   5.802   9.058 -0.4071 -0.0369  0.4705
  578loPI   C5A 9243   0.157   5.770   8.606 -0.1148  0.1472 -0.0761
  578loPI   C6A 9244   0.190   5.495   8.286 -0.4796 -0.1059  0.3085
  578loPI   C1B 9245   0.478   5.430  10.110 -0.0416  0.4188  0.5726
  578loPI   C2B 9246   0.455   5.389   9.716  0.0140 -0.0391  0.2204
  578loPI   C3B 9247   0.417   5.354   9.354 -0.2212  0.1982  0.1781
  578loPI   C4B 9248   0.509   5.187   8.849  0.1791 -0.1652  0.1136
  579loPI    C1 9249   9.626   3.125  10.801  0.1858 -0.1516  0.3084
  579loPI    C2 9250   9.569   2.755  10.940 -0.1405 -0.2091  0.0362
  579loPI    C3 9251   9.257   3.000  10.892  0.0374  0.0020 -0.0606
  579loPI   PO4 9252   9.856   3.100  10.632  0.0761  0.1496  0.1725
  579loPI   GL1 9253   9.888   3.156  10.250 -0.0462  0.0297  0.5432
  579loPI   GL2 9254  10.175   3.173  10.246  0.0149 -0.0895 -0.0331
  579loPI   C1A 9255   9.722   3.114   9.840 -0.1566  0.4392  0.1257
  579loPI   C2A 9256   9.643   2.978   9.387 -0.1802 -0.3541  0.0637
  579loPI   C3A 9257   9.647   3.062   9.039 -0.1515 -0.0338 -0.2059
  579loPI   C4A 9258   9.579   3.055   8.601  0.3445 -0.2478 -0.1114
  579loPI   C5A 9259   9.556   2.843   8.159  0.4388  0.0369  0.2771
  579loPI   C6A 9260   9.602   2.707   7.765 -0.0971 -0.1406 -0.0565
  579loPI   C1B 9261  10.202   3.107   9.822 -0.1485 -0.0855  0.2350
  579loPI   C2B 9262  10.153   3.082   9.335 -0.1474 -0.1246 -0.2729
  579loPI   C3B 9263  10.125   3.126   8.916  0.2094  0.2753  0.0256
  579loPI   C4B 9264  10.055   2.996   8.525 -0.1864 -0.1160 -0.1563
  580loPI    C1 9265  11.397   4.073  11.399 -0.0396  0.0590  0.0979
  580loPI    C2 9266  11.022   3.949  11.463  0.0026 -0.1288 -0.0107
  580loPI    C3 9267  11.318   3.682  11.427  0.1331  0.0146 -0.0151
  580loPI   PO4 9268  11.435   4.145  11.106  0.1194  0.2176  0.0429
  580loPI   GL1 9269  11.731   4.163  10.676 -0.0946  0.1321 -0.1586
  580loPI   GL2 9270  11.438   4.037  10.590 -0.0244  0.0056  0.0040
  580loPI   C1A 9271  11.815   3.996  10.196 -0.2116 -0.0970  0.1278
  580loPI   C2A 9272  11.838   3.922   9.753  0.0530 -0.0643  0.2391
  580loPI   C3A 9273  11.782   3.921   9.266  0.0856  0.2083  0.1662
  580loPI   C4A 9274  11.832   3.890   8.884  0.0623 -0.0822  0.1257
  580loPI   C5A 9275  11.671   3.847   8.446  0.0680 -0.3178 -0.0328
  580loPI   C6A 9276  11.377   3.646   8.139  0.0908 -0.1897 -0.0570
  580loPI   C1B 9277  11.315   4.000  10.079  0.2444 -0.1505  0.1718
  580loPI   C2B 9278  11.330   3.957   9.653  0.0600 -0.0410 -0.1435
  580loPI   C3B 9279  11.273   3.916   9.271 -0.0651 -0.2376  0.1632
  580loPI   C4B 9280  11.260   3.936   8.811 -0.3303  0.1281 -0.0711
  581loPI    C1 9281  16.079   2.326  11.265 -0.0146  0.0173  0.3069
  581loPI    C2 9282  16.396   2.540  11.384 -0.1089  0.4451 -0.1760
  581loPI    C3 9283  16.068   2.523  11.613  0.1961  0.1253  0.2541
  581loPI   PO4 9284  16.009   2.368  11.084 -0.3424  0.2437 -0.1869
  581loPI   GL1 9285  16.022   2.324  10.667  0.2048  0.0491  0.1640
  581loPI   GL2 9286  15.810   2.468  10.455  0.0826  0.4401  0.1207
  581loPI   C1A 9287  16.296   2.440  10.239  0.1636 -0.1380 -0.0268
  581loPI   C2A 9288  16.193   2.487   9.799  0.0483  0.1003 -0.2946
  581loPI   C3A 9289  16.144   2.328   9.386  0.1375  0.0287  0.0134
  581loPI   C4A 9290  16.237   2.307   8.929 -0.0305 -0.2390  0.0199
  581loPI   C5A 9291  16.312   2.363   8.524 -0.0184  0.0176 -0.7046
  581loPI   C6A 9292  16.518   2.504   8.287 -0.1559 -0.1121  0.0426
  581loPI   C1B 9293  15.816   2.353  10.064 -0.0162  0.0249  0.1201
  581loPI   C2B 9294  15.684   2.359   9.702 -0.0447  0.2644 -0.1504
  581loPI   C3B 9295  15.613   2.375   9.270  0.1508 -0.1644  0.0161
  581loPI   C4B 9296  15.722   2.345   8.901 -0.0591  0.0519 -0.3209
  582loPI    C1 9297   2.969   0.477  10.874  0.2410  0.1654  0.0215
  582loPI    C2 9298   3.361   0.434  10.802  0.2560  0.1942  0.0859
  582loPI    C3 9299   3.219   0.385  11.173  0.1595 -0.0871  0.0138
  582loPI   PO4 9300   2.843   0.398  10.638 -0.4082 -0.0399  0.1141
  582loPI   GL1 9301   2.790   0.632  10.251 -0.1726  0.2218  0.0958
  582loPI   GL2 9302   2.566   0.748  10.397  0.0285 -0.1692  0.2115
  582loPI   C1A 9303   2.772   0.738   9.726  0.1174 -0.0138  0.1489
  582loPI   C2A 9304   2.695   0.674   9.284  0.1812 -0.0382  0.1291
  582loPI   C3A 9305   2.708   0.801   8.865 -0.0734 -0.2278 -0.1149
  582loPI   C4A 9306   2.600   0.659   8.419  0.3310 -0.0297  0.4017
  582loPI   C5A 9307   2.467   0.412   8.116  0.1817 -0.0169 -0.1869
  582loPI   C6A 9308   2.033   0.313   7.887  0.2364  0.2940 -0.3980
  582loPI   C1B 9309   2.215   0.706  10.020  0.1195 -0.3397 -0.1638
  582loPI   C2B 9310   2.255   0.769   9.614 -0.2566 -0.0612 -0.0613
  582loPI   C3B 9311   2.196   0.774   9.174 -0.0013  0.1047 -0.0826
  582loPI   C4B 9312   2.211   0.783   8.714  0.2045  0.2442  0.0762
  583loPI    C1 9313   2.349  17.668  10.843 -0.1840 -0.1635  0.0295
  583loPI    C2 9314   2.436  17.993  11.060  0.2394 -0.2711  0.0277
  583loPI    C3 9315   2.100  17.789  11.133 -0.0283  0.1592  0.0332
  583loPI   PO4 9316   2.276  17.725  10.600  0.1621 -0.2141  0.1337
  583loPI   GL1 9317   2.230  18.029  10.209 -0.0265  0.2765 -0.4356
  583loPI   GL2 9318   2.392  18.168  10.415  0.1551  0.1309 -0.0676
  583loPI   C1A 9319   2.103  17.789   9.857 -0.0912  0.0338  0.2643
  583loPI   C2A 9320   2.168  17.676   9.503 -0.0033  0.1159 -0.0218
  583loPI   C3A 9321   2.184  17.663   9.089  0.1703 -0.0678  0.0270
  583loPI   C4A 9322   2.118  17.800   8.775 -0.3023 -0.0375  0.1974
  583loPI   C5A 9323   2.159  17.833   8.390 -0.2100  0.3241  0.1389
  583loPI   C6A 9324   2.376  17.786   7.957 -0.0397 -0.0105 -0.1021
  583loPI   C1B 9325   2.533  18.226   9.884  0.1732 -0.1173  0.0071
  583loPI   C2B 9326   2.416  18.090   9.598 -0.0783  0.2472 -0.0072
  583loPI   C3B 9327   2.418  18.109   9.273 -0.0394 -0.2262  0.1055
  583loPI   C4B 9328   2.386  18.193   8.888 -0.0568  0.0598  0.2787
  584loPI    C1 9329   6.434   2.676  10.724  0.1011  0.0315 -0.1551
  584loPI    C2 9330   6.494   2.590  11.110 -0.0037 -0.0028 -0.1462
  584loPI    C3 9331   6.265   2.901  11.008  0.1266  0.0828 -0.1804
  584loPI   PO4 9332   6.621   2.567  10.577 -0.0418  0.1767  0.2629
  584loPI   GL1 9333   6.776   2.907  10.303 -0.0823 -0.3285  0.0462
  584loPI   GL2 9334   6.975   3.176  10.338  0.1190  0.0616  0.1199
  584loPI   C1A 9335   6.642   2.781   9.885  0.0035 -0.0167 -0.0654
  584loPI   C2A 9336   6.826   2.745   9.422 -0.1750  0.3922 -0.2580
  584loPI   C3A 9337   6.931   2.763   8.999  0.2641  0.1071 -0.1415
  584loPI   C4A 9338   6.935   2.748   8.516 -0.1560  0.0048 -0.0687
  584loPI   C5A 9339   6.964   2.693   8.049 -0.0006 -0.3330 -0.2035
  584loPI   C6A 9340   6.865   2.973   7.719 -0.1607 -0.2785 -0.1385
  584loPI   C1B 9341   6.985   3.283  10.009  0.2911 -0.2601  0.3229
  584loPI   C2B 9342   7.055   3.167   9.607 -0.0151  0.3751  0.1761
  584loPI   C3B 9343   7.140   3.197   9.263  0.0730 -0.0115  0.0715
  584loPI   C4B 9344   7.145   3.320   8.834 -0.0812 -0.1718 -0.1570
  585loPI    C1 9345   7.675  15.674  11.127 -0.0085 -0.0925 -0.0001
  585loPI    C2 9346   8.054  15.801  11.124  0.0524 -0.2692  0.0410
  585loPI    C3 9347   7.842  15.814  11.462  0.0337 -0.2070  0.0271
  585loPI   PO4 9348   7.602  15.658  10.877  0.0368 -0.2553  0.0524
  585loPI   GL1 9349   7.450  15.525  10.528 -0.3312 -0.0771 -0.2966
  585loPI   GL2 9350   7.407  15.865  10.428 -0.1935 -0.1133  0.0506
  585loPI   C1A 9351   7.650  15.481  10.127 -0.0049  0.0365 -0.3942
  585loPI   C2A 9352   7.860  15.316   9.741  0.1445 -0.1535 -0.0133
  585loPI   C3A 9353   7.866  15.325   9.330 -0.2466  0.2348  0.2088
  585loPI   C4A 9354   8.020  15.275   8.952 -0.0257  0.0177 -0.0922
  585loPI   C5A 9355   8.088  15.035   8.565 -0.1610 -0.2256 -0.1134
  585loPI   C6A 9356   8.224  14.803   8.294 -0.0757  0.1873 -0.3473
  585loPI   C1B 9357   7.516  15.951  10.049 -0.0692 -0.0519 -0.0673
  585loPI   C2B 9358   7.577  15.788   9.577 -0.3531 -0.1317  0.1190
  585loPI   C3B 9359   7.546  15.829   9.214 -0.1486 -0.1007  0.0449
  585loPI   C4B 9360   7.666  15.565   8.787 -0.1517 -0.0024 -0.0062
  586loPI    C1 9361   9.725   5.908  10.888 -0.1159 -0.0335 -0.1303
  586loPI    C2 9362   9.484   5.753  11.167 -0.2782  0.0839 -0.2034
  586loPI    C3 9363   9.625   6.125  11.209  0.1140 -0.0795 -0.0258
  586loPI   PO4 9364   9.525   5.826  10.685 -0.4339 -0.3019  0.1025
  586loPI   GL1 9365   9.607   5.902  10.251  0.0609  0.1409 -0.2035
  586loPI   GL2 9366   9.335   6.143  10.336 -0.0946  0.1978 -0.1099
  586loPI   C1A 9367   9.623   5.899   9.843 -0.1737  0.0832 -0.5817
  586loPI   C2A 9368   9.508   5.966   9.448 -0.1310  0.0001 -0.1564
  586loPI   C3A 9369   9.479   5.947   8.990 -0.0915 -0.0283  0.1284
  586loPI   C4A 9370   9.446   5.939   8.585  0.0168 -0.3996 -0.0003
  586loPI   C5A 9371   9.261   5.683   8.329  0.0613  0.0245 -0.0315
  586loPI   C6A 9372   9.104   5.602   8.034  0.2283  0.0698 -0.2755
  586loPI   C1B 9373   9.271   6.269  10.003 -0.4123 -0.2308  0.1246
  586loPI   C2B 9374   9.153   6.379   9.579  0.5084 -0.0015  0.3846
  586loPI   C3B 9375   9.129   6.379   9.174  0.2939 -0.2037  0.2495
  586loPI   C4B 9376   9.229   6.411   8.760 -0.5606  0.1077 -0.0611
  587loPI    C1 9377   7.362   2.948  10.878 -0.0301 -0.2684  0.0945
  587loPI    C2 9378   7.663   2.710  10.989  0.1791 -0.0118  0.0889
  587loPI    C3 9379   7.563   3.024  11.216  0.0501  0.0224 -0.0147
  587loPI   PO4 9380   7.299   2.977  10.638 -0.2220  0.2125 -0.2061
  587loPI   GL1 9381   7.464   3.091  10.194 -0.0087  0.5658  0.3528
  587loPI   GL2 9382   7.244   2.827   9.990 -0.0853 -0.0242 -0.1023
  587loPI   C1A 9383   7.545   3.199   9.845 -0.0298  0.0785  0.2447
  587loPI   C2A 9384   7.609   3.283   9.426  0.1759 -0.0630 -0.4287
  587loPI   C3A 9385   7.620   3.386   8.985  0.1238 -0.0045  0.2283
  587loPI   C4A 9386   7.674   3.416   8.576 -0.0976 -0.1533 -0.0508
  587loPI   C5A 9387   7.679   3.395   8.099 -0.2923 -0.1240 -0.1017
  587loPI   C6A 9388   7.644   3.375   7.649  0.0694 -0.0684  0.0652
  587loPI   C1B 9389   7.105   2.440   9.815 -0.0897 -0.0945 -0.0436
  587loPI   C2B 9390   7.138   2.243   9.425  0.0221  0.2635 -0.1064
  587loPI   C3B 9391   7.221   2.396   9.065 -0.0660 -0.0810  0.0656
  587loPI   C4B 9392   7.296   2.584   8.762  0.1033  0.1615  0.1724
  588loPI    C1 9393  13.847  15.365  11.587  0.2366 -0.0369  0.1107
  588loPI    C2 9394  14.165  15.608  11.562 -0.0093  0.3020  0.2020
  588loPI    C3 9395  13.899  15.656  11.857 -0.2847  0.1927 -0.0232
  588loPI   PO4 9396  13.853  15.327  11.287  0.0349 -0.2548  0.0390
  588loPI   GL1 9397  13.845  15.329  10.880 -0.1814 -0.0800  0.2336
  588loPI   GL2 9398  13.803  15.075  10.682 -0.2281 -0.0828 -0.0595
  588loPI   C1A 9399  13.940  15.757  10.554 -0.0882  0.3543 -0.0891
  588loPI   C2A 9400  13.884  15.776  10.092 -0.0576 -0.2672 -0.1119
  588loPI   C3A 9401  13.946  15.803   9.706  0.1903 -0.1124  0.1615
  588loPI   C4A 9402  13.923  16.005   9.374 -0.1625  0.2070  0.1310
  588loPI   C5A 9403  13.908  15.948   8.962 -0.0594  0.1446  0.0105
  588loPI   C6A 9404  13.612  16.171   8.590  0.1020  0.2671  0.2664
  588loPI   C1B 9405  13.874  14.973  10.231  0.3456  0.0538 -0.4730
  588loPI   C2B 9406  13.784  14.923   9.794  0.0845 -0.3179  0.0212
  588loPI   C3B 9407  13.842  15.017   9.400  0.1443  0.1915  0.1727
  588loPI   C4B 9408  13.673  15.070   9.007 -0.3674  0.1089  0.2482
  589loPI    C1 9409   1.774  12.938  11.195  0.2106  0.0990  0.1066
  589loPI    C2 9410   1.527  12.846  11.496  0.0732 -0.0600 -0.0520
  589loPI    C3 9411   1.908  12.943  11.571  0.0963 -0.3019  0.1573
  589loPI   PO4 9412   1.544  13.046  11.019 -0.3453 -0.2787  0.1998
  589loPI   GL1 9413   1.330  13.152  10.660 -0.1536 -0.0523 -0.0735
  589loPI   GL2 9414   1.004  13.157  10.481 -0.1225  0.2720  0.0644
  589loPI   C1A 9415   1.466  12.918  10.237 -0.1209 -0.1040  0.2928
  589loPI   C2A 9416   1.491  12.989   9.807  0.2969  0.0979 -0.3093
  589loPI   C3A 9417   1.635  12.940   9.439 -0.0176  0.2425  0.2193
  589loPI   C4A 9418   1.750  12.829   8.977 -0.0875  0.0273 -0.0585
  589loPI   C5A 9419   1.856  12.463   8.692  0.0684 -0.0842 -0.0807
  589loPI   C6A 9420   1.679  12.261   8.293 -0.0467  0.2383  0.0989
  589loPI   C1B 9421   1.012  13.043  10.056  0.0184  0.3507  0.1270
  589loPI   C2B 9422   1.008  12.928   9.632 -0.0885 -0.3641 -0.0862
  589loPI   C3B 9423   1.154  12.899   9.206 -0.0996 -0.5931 -0.0737
  589loPI   C4B 9424   1.164  12.843   8.776 -0.0450  0.2033  0.1885
  590loPI    C1 9425  16.698   7.717  11.460 -0.1209  0.0105  0.1171
  590loPI    C2 9426  17.003   7.941  11.589  0.0362  0.1359 -0.4472
  590loPI    C3 9427  16.648   8.110  11.517 -0.1037  0.0338 -0.0264
  590loPI   PO4 9428  16.844   7.558  11.223  0.5208  0.1722  0.0967
  590loPI   GL1 9429  16.846   7.477  10.822 -0.0185  0.0788 -0.0220
  590loPI   GL2 9430  17.213   7.359  10.911  0.4263  0.2030  0.1753
  590loPI   C1A 9431  16.995   7.652  10.430  0.2747 -0.2379  0.3667
  590loPI   C2A 9432  17.078   7.601   9.902 -0.1668  0.3089 -0.0503
  590loPI   C3A 9433  17.082   7.652   9.492 -0.0149  0.4422 -0.1157
  590loPI   C4A 9434  16.970   7.522   8.999  0.1462 -0.3470  0.0904
  590loPI   C5A 9435  17.120   7.561   8.546  0.3643  0.0640  0.0196
  590loPI   C6A 9436  17.414   7.266   8.338  0.1840  0.1405  0.0029
  590loPI   C1B 9437  17.424   7.548  10.528  0.0355  0.3196  0.0232
  590loPI   C2B 9438  17.627   7.586  10.043 -0.0282  0.0478 -0.0021
  590loPI   C3B 9439  17.543   7.634   9.645 -0.0511  0.3819 -0.0181
  590loPI   C4B 9440  17.541   7.562   9.242 -0.1654 -0.0456 -0.0489
  591loPI    C1 9441   1.068  16.374  10.981  0.1745  0.1876  0.0132
  591loPI    C2 9442   1.367  16.144  11.114  0.0383  0.0519  0.0884
  591loPI    C3 9443   1.207  16.422  11.353 -0.0884 -0.0722  0.1493
  591loPI   PO4 9444   1.139  16.457  10.760 -0.1204  0.0095 -0.1991
  591loPI   GL1 9445   0.965  16.552  10.386 -0.0709  0.0473 -0.1649
  591loPI   GL2 9446   1.153  16.847  10.260 -0.2180  0.1253  0.1477
  591loPI   C1A 9447   0.817  16.480   9.989 -0.1475  0.0012 -0.0374
  591loPI   C2A 9448   0.760  16.439   9.618 -0.2522 -0.1491  0.5023
  591loPI   C3A 9449   0.779  16.454   9.163  0.2981 -0.3472 -0.0328
  591loPI   C4A 9450   0.703  16.545   8.656 -0.2055 -0.0956  0.2292
  591loPI   C5A 9451   1.063  16.569   8.335 -0.0735  0.0542  0.2080
  591loPI   C6A 9452   1.443  16.756   8.182  0.0407  0.0494  0.0779
  591loPI   C1B 9453   1.088  16.896   9.810 -0.1060 -0.1312 -0.0300
  591loPI   C2B 9454   1.118  16.815   9.363  0.1348 -0.0355  0.4249
  591loPI   C3B 9455   1.120  16.864   8.840  0.0459 -0.2880  0.0274
  591loPI   C4B 9456   1.106  17.045   8.388 -0.0318 -0.1430 -0.0387
  592loPI    C1 9457  16.480   6.080  11.113 -0.1513 -0.0605 -0.0578
  592loPI    C2 9458  16.268   6.314  11.358 -0.1289 -0.0260 -0.0712
  592loPI    C3 9459  16.108   5.975  11.218 -0.2110  0.0482 -0.1583
  592loPI   PO4 9460  16.523   6.127  10.771  0.0387  0.3710  0.0420
  592loPI   GL1 9461  16.552   6.014  10.453  0.2824 -0.0195  0.3108
  592loPI   GL2 9462  16.600   5.736  10.390  0.1935 -0.1765 -0.0856
  592loPI   C1A 9463  16.759   6.298  10.193 -0.1626 -0.2243  0.1128
  592loPI   C2A 9464  16.733   6.317   9.786  0.1387  0.0931  0.0625
  592loPI   C3A 9465  16.688   6.205   9.383 -0.1985 -0.1229  0.0386
  592loPI   C4A 9466  16.703   6.300   8.949  0.3035 -0.1062 -0.1014
  592loPI   C5A 9467  16.712   6.259   8.511 -0.1282  0.0383  0.1561
  592loPI   C6A 9468  16.727   5.979   8.189 -0.2783  0.0765  0.1088
  592loPI   C1B 9469  16.570   5.860   9.952 -0.1981  0.1085  0.2115
  592loPI   C2B 9470  16.484   5.781   9.528  0.0847  0.0412 -0.0911
  592loPI   C3B 9471  16.398   5.863   9.088 -0.0315  0.0424  0.0377
  592loPI   C4B 9472  16.417   5.856   8.669  0.2789  0.1079  0.1691
  593loPI    C1 9473   5.135  11.503  11.130  0.1469  0.1008  0.1337
  593loPI    C2 9474   5.320  11.488  11.484 -0.0430 -0.0344  0.2290
  593loPI    C3 9475   5.278  11.838  11.295  0.0882  0.0332  0.3236
  593loPI   PO4 9476   5.209  11.417  10.880  0.1964  0.0500  0.2680
  593loPI   GL1 9477   5.130  11.210  10.523 -0.3121  0.1647  0.0612
  593loPI   GL2 9478   4.904  11.229  10.374 -0.0674  0.2192 -0.0637
  593loPI   C1A 9479   5.152  10.834  10.119 -0.1287  0.0423 -0.0221
  593loPI   C2A 9480   5.225  10.690   9.761  0.1251 -0.0535 -0.1358
  593loPI   C3A 9481   5.224  10.704   9.426  0.1351 -0.2339 -0.1839
  593loPI   C4A 9482   5.257  10.736   8.975  0.0116  0.0182 -0.2544
  593loPI   C5A 9483   5.296  10.450   8.618  0.2608 -0.1172 -0.1919
  593loPI   C6A 9484   5.051  10.617   8.207 -0.2066  0.0398  0.1798
  593loPI   C1B 9485   4.818  11.163   9.884  0.2256 -0.2993  0.0493
  593loPI   C2B 9486   4.917  11.126   9.357  0.2895  0.4443  0.1431
  593loPI   C3B 9487   4.952  11.125   8.933 -0.1783  0.2417 -0.5073
  593loPI   C4B 9488   5.024  10.956   8.553 -0.0142 -0.0213  0.2697
  594loPI    C1 9489   8.250  11.485  11.523  0.0156 -0.0558 -0.0332
  594loPI    C2 9490   7.922  11.713  11.536  0.0682  0.0163  0.0401
  594loPI    C3 9491   8.155  11.680  11.859 -0.0011 -0.2341  0.0668
  594loPI   PO4 9492   8.232  11.363  11.345 -0.0654  0.3272  0.0493
  594loPI   GL1 9493   8.384  11.372  10.961  0.2122  0.2674  0.0970
  594loPI   GL2 9494   8.705  11.317  10.810  0.1014 -0.3498 -0.0588
  594loPI   C1A 9495   8.245  11.284  10.584 -0.4951  0.0816 -0.1244
  594loPI   C2A 9496   8.288  11.214  10.089 -0.0655 -0.2054 -0.1709
  594loPI   C3A 9497   8.327  11.204   9.721  0.2637  0.2775  0.0508
  594loPI   C4A 9498   8.204  11.218   9.319 -0.2199  0.2591  0.2512
  594loPI   C5A 9499   8.287  11.171   8.819 -0.0432  0.1877  0.2871
  594loPI   C6A 9500   8.638  11.250   8.445  0.0101 -0.1356  0.0696
  594loPI   C1B 9501   8.776  11.304  10.392 -0.1826  0.3231  0.2769
  594loPI   C2B 9502   8.744  11.277   9.943  0.0246  0.3576 -0.1104
  594loPI   C3B 9503   8.669  11.299   9.436  0.1819  0.1979 -0.1430
  594loPI   C4B 9504   8.747  11.332   9.008  0.1015 -0.2974 -0.2519
  595loPI    C1 9505   8.590   5.885  11.231 -0.0564  0.1339  0.1535
  595loPI    C2 9506   8.278   6.043  11.425 -0.1468  0.1130  0.0264
  595loPI    C3 9507   8.580   5.881  11.631 -0.3133 -0.0472  0.1478
  595loPI   PO4 9508   8.684   6.020  11.018 -0.0534  0.0469 -0.1721
  595loPI   GL1 9509   8.684   6.046  10.623 -0.0517  0.1265 -0.0887
  595loPI   GL2 9510   8.405   6.237  10.629 -0.0016  0.2715  0.4499
  595loPI   C1A 9511   8.847   6.118  10.280 -0.0358 -0.2198 -0.0699
  595loPI   C2A 9512   8.731   6.327   9.855 -0.1584  0.4314  0.3029
  595loPI   C3A 9513   8.637   6.259   9.528 -0.0136 -0.0132 -0.0891
  595loPI   C4A 9514   8.682   6.170   9.156  0.2661  0.2681  0.5214
  595loPI   C5A 9515   8.762   6.278   8.681  0.0707  0.0918  0.0887
  595loPI   C6A 9516   8.975   6.202   8.292  0.2261 -0.2308 -0.0038
  595loPI   C1B 9517   8.301   6.235  10.222 -0.3211  0.2018  0.1063
  595loPI   C2B 9518   8.210   6.174   9.783 -0.0867 -0.0564  0.1009
  595loPI   C3B 9519   8.205   6.209   9.280  0.1671  0.1047  0.0780
  595loPI   C4B 9520   8.236   6.125   8.809 -0.0586  0.2709  0.0275
  596loPI    C1 9521  10.619   2.737  11.171 -0.0818  0.0013  0.0392
  596loPI    C2 9522  10.560   2.918  11.522  0.1243  0.1634 -0.0080
  596loPI    C3 9523  10.711   2.548  11.511  0.0115  0.1140  0.0769
  596loPI   PO4 9524  10.720   2.842  10.936 -0.0871  0.1769 -0.1520
  596loPI   GL1 9525  10.826   2.663  10.486 -0.1508 -0.2710  0.1624
  596loPI   GL2 9526  10.687   2.949  10.397  0.0333 -0.1473 -0.0915
  596loPI   C1A 9527  10.962   2.650  10.078 -0.0232 -0.1611 -0.1205
  596loPI   C2A 9528  10.983   2.653   9.591 -0.3106 -0.0411 -0.0751
  596loPI   C3A 9529  10.889   2.669   9.075  0.1610 -0.1089  0.2329
  596loPI   C4A 9530  10.965   2.620   8.619  0.1781  0.1870  0.0184
  596loPI   C5A 9531  10.972   2.413   8.290 -0.1205  0.0895  0.0948
  596loPI   C6A 9532  11.242   2.047   8.152  0.0659  0.0699 -0.1267
  596loPI   C1B 9533  10.687   3.108  10.033  0.1970 -0.1440  0.3071
  596loPI   C2B 9534  10.755   3.084   9.571  0.3615 -0.0385  0.1239
  596loPI   C3B 9535  10.663   3.088   9.107  0.2994 -0.2037 -0.1870
  596loPI   C4B 9536  10.608   3.036   8.656 -0.0384  0.0793  0.2214
  597loPI    C1 9537   3.503   3.705  10.831 -0.2844  0.0820  0.1309
  597loPI    C2 9538   3.137   3.550  10.877 -0.2640  0.0716  0.2618
  597loPI    C3 9539   3.351   3.655  11.198 -0.1577  0.0911  0.1848
  597loPI   PO4 9540   3.569   3.702  10.528  0.1123  0.3642  0.1148
  597loPI   GL1 9541   3.641   3.707  10.173  0.1868  0.2576 -0.3704
  597loPI   GL2 9542   3.489   3.316  10.082 -0.2216  0.1606  0.1867
  597loPI   C1A 9543   3.778   3.715   9.680  0.6823  0.0478  0.2041
  597loPI   C2A 9544   3.751   3.680   9.294  0.2341  0.0832  0.1727
  597loPI   C3A 9545   3.982   3.524   8.911  0.0605 -0.0044  0.0956
  597loPI   C4A 9546   4.373   3.454   8.668  0.0568 -0.0407 -0.2021
  597loPI   C5A 9547   4.662   3.821   8.531 -0.1857  0.1153  0.3493
  597loPI   C6A 9548   5.030   3.795   8.153  0.0219  0.2798 -0.1145
  597loPI   C1B 9549   3.527   3.248   9.590  0.1089 -0.0023  0.0530
  597loPI   C2B 9550   3.627   3.154   9.127  0.3320  0.0123  0.1100
  597loPI   C3B 9551   3.619   2.766   8.928  0.2381  0.0651 -0.0542
  597loPI   C4B 9552   3.478   2.441   8.727 -0.1573 -0.1022 -0.1193
  598loPI    C1 9553  13.234  12.072  11.182 -0.0482  0.3397 -0.1604
  598loPI    C2 9554  13.397  12.013  11.542 -0.1213  0.1598 -0.1560
  598loPI    C3 9555  13.050  12.210  11.509 -0.2215 -0.0062 -0.1074
  598loPI   PO4 9556  13.395  12.226  11.082  0.1944 -0.2974 -0.1145
  598loPI   GL1 9557  13.658  12.384  10.648  0.1213  0.0289 -0.0349
  598loPI   GL2 9558  13.698  12.200  10.453  0.0517  0.1238 -0.2501
  598loPI   C1A 9559  13.926  12.688  10.431 -0.2743 -0.2614 -0.0565
  598loPI   C2A 9560  13.991  12.717   9.908 -0.2423  0.0170 -0.1658
  598loPI   C3A 9561  13.956  12.856   9.455 -0.2111  0.0922  0.1816
  598loPI   C4A 9562  13.922  12.750   9.085  0.0864 -0.0973 -0.1478
  598loPI   C5A 9563  13.790  12.748   8.725  0.0460  0.0226 -0.0372
  598loPI   C6A 9564  13.886  12.739   8.302 -0.0703  0.1583  0.1315
  598loPI   C1B 9565  13.680  12.281   9.944  0.0302 -0.2070  0.0327
  598loPI   C2B 9566  13.700  12.252   9.630 -0.1744 -0.3208  0.0600
  598loPI   C3B 9567  13.675  12.333   9.115  0.1737  0.3747 -0.2097
  598loPI   C4B 9568  13.624  12.239   8.628 -0.3107  0.2736  0.2016
  599loPI    C1 9569  16.604   4.927  11.231  0.0574  0.0771  0.0051
  599loPI    C2 9570  16.813   5.243  11.361  0.1881  0.0566 -0.1525
  599loPI    C3 9571  16.841   4.893  11.552  0.2096  0.0840 -0.1054
  599loPI   PO4 9572  16.649   4.974  10.996  0.0176 -0.0458 -0.2232
  599loPI   GL1 9573  16.497   4.748  10.548 -0.1663  0.2189  0.0207
  599loPI   GL2 9574  16.533   4.967  10.331 -0.1651 -0.2330  0.1791
  599loPI   C1A 9575  16.669   4.494  10.186 -0.0827  0.4219  0.2180
  599loPI   C2A 9576  16.728   4.523   9.760 -0.1822  0.2519 -0.2555
  599loPI   C3A 9577  16.634   4.501   9.312 -0.0352 -0.2671  0.1261
  599loPI   C4A 9578  16.693   4.496   8.842  0.1576  0.1338  0.2216
  599loPI   C5A 9579  16.681   4.507   8.391 -0.1144  0.3400  0.2020
  599loPI   C6A 9580  16.561   4.557   7.921 -0.2873  0.1185 -0.0519
  599loPI   C1B 9581  16.436   4.907   9.919 -0.1016 -0.2791  0.1200
  599loPI   C2B 9582  16.446   4.973   9.465 -0.1513 -0.2307  0.0178
  599loPI   C3B 9583  16.398   4.921   9.037  0.3802 -0.2463  0.2477
  599loPI   C4B 9584  16.506   4.939   8.643  0.1532 -0.1584  0.0005
  600loPI    C1 9585  15.973  15.487  11.076  0.2451 -0.3207  0.0221
  600loPI    C2 9586  15.963  15.654  11.439  0.0784  0.0907 -0.1649
  600loPI    C3 9587  16.314  15.575  11.265  0.1585  0.0325  0.0207
  600loPI   PO4 9588  15.775  15.582  10.926 -0.1696  0.4255 -0.2146
  600loPI   GL1 9589  15.927  15.856  10.644  0.1961 -0.3074 -0.1560
  600loPI   GL2 9590  15.583  15.808  10.582  0.3125 -0.1267  0.3006
  600loPI   C1A 9591  16.075  15.760  10.253 -0.1360 -0.3166 -0.1621
  600loPI   C2A 9592  15.915  15.753   9.715  0.3302 -0.2262 -0.1185
  600loPI   C3A 9593  16.011  15.742   9.257  0.1364  0.0643  0.1099
  600loPI   C4A 9594  16.061  15.867   8.838 -0.2621  0.2296 -0.1190
  600loPI   C5A 9595  16.067  16.264   8.706 -0.0351 -0.2932 -0.1130
  600loPI   C6A 9596  15.689  16.570   8.546  0.0449  0.3368 -0.1373
  600loPI   C1B 9597  15.483  15.643  10.171 -0.0111  0.1604  0.0957
  600loPI   C2B 9598  15.370  15.721   9.796 -0.1389  0.3876 -0.0369
  600loPI   C3B 9599  15.445  15.763   9.413  0.0994  0.0060 -0.0967
  600loPI   C4B 9600  15.342  15.787   8.978 -0.0430 -0.1354 -0.2842
  601loPI    C1 9601  10.931   7.055  11.044  0.0679 -0.1596  0.0467
  601loPI    C2 9602  11.054   7.387  11.231  0.0097 -0.0948 -0.0290
  601loPI    C3 9603  10.951   7.064  11.443  0.2510 -0.1298  0.0378
  601loPI   PO4 9604  10.841   7.140  10.809 -0.2327  0.2144 -0.1044
  601loPI   GL1 9605  10.795   7.038  10.435  0.3120 -0.1300 -0.1438
  601loPI   GL2 9606  11.066   7.193  10.352 -0.0034  0.0290  0.3889
  601loPI   C1A 9607  10.537   6.995   9.980  0.0167 -0.0492 -0.0353
  601loPI   C2A 9608  10.562   7.006   9.546 -0.0564  0.2566  0.1825
  601loPI   C3A 9609  10.786   7.294   9.275  0.3127  0.1835  0.2488
  601loPI   C4A 9610  10.840   7.698   9.132 -0.0667  0.0563 -0.0272
  601loPI   C5A 9611  10.805   8.086   9.136  0.3455 -0.3302  0.1811
  601loPI   C6A 9612  10.488   8.485   9.261  0.0429  0.2646 -0.0269
  601loPI   C1B 9613  11.084   7.174   9.931  0.0248 -0.3202 -0.1024
  601loPI   C2B 9614  11.231   7.064   9.406 -0.2140 -0.0692 -0.1750
  601loPI   C3B 9615  11.221   7.392   9.074 -0.1338  0.2139  0.0209
  601loPI   C4B 9616  11.157   7.688   8.671  0.2685 -0.0174 -0.0178
  602loPI    C1 9617  11.879   4.140  11.307 -0.1223 -0.0963 -0.0754
  602loPI    C2 9618  11.780   3.774  11.434 -0.2982 -0.0719 -0.1406
  602loPI    C3 9619  11.780   4.080  11.690 -0.0667 -0.1321 -0.0665
  602loPI   PO4 9620  12.019   4.069  11.081  0.0935  0.0050 -0.0931
  602loPI   GL1 9621  12.284   3.896  10.745  0.3877  0.1376 -0.2439
  602loPI   GL2 9622  12.351   4.178  10.713 -0.1212 -0.0377 -0.0178
  602loPI   C1A 9623  12.334   3.980  10.217  0.5016 -0.2295  0.1405
  602loPI   C2A 9624  12.379   3.940   9.743 -0.0639 -0.0973 -0.0560
  602loPI   C3A 9625  12.367   3.927   9.341 -0.1420  0.1078 -0.0474
  602loPI   C4A 9626  12.355   3.824   8.951 -0.3073  0.0195 -0.1838
  602loPI   C5A 9627  12.684   3.751   8.669  0.0091 -0.0602 -0.0815
  602loPI   C6A 9628  13.036   3.927   8.628 -0.0042  0.0002  0.2060
  602loPI   C1B 9629  12.733   4.042  10.522  0.1436 -0.0033  0.0280
  602loPI   C2B 9630  12.875   3.902  10.112  0.0122  0.1245  0.0805
  602loPI   C3B 9631  12.909   3.889   9.593  0.1679  0.2747 -0.1836
  602loPI   C4B 9632  12.902   3.853   9.169  0.1044  0.2750 -0.0822
  603loPI    C1 9633  15.649  10.163  11.151 -0.3658  0.0625 -0.0713
  603loPI    C2 9634  15.748  10.548  11.196 -0.0183 -0.0408  0.0862
  603loPI    C3 9635  15.400  10.413  11.339 -0.0854  0.1868  0.1423
  603loPI   PO4 9636  15.758  10.089  10.838 -0.2201 -0.0090 -0.2155
  603loPI   GL1 9637  15.825  10.306  10.532 -0.0521 -0.0547 -0.0381
  603loPI   GL2 9638  16.140  10.158  10.406 -0.0517  0.1481 -0.1198
  603loPI   C1A 9639  15.538  10.305  10.218 -0.0373 -0.2355  0.1146
  603loPI   C2A 9640  15.541  10.315   9.902  0.0883  0.0611 -0.0882
  603loPI   C3A 9641  15.633  10.420   9.409  0.2801  0.0118 -0.0391
  603loPI   C4A 9642  15.807  10.404   9.024  0.1314  0.0631  0.2186
  603loPI   C5A 9643  15.823  10.458   8.502  0.0612 -0.0196  0.1146
  603loPI   C6A 9644  15.778  10.861   8.362  0.1651  0.1748 -0.0126
  603loPI   C1B 9645  16.070  10.365  10.043 -0.0912  0.5121 -0.5023
  603loPI   C2B 9646  16.090  10.402   9.524 -0.2068  0.0576 -0.1143
  603loPI   C3B 9647  16.299  10.371   9.000 -0.2491 -0.1427  0.1270
  603loPI   C4B 9648  16.364  10.383   8.531  0.1615 -0.0155  0.0026
  604loPI    C1 9649   7.239  12.907  11.143 -0.2779 -0.1164  0.2940
  604loPI    C2 9650   7.524  12.765  11.385  0.1429 -0.0286 -0.1337
  604loPI    C3 9651   7.364  13.126  11.453  0.0742 -0.1110  0.1533
  604loPI   PO4 9652   7.301  12.739  10.839 -0.1512  0.0374  0.1671
  604loPI   GL1 9653   7.589  12.616  10.508  0.3215 -0.0620 -0.1212
  604loPI   GL2 9654   7.843  12.839  10.507  0.3363  0.0802 -0.2112
  604loPI   C1A 9655   7.775  12.493  10.151 -0.0737  0.3262  0.1929
  604loPI   C2A 9656   7.747  12.506   9.702  0.2368  0.0625  0.0055
  604loPI   C3A 9657   7.799  12.602   9.384  0.1696 -0.0338  0.2235
  604loPI   C4A 9658   7.785  12.645   8.935  0.0349 -0.1650  0.0070
  604loPI   C5A 9659   7.843  12.588   8.466 -0.1499  0.1841 -0.1354
  604loPI   C6A 9660   7.848  12.942   8.145  0.0448 -0.3606 -0.1465
  604loPI   C1B 9661   7.772  12.994  10.092  0.1743 -0.0907 -0.0850
  604loPI   C2B 9662   7.948  13.089   9.648 -0.0638  0.1906 -0.0844
  604loPI   C3B 9663   8.055  13.076   9.172 -0.3089  0.0311 -0.0036
  604loPI   C4B 9664   7.942  13.114   8.692 -0.0939  0.0417 -0.3780
  605loPI    C1 9665   4.762  13.073  11.023  0.3219  0.1458 -0.2139
  605loPI    C2 9666   4.583  13.350  11.251  0.1015 -0.1097 -0.0706
  605loPI    C3 9667   4.825  13.078  11.418  0.1360 -0.1454 -0.1773
  605loPI   PO4 9668   4.589  13.051  10.871  0.0421 -0.0544  0.0204
  605loPI   GL1 9669   4.454  13.233  10.471  0.1191  0.4639 -0.1873
  605loPI   GL2 9670   4.578  13.609  10.301  0.2239 -0.0587  0.3061
  605loPI   C1A 9671   4.429  12.988  10.128 -0.1947 -0.1671  0.1862
  605loPI   C2A 9672   4.466  12.882   9.713 -0.0802 -0.1421 -0.0621
  605loPI   C3A 9673   4.519  12.846   9.339 -0.1427  0.0852 -0.0280
  605loPI   C4A 9674   4.603  12.945   8.841 -0.1862  0.1541  0.1981
  605loPI   C5A 9675   4.501  13.164   8.473  0.0157 -0.1324  0.0599
  605loPI   C6A 9676   4.675  13.144   8.041 -0.0536 -0.2475 -0.2107
  605loPI   C1B 9677   4.679  13.440   9.934 -0.0762  0.0617  0.0701
  605loPI   C2B 9678   4.727  13.334   9.539 -0.1818  0.0022  0.1390
  605loPI   C3B 9679   4.734  13.293   9.127 -0.0826 -0.0237 -0.0347
  605loPI   C4B 9680   4.778  13.491   8.718 -0.2856 -0.0170 -0.1260
  606loPI    C1 9681   6.734   0.626  10.819  0.1166  0.2020  0.0836
  606loPI    C2 9682   6.493   0.343  10.965  0.0149  0.1853 -0.1139
  606loPI    C3 9683   6.792   0.485  11.189  0.0411 -0.0476  0.0019
  606loPI   PO4 9684   6.723   0.611  10.573  0.1538 -0.1550 -0.1699
  606loPI   GL1 9685   6.774   0.367  10.188  0.2436 -0.1981  0.1515
  606loPI   GL2 9686   7.051   0.706  10.217  0.4244  0.1359 -0.1649
  606loPI   C1A 9687   6.671   0.370   9.702 -0.2132  0.1549 -0.2620
  606loPI   C2A 9688   6.397   0.428   9.407  0.0189  0.2600  0.2166
  606loPI   C3A 9689   6.279   0.268   8.961 -0.1102  0.1557 -0.1530
  606loPI   C4A 9690   6.144  -0.072   8.616  0.0882  0.0354 -0.1662
  606loPI   C5A 9691   6.296  -0.315   8.209 -0.1140  0.0702 -0.0430
  606loPI   C6A 9692   6.427  -0.684   8.092  0.2437  0.1580  0.1475
  606loPI   C1B 9693   6.993   0.780   9.822 -0.5839 -0.1539  0.1169
  606loPI   C2B 9694   7.062   0.926   9.398 -0.1820  0.0643 -0.1820
  606loPI   C3B 9695   7.030   0.865   8.880  0.2000  0.0563  0.0078
  606loPI   C4B 9696   7.304   0.861   8.516 -0.0013 -0.0890  0.2532
  607loPI    C1 9697   9.314  11.516  11.352 -0.0995  0.0659  0.0161
  607loPI    C2 9698   9.058  11.566  11.655 -0.0063 -0.0438  0.1141
  607loPI    C3 9699   9.405  11.378  11.717  0.0740  0.0556 -0.0303
  607loPI   PO4 9700   9.184  11.499  11.169 -0.1772  0.1342 -0.0530
  607loPI   GL1 9701   9.181  11.365  10.714 -0.0278  0.3750  0.1805
  607loPI   GL2 9702   9.098  11.004  10.759 -0.0654  0.4001 -0.3843
  607loPI   C1A 9703   9.292  11.368  10.388  0.0203  0.0016  0.0473
  607loPI   C2A 9704   9.231  11.418   9.958  0.0218 -0.1627 -0.1116
  607loPI   C3A 9705   9.243  11.372   9.550  0.0078 -0.2064 -0.0714
  607loPI   C4A 9706   9.213  11.456   9.190 -0.2605  0.1352 -0.0845
  607loPI   C5A 9707   9.103  11.619   8.623 -0.0637  0.0475 -0.2256
  607loPI   C6A 9708   8.921  11.719   8.228 -0.0555  0.0997  0.1111
  607loPI   C1B 9709   9.065  10.874  10.280  0.0211 -0.0144 -0.1019
  607loPI   C2B 9710   9.153  10.946   9.941  0.2112  0.1005 -0.1683
  607loPI   C3B 9711   9.002  10.931   9.461 -0.1713  0.0401 -0.2397
  607loPI   C4B 9712   9.147  10.967   9.062  0.0126  0.0757  0.0359
  608loPI    C1 9713   6.657  13.588  10.970 -0.0608  0.0737  0.0809
  608loPI    C2 9714   6.589  13.642  11.360  0.2269  0.0226  0.1405
  608loPI    C3 9715   6.905  13.815  11.187 -0.0349  0.2467 -0.1254
  608loPI   PO4 9716   6.523  13.344  10.867  0.3896  0.0681 -0.1136
  608loPI   GL1 9717   6.339  13.330  10.388 -0.0721 -0.1048  0.0835
  608loPI   GL2 9718   6.327  12.982  10.504 -0.3416 -0.1599  0.1871
  608loPI   C1A 9719   6.609  13.283   9.986  0.1252  0.2390  0.2176
  608loPI   C2A 9720   6.537  13.283   9.550  0.1938  0.2753 -0.0737
  608loPI   C3A 9721   6.576  13.232   9.110  0.0648 -0.1763  0.1869
  608loPI   C4A 9722   6.635  13.218   8.596 -0.1077  0.1329  0.1312
  608loPI   C5A 9723   6.484  13.073   8.186 -0.0390 -0.1091  0.2879
  608loPI   C6A 9724   6.183  13.172   7.898 -0.0061 -0.0064 -0.1530
  608loPI   C1B 9725   6.317  12.900  10.139  0.1931  0.2461 -0.1439
  608loPI   C2B 9726   6.409  12.790   9.635  0.0007  0.1555 -0.1305
  608loPI   C3B 9727   6.390  12.767   9.267  0.0096 -0.1605 -0.2157
  608loPI   C4B 9728   6.392  12.776   8.766  0.0746  0.0415 -0.1192
  609POPI    C1 9729   8.494  17.400  11.034  0.1208  0.0870 -0.0458
  609POPI    C2 9730   8.539  17.146  11.340  0.2026 -0.1504 -0.2511
  609POPI    C3 9731   8.482  17.536  11.410  0.1030 -0.2193  0.0674
  609POPI   PO4 9732   8.654  17.262  10.870  0.0082 -0.0106 -0.0159
  609POPI   GL1 9733   8.628  17.142  10.475  0.0874 -0.1172  0.1079
  609POPI   GL2 9734   8.293  17.353  10.495  0.0191 -0.1164 -0.1077
  609POPI   C1A 9735   8.608  17.297   9.993 -0.0843 -0.0914  0.0496
  609POPI   D2A 9736   8.742  17.306   9.593 -0.2416 -0.2058  0.5691
  609POPI   C3A 9737   8.681  17.224   9.188  0.1605  0.1262  0.2030
  609POPI   C4A 9738   8.562  17.440   8.823 -0.1448  0.1118  0.0605
  609POPI   C1B 9739   8.137  17.451  10.102 -0.2424  0.0983 -0.3351
  609POPI   C2B 9740   8.142  17.355   9.634  0.4853  0.0473  0.0661
  609POPI   C3B 9741   8.163  17.249   9.252  0.1214 -0.0433 -0.2613
  609POPI   C4B 9742   8.154  17.191   8.711  0.1480  0.3323  0.0973
  610POPI    C1 9743   1.906  13.917  11.193  0.0166 -0.0162  0.0054
  610POPI    C2 9744   2.233  13.699  11.262  0.1604  0.1248 -0.2168
  610POPI    C3 9745   2.083  13.931  11.552  0.0008 -0.2694  0.0243
  610POPI   PO4 9746   1.916  13.876  10.886 -0.1745  0.0288 -0.2771
  610POPI   GL1 9747   2.139  13.715  10.492 -0.0481 -0.1664  0.2655
  610POPI   GL2 9748   2.107  13.288  10.392  0.1696 -0.1951 -0.1685
  610POPI   C1A 9749   2.115  13.725  10.075 -0.1032  0.2022  0.1005
  610POPI   D2A 9750   2.324  13.529   9.772 -0.1049  0.0745 -0.0797
  610POPI   C3A 9751   2.453  13.859   9.578 -0.0029 -0.0774  0.1477
  610POPI   C4A 9752   2.417  14.138   9.285  0.1577 -0.1361  0.1074
  610POPI   C1B 9753   1.825  13.355   9.949  0.3328 -0.1125 -0.1945
  610POPI   C2B 9754   1.884  13.358   9.519  0.0152 -0.1053 -0.0280
  610POPI   C3B 9755   1.863  13.351   9.133 -0.1265 -0.0791  0.2074
  610POPI   C4B 9756   2.062  13.418   8.797 -0.1338 -0.2758  0.2934
  611POPI    C1 9757   5.984  11.791  11.110 -0.2085 -0.0063 -0.1498
  611POPI    C2 9758   5.634  11.597  11.128 -0.0735 -0.2338  0.0897
  611POPI    C3 9759   5.759  11.813  11.440 -0.0513 -0.0600 -0.0381
  611POPI   PO4 9760   6.059  11.709  10.873  0.3848 -0.0763  0.1170
  611POPI   GL1 9761   6.130  11.789  10.482 -0.1183  0.1838 -0.1192
  611POPI   GL2 9762   5.901  11.911  10.396 -0.0252  0.2604  0.1896
  611POPI   C1A 9763   6.369  11.897  10.157  0.1543 -0.0937  0.1469
  611POPI   D2A 9764   6.613  11.953   9.773 -0.1512  0.2304 -0.1204
  611POPI   C3A 9765   6.614  11.875   9.379  0.1748 -0.0488 -0.2057
  611POPI   C4A 9766   6.659  11.895   8.904 -0.2645 -0.1740  0.2149
  611POPI   C1B 9767   5.928  11.868   9.951  0.1437  0.0657  0.1232
  611POPI   C2B 9768   6.018  11.717   9.591 -0.0602  0.2737  0.2102
  611POPI   C3B 9769   6.185  11.791   9.063  0.3142  0.1880 -0.0135
  611POPI   C4B 9770   6.335  11.758   8.555  0.0739 -0.3073  0.1868
  612POPI    C1 9771   4.320  16.093  10.745 -0.1344  0.0800  0.0820
  612POPI    C2 9772   3.996  16.070  10.979  0.0440 -0.0598  0.3212
  612POPI    C3 9773   4.348  16.178  11.135  0.1404 -0.0306  0.0890
  612POPI   PO4 9774   4.263  16.233  10.553  0.1652 -0.2321  0.1501
  612POPI   GL1 9775   4.202  16.219  10.180  0.0560  0.2758 -0.0206
  612POPI   GL2 9776   4.406  15.931  10.038 -0.0023 -0.0503 -0.4220
  612POPI   C1A 9777   3.951  16.231   9.780 -0.0382  0.0188  0.1726
  612POPI   D2A 9778   3.665  16.156   9.481 -0.1471  0.1584  0.1314
  612POPI   C3A 9779   3.764  15.828   9.195  0.0361 -0.0634  0.3421
  612POPI   C4A 9780   3.550  15.637   8.870 -0.0805  0.0017 -0.0482
  612POPI   C1B 9781   4.579  15.676   9.690  0.3330 -0.1910  0.1003
  612POPI   C2B 9782   4.687  15.703   9.137  0.0202 -0.2561  0.1055
  612POPI   C3B 9783   4.667  15.870   8.688 -0.1053 -0.0432  0.0492
  612POPI   C4B 9784   4.502  16.180   8.558 -0.0262  0.1386  0.2504
  613POPI    C1 9785  11.127   2.239  10.881  0.1864  0.0525 -0.1573
  613POPI    C2 9786  11.439   2.248  11.131  0.0747 -0.0065 -0.0145
  613POPI    C3 9787  11.098   2.433  11.229 -0.1392 -0.4527  0.1090
  613POPI   PO4 9788  11.180   2.277  10.667  0.0307 -0.0269 -0.0230
  613POPI   GL1 9789  11.277   2.148  10.367  0.1539 -0.2453 -0.0357
  613POPI   GL2 9790  11.491   1.844  10.290  0.1626 -0.0131  0.2656
  613POPI   C1A 9791  11.177   2.235   9.978  0.0178  0.0818  0.2840
  613POPI   D2A 9792  11.208   2.081   9.535  0.3005  0.2698 -0.2975
  613POPI   C3A 9793  11.191   2.177   9.094  0.0348 -0.3308 -0.2973
  613POPI   C4A 9794  11.249   2.169   8.672 -0.2969  0.4682  0.0474
  613POPI   C1B 9795  11.486   1.750   9.781  0.0433  0.2368  0.4562
  613POPI   C2B 9796  11.475   1.670   9.339  0.0736 -0.0367 -0.0781
  613POPI   C3B 9797  11.429   1.777   8.921  0.0772 -0.0534  0.0930
  613POPI   C4B 9798  11.400   1.720   8.514  0.0638  0.0002 -0.1138
  614POPI    C1 9799  15.242  17.493  11.289 -0.0339 -0.1857  0.1075
  614POPI    C2 9800  15.250  17.750  11.595  0.2762 -0.0994  0.0307
  614POPI    C3 9801  15.379  17.375  11.645  0.1797 -0.1309  0.0451
  614POPI   PO4 9802  15.307  17.784  11.078  0.0703 -0.0413 -0.0986
  614POPI   GL1 9803  15.388  18.160  10.770  0.0283  0.2718  0.1205
  614POPI   GL2 9804  15.001  18.100  10.878  0.2897 -0.1194  0.2141
  614POPI   C1A 9805  15.280  18.124  10.293  0.0118 -0.0715  0.2378
  614POPI   D2A 9806  15.304  18.083   9.889 -0.0193 -0.1820 -0.0282
  614POPI   C3A 9807  15.291  18.120   9.469  0.0970  0.1256 -0.1691
  614POPI   C4A 9808  15.270  18.085   9.118 -0.1248 -0.1449 -0.1393
  614POPI   C1B 9809  14.800  17.988  10.497  0.0286  0.0209  0.1104
  614POPI   C2B 9810  14.731  18.086  10.007 -0.1581 -0.0576 -0.0818
  614POPI   C3B 9811  14.823  18.184   9.583 -0.0243  0.1411 -0.0844
  614POPI   C4B 9812  14.821  18.124   9.198 -0.1535  0.1337 -0.0388
  615POPI    C1 9813  10.846  16.101  11.203 -0.1420  0.0170  0.0808
  615POPI    C2 9814  10.661  15.775  11.342 -0.3024  0.0801  0.0192
  615POPI    C3 9815  10.483  16.132  11.368  0.0072  0.2151  0.3800
  615POPI   PO4 9816  10.828  16.062  10.976 -0.0313 -0.0237  0.0773
  615POPI   GL1 9817  11.001  16.162  10.540 -0.0206 -0.1615 -0.1406
  615POPI   GL2 9818  10.944  16.420  10.374 -0.1166 -0.0155  0.0257
  615POPI   C1A 9819  11.302  15.958  10.347 -0.0601  0.1335  0.1403
  615POPI   D2A 9820  11.521  15.808   9.998 -0.0604  0.0291  0.1003
  615POPI   C3A 9821  11.882  15.864   9.738 -0.1987  0.0184  0.1207
  615POPI   C4A 9822  11.910  15.939   9.326  0.0244 -0.2120 -0.3621
  615POPI   C1B 9823  10.820  16.538   9.862 -0.0451 -0.0056 -0.0525
  615POPI   C2B 9824  11.103  16.418   9.593 -0.0878 -0.0074  0.0654
  615POPI   C3B 9825  11.026  16.129   9.267  0.0600  0.0074 -0.1197
  615POPI   C4B 9826  11.024  15.815   9.060 -0.0338  0.1667  0.1056
  616POPI    C1 9827   3.509   2.848  11.071 -0.0294 -0.2482  0.0495
  616POPI    C2 9828   3.296   3.135  11.251  0.2851  0.0111  0.0165
  616POPI    C3 9829   3.404   2.808  11.454  0.0254 -0.0313  0.0887
  616POPI   PO4 9830   3.438   2.755  10.882  0.0843 -0.0463  0.4607
  616POPI   GL1 9831   3.413   2.666  10.476 -0.1538 -0.0908  0.0411
  616POPI   GL2 9832   3.619   2.764  10.307 -0.2303  0.1168  0.0559
  616POPI   C1A 9833   3.386   2.386  10.146 -0.0522 -0.0623 -0.1180
  616POPI   D2A 9834   3.531   2.251   9.760 -0.1628 -0.4952  0.0887
  616POPI   C3A 9835   3.154   2.024   9.532 -0.1507  0.0439 -0.0914
  616POPI   C4A 9836   2.657   2.043   9.644  0.1223  0.1108  0.0838
  616POPI   C1B 9837   3.783   2.800   9.796 -0.2651 -0.0623 -0.3237
  616POPI   C2B 9838   3.802   2.704   9.391 -0.0024  0.1242  0.0121
  616POPI   C3B 9839   3.809   2.356   9.168 -0.1197 -0.0856 -0.0855
  616POPI   C4B 9840   3.613   2.069   9.328 -0.2736 -0.1097 -0.1945
  617POPI    C1 9841  17.003  16.404  11.186  0.0260 -0.1635  0.2296
  617POPI    C2 9842  17.367  16.425  11.022 -0.1533  0.3012 -0.1312
  617POPI    C3 9843  17.276  16.655  11.336 -0.0578 -0.0111  0.1300
  617POPI   PO4 9844  16.847  16.407  11.031  0.3426  0.0930 -0.0045
  617POPI   GL1 9845  16.954  16.444  10.638  0.0260  0.3376  0.0639
  617POPI   GL2 9846  17.233  16.265  10.577 -0.1060 -0.1053 -0.0417
  617POPI   C1A 9847  17.043  16.568  10.171  0.1316 -0.0889 -0.0144
  617POPI   D2A 9848  17.147  16.499   9.780 -0.2764  0.0929  0.1019
  617POPI   C3A 9849  16.942  16.504   9.357 -0.2155 -0.0778 -0.0179
  617POPI   C4A 9850  16.978  16.635   8.986 -0.0239  0.1039  0.1446
  617POPI   C1B 9851  17.304  16.090  10.124  0.0468  0.3812 -0.3794
  617POPI   C2B 9852  17.217  16.021   9.599  0.0150 -0.0638  0.0195
  617POPI   C3B 9853  17.216  16.106   9.206 -0.1479  0.0894  0.1831
  617POPI   C4B 9854  17.105  16.220   8.743 -0.0434 -0.1029 -0.0288
  618POPI    C1 9855   6.864   9.466  11.196 -0.1416 -0.2773  0.1429
  618POPI    C2 9856   7.000   9.840  11.229 -0.2950 -0.2062 -0.0105
  618POPI    C3 9857   6.702   9.714  11.464 -0.1533 -0.2755  0.1342
  618POPI   PO4 9858   6.793   9.462  10.928 -0.2032  0.0005  0.1979
  618POPI   GL1 9859   6.929   9.565  10.505  0.0549 -0.0405  0.0742
  618POPI   GL2 9860   7.176   9.485  10.295 -0.0558  0.2168  0.1603
  618POPI   C1A 9861   6.706   9.556  10.081 -0.2105  0.0286 -0.0326
  618POPI   D2A 9862   6.601   9.596   9.657 -0.1270  0.1249  0.1166
  618POPI   C3A 9863   6.672   9.493   9.163 -0.2204 -0.0775 -0.3497
  618POPI   C4A 9864   6.742   9.586   8.780 -0.2651  0.1144 -0.0395
  618POPI   C1B 9865   7.167   9.654   9.766 -0.2061  0.0943  0.0688
  618POPI   C2B 9866   7.144   9.574   9.318  0.2964 -0.2310  0.1213
  618POPI   C3B 9867   7.195   9.637   8.936  0.0194 -0.0067 -0.1456
  618POPI   C4B 9868   7.125   9.899   8.577 -0.2119 -0.1599 -0.1739
  619POPI    C1 9869  14.340   3.149  11.295 -0.2000 -0.0089  0.1544
  619POPI    C2 9870  14.702   3.212  11.453 -0.1009  0.1449 -0.1254
  619POPI    C3 9871  14.414   3.044  11.674  0.1144  0.0985  0.1264
  619POPI   PO4 9872  14.429   3.198  11.009 -0.0077  0.0944 -0.4254
  619POPI   GL1 9873  14.293   3.165  10.643  0.3266  0.2150 -0.0983
  619POPI   GL2 9874  14.099   3.440  10.554 -0.2377 -0.0064 -0.0347
  619POPI   C1A 9875  14.308   2.871  10.312  0.1340 -0.2693 -0.0246
  619POPI   D2A 9876  14.384   2.872   9.919 -0.0691  0.0893 -0.3190
  619POPI   C3A 9877  14.360   2.853   9.449  0.1406  0.2894  0.1531
  619POPI   C4A 9878  14.490   2.848   9.069  0.0489  0.2203  0.2769
  619POPI   C1B 9879  14.123   3.309  10.152 -0.0079 -0.0899 -0.1201
  619POPI   C2B 9880  14.152   3.335   9.713  0.3945  0.2768  0.2422
  619POPI   C3B 9881  14.204   3.385   9.230 -0.4030 -0.2878  0.2589
  619POPI   C4B 9882  14.153   3.354   8.724 -0.2018 -0.1280  0.0743
  620POPI    C1 9883  12.365   8.642  11.037  0.0919  0.2387  0.0174
  620POPI    C2 9884  12.574   8.669  11.377 -0.0244 -0.0715  0.1172
  620POPI    C3 9885  12.246   8.441  11.362 -0.0552 -0.0114 -0.1873
  620POPI   PO4 9886  12.470   8.555  10.765  0.3754  0.1408 -0.2909
  620POPI   GL1 9887  12.642   8.506  10.332  0.1621 -0.1119  0.1097
  620POPI   GL2 9888  12.479   8.778  10.196  0.3371 -0.0172  0.3510
  620POPI   C1A 9889  12.731   8.246  10.113 -0.2409 -0.0163 -0.2215
  620POPI   D2A 9890  13.083   8.231   9.972  0.1788  0.0255 -0.1741
  620POPI   C3A 9891  13.185   8.281   9.537 -0.2418  0.1023 -0.0533
  620POPI   C4A 9892  13.202   8.357   9.108  0.0569  0.1750 -0.0060
  620POPI   C1B 9893  12.806   8.842   9.961 -0.1123  0.1835  0.2213
  620POPI   C2B 9894  12.805   8.945   9.570  0.1313  0.5741  0.1701
  620POPI   C3B 9895  12.931   8.746   9.197  0.2457  0.0806 -0.3433
  620POPI   C4B 9896  13.077   8.841   8.853 -0.3914  0.3224 -0.2832
  621POPI    C1 9897   0.057   0.225  11.354  0.1685  0.2941  0.0489
  621POPI    C2 9898   0.379   0.341  11.561  0.0768 -0.1053  0.4303
  621POPI    C3 9899   0.033   0.273  11.750 -0.2107  0.2197  0.0391
  621POPI   PO4 9900   0.019   0.358  11.108  0.1002 -0.0314  0.1120
  621POPI   GL1 9901  -0.061   0.389  10.740  0.0165 -0.1369 -0.0002
  621POPI   GL2 9902   0.216   0.426  10.562  0.0005 -0.1466  0.1954
  621POPI   C1A 9903  -0.202   0.411  10.291  0.2129  0.0118  0.1043
  621POPI   D2A 9904  -0.145   0.503   9.774  0.2411  0.3601  0.0212
  621POPI   C3A 9905  -0.113   0.347   9.353 -0.2403 -0.1432 -0.1204
  621POPI   C4A 9906  -0.023   0.299   8.924  0.1612  0.1352 -0.2472
  621POPI   C1B 9907   0.362   0.422  10.071  0.2755  0.4128 -0.1425
  621POPI   C2B 9908   0.309   0.415   9.660 -0.0069 -0.0189 -0.2633
  621POPI   C3B 9909   0.434   0.361   9.253 -0.0379  0.5181  0.2056
  621POPI   C4B 9910   0.685  -0.001   9.118 -0.0064 -0.1350  0.2074
  622POPI    C1 9911  15.136   8.154  11.068 -0.3417 -0.1694  0.0109
  622POPI    C2 9912  15.113   8.278  11.447 -0.2449 -0.2241  0.0351
  622POPI    C3 9913  15.389   8.009  11.342 -0.0995 -0.0155 -0.1270
  622POPI   PO4 9914  15.165   8.316  10.955 -0.0683 -0.0952  0.4511
  622POPI   GL1 9915  15.379   8.734  10.781 -0.1638  0.1346  0.0624
  622POPI   GL2 9916  15.637   8.808  10.664  0.1512 -0.2054  0.1601
  622POPI   C1A 9917  15.313   8.606  10.317 -0.0513 -0.0057  0.1528
  622POPI   D2A 9918  15.529   8.543   9.882 -0.0690  0.2269 -0.1315
  622POPI   C3A 9919  15.539   8.573   9.373 -0.1042  0.2164  0.2948
  622POPI   C4A 9920  15.557   8.571   8.925 -0.1510  0.1509  0.0779
  622POPI   C1B 9921  15.706   8.898  10.172 -0.3478 -0.0712 -0.3032
  622POPI   C2B 9922  15.828   9.062   9.759  0.2898 -0.1367  0.0333
  622POPI   C3B 9923  15.792   9.069   9.314  0.2807  0.0401 -0.1542
  622POPI   C4B 9924  15.820   9.033   8.878 -0.0112 -0.2715  0.0861
  623POPI    C1 9925   8.298   3.665  11.115 -0.3044 -0.1568 -0.0284
  623POPI    C2 9926   8.482   3.315  11.178 -0.0322 -0.0156 -0.0241
  623POPI    C3 9927   8.481   3.595  11.464 -0.3253 -0.0439  0.0055
  623POPI   PO4 9928   8.384   3.846  10.928  0.3105  0.0369 -0.2722
  623POPI   GL1 9929   8.389   3.873  10.494  0.2269  0.0675  0.2353
  623POPI   GL2 9930   8.133   4.138  10.554 -0.0280 -0.0261  0.1000
  623POPI   C1A 9931   8.683   4.073  10.054 -0.1001 -0.2223 -0.0276
  623POPI   D2A 9932   8.871   3.999   9.668 -0.0019 -0.0111  0.1917
  623POPI   C3A 9933   9.242   4.066   9.420 -0.0858  0.1647 -0.0603
  623POPI   C4A 9934   9.636   4.000   9.176 -0.5197  0.2212 -0.2911
  623POPI   C1B 9935   7.947   3.975  10.074 -0.5685  0.0295  0.1231
  623POPI   C2B 9936   7.807   3.714   9.747 -0.0998  0.1493  0.0663
  623POPI   C3B 9937   7.794   3.727   9.295  0.3355  0.1585  0.2816
  623POPI   C4B 9938   7.747   3.845   8.842 -0.1193 -0.3479 -0.1784
  624POPI    C1 9939   5.159   3.960  11.272  0.0571 -0.0155 -0.0327
  624POPI    C2 9940   5.304   4.063  11.630  0.0861 -0.0653 -0.0302
  624POPI    C3 9941   4.937   3.907  11.601  0.0275  0.0722 -0.0382
  624POPI   PO4 9942   5.302   4.046  11.067  0.1166 -0.0111 -0.0852
  624POPI   GL1 9943   5.161   4.172  10.651 -0.0745 -0.2100  0.1678
  624POPI   GL2 9944   5.508   4.018  10.440  0.3156 -0.1038  0.0333
  624POPI   C1A 9945   4.936   4.214  10.289 -0.0095  0.2282  0.0306
  624POPI   D2A 9946   4.947   4.356   9.926 -0.0717  0.2050 -0.0159
  624POPI   C3A 9947   5.118   4.355   9.454 -0.1536 -0.4238  0.2055
  624POPI   C4A 9948   5.124   4.211   9.098  0.0403  0.0364  0.2329
  624POPI   C1B 9949   5.460   4.349  10.143 -0.2129 -0.0113  0.0962
  624POPI   C2B 9950   5.573   4.524   9.831  0.0321  0.2450 -0.0845
  624POPI   C3B 9951   5.661   4.525   9.463 -0.0348  0.0463 -0.1208
  624POPI   C4B 9952   5.647   4.310   9.088 -0.1996 -0.0644 -0.0849
  625DPPI    C1 9953  11.697   4.982  11.123 -0.1317  0.2580 -0.1614
  625DPPI    C2 9954  12.079   5.047  11.025 -0.1161  0.1746 -0.1567
  625DPPI    C3 9955  11.940   5.172  11.378 -0.0321 -0.0006 -0.0606
  625DPPI   PO4 9956  11.596   4.957  10.851 -0.0860  0.0449 -0.0822
  625DPPI   GL1 9957  11.758   4.968  10.424 -0.1847 -0.0293 -0.1372
  625DPPI   GL2 9958  11.938   4.740  10.548  0.4566 -0.1148 -0.0325
  625DPPI   C1A 9959  11.725   4.856   9.947 -0.0223  0.1883 -0.1900
  625DPPI   C2A 9960  11.859   4.813   9.527  0.1884  0.1252  0.2257
  625DPPI   C3A 9961  11.926   4.713   9.065  0.2685  0.4000 -0.3650
  625DPPI   C4A 9962  12.022   4.603   8.658  0.2014 -0.1149 -0.2398
  625DPPI   C1B 9963  12.089   4.403  10.416 -0.0527 -0.0465  0.0042
  625DPPI   C2B 9964  12.120   4.398  10.012  0.0157 -0.0012 -0.0075
  625DPPI   C3B 9965  12.090   4.347   9.562  0.1320 -0.1895  0.0497
  625DPPI   C4B 9966  12.185   4.309   9.068  0.1705 -0.1691  0.1375
  626DPPI    C1 9967   7.738  14.265  10.982  0.1079  0.0806 -0.0232
  626DPPI    C2 9968   8.134  14.262  11.040  0.0990  0.0907  0.0389
  626DPPI    C3 9969   7.889  14.373  11.336  0.0596  0.2736 -0.0605
  626DPPI   PO4 9970   7.720  14.048  10.885 -0.0350  0.1058  0.1230
  626DPPI   GL1 9971   7.676  13.953  10.403  0.0502 -0.2985 -0.3115
  626DPPI   GL2 9972   7.391  13.860  10.350 -0.1995  0.1864 -0.2239
  626DPPI   C1A 9973   7.712  13.979   9.844 -0.1098 -0.0449  0.0072
  626DPPI   C2A 9974   7.690  13.979   9.457  0.4601  0.2020 -0.0219
  626DPPI   C3A 9975   7.777  13.906   9.063  0.1311 -0.0625 -0.1040
  626DPPI   C4A 9976   7.802  13.823   8.623 -0.0404 -0.2043  0.1029
  626DPPI   C1B 9977   7.252  13.859   9.896  0.2133 -0.1818 -0.2596
  626DPPI   C2B 9978   7.207  13.821   9.575 -0.0370 -0.0522  0.1693
  626DPPI   C3B 9979   7.223  13.895   9.194 -0.2547  0.1500 -0.1178
  626DPPI   C4B 9980   7.334  13.807   8.883 -0.1068 -0.2937  0.2775
  627DPPI    C1 9981  13.239  14.752  11.052  0.0363  0.2137  0.0265
  627DPPI    C2 9982  13.188  15.104  10.868 -0.0741  0.1742 -0.0193
  627DPPI    C3 9983  13.512  15.042  11.095  0.0115  0.2594 -0.1169
  627DPPI   PO4 9984  13.029  14.593  10.812  0.1661 -0.1522  0.0290
  627DPPI   GL1 9985  12.937  14.427  10.407 -0.1440  0.1588  0.1735
  627DPPI   GL2 9986  12.945  14.796  10.322 -0.1460  0.1436  0.1019
  627DPPI   C1A 9987  12.939  14.570   9.906  0.1652 -0.1641 -0.2735
  627DPPI   C2A 9988  12.999  14.615   9.504  0.2228  0.1587  0.0330
  627DPPI   C3A 9989  12.959  14.539   9.097 -0.0684 -0.0004  0.1156
  627DPPI   C4A 9990  13.045  14.602   8.750 -0.0075 -0.1041  0.0415
  627DPPI   C1B 9991  12.753  15.067  10.092  0.0807 -0.0152 -0.1555
  627DPPI   C2B 9992  12.573  14.998   9.626 -0.1873  0.1684  0.2394
  627DPPI   C3B 9993  12.769  14.988   9.152 -0.2438 -0.1338  0.0563
  627DPPI   C4B 9994  12.966  15.149   8.737 -0.1075  0.1855 -0.0995
  628DPPI    C1 9995  17.088   6.766  11.089  0.0421 -0.0648 -0.2804
  628DPPI    C2 9996  17.178   7.089  11.308  0.3455 -0.0868 -0.3682
  628DPPI    C3 9997  17.408   6.763  11.328  0.0421 -0.3001 -0.2816
  628DPPI   PO4 9998  17.032   6.837  10.877 -0.2143  0.3433  0.1856
  628DPPI   GL1 9999  17.198   6.974  10.539 -0.0017  0.1188  0.1074
  628DPPI   GL210000  17.443   6.702  10.366 -0.1236 -0.1463  0.1450
  628DPPI   C1A10001  17.322   7.158  10.161  0.2430 -0.2695  0.0571
  628DPPI   C2A10002  17.231   7.190   9.696 -0.0749  0.0204 -0.0111
  628DPPI   C3A10003  17.200   7.209   9.264  0.0637  0.2391 -0.2722
  628DPPI   C4A10004  17.438   7.257   8.897 -0.1281 -0.2193  0.3010
  628DPPI   C1B10005  17.534   6.746   9.908  0.1019 -0.0197  0.4509
  628DPPI   C2B10006  17.582   6.726   9.455 -0.0005 -0.2213 -0.1505
  628DPPI   C3B10007  17.482   6.803   9.005  0.0813 -0.1386 -0.1733
  628DPPI   C4B10008  17.652   6.608   8.631 -0.2384 -0.3488 -0.1162
  629DPPI    C110009   6.514   5.975  11.293  0.2445 -0.1154 -0.0703
  629DPPI    C210010   6.710   5.722  11.534  0.2487  0.1919  0.2565
  629DPPI    C310011   6.412   5.947  11.679 -0.0098  0.1014 -0.1187
  629DPPI   PO410012   6.689   5.821  11.002 -0.1371 -0.0011 -0.1912
  629DPPI   GL110013   6.909   5.944  10.656  0.2393  0.2049  0.0029
  629DPPI   GL210014   7.197   5.900  10.803  0.0783 -0.0556  0.3371
  629DPPI   C1A10015   6.743   5.904  10.223  0.0016  0.0423  0.0005
  629DPPI   C2A10016   6.705   5.948   9.839  0.1296 -0.2484  0.3047
  629DPPI   C3A10017   6.709   5.931   9.485 -0.1161 -0.0014 -0.0334
  629DPPI   C4A10018   6.679   5.885   9.124 -0.0380  0.3023  0.3742
  629DPPI   C1B10019   7.305   6.015  10.382 -0.0732 -0.1584  0.3105
  629DPPI   C2B10020   7.195   6.027   9.971  0.2644 -0.0977  0.0897
  629DPPI   C3B10021   7.183   6.033   9.492 -0.2770  0.0334  0.2178
  629DPPI   C4B10022   7.261   5.959   9.004  0.1022 -0.1016  0.0159
  630DPPI    C110023  12.260  10.841  11.048 -0.0511 -0.0174 -0.0762
  630DPPI    C210024  12.180  11.150  11.288 -0.3756  0.1397 -0.3776
  630DPPI    C310025  12.018  10.792  11.362  0.0271  0.0245 -0.0091
  630DPPI   PO410026  12.391  10.954  10.831 -0.0203 -0.6087 -0.3407
  630DPPI   GL110027  12.533  11.234  10.608  0.2719  0.2737 -0.1182
  630DPPI   GL210028  12.590  11.400  10.391 -0.1671 -0.1525 -0.1348
  630DPPI   C1A10029  12.490  10.987  10.190 -0.0984 -0.4350 -0.0083
  630DPPI   C2A10030  12.481  10.933   9.796  0.1080 -0.0215 -0.1018
  630DPPI   C3A10031  12.574  11.055   9.437  0.0418  0.1887 -0.0980
  630DPPI   C4A10032  12.915  11.004   9.151  0.1969 -0.0802  0.2906
  630DPPI   C1B10033  12.680  11.359   9.971 -0.0415 -0.0301  0.0505
  630DPPI   C2B10034  12.956  11.303   9.746  0.1893  0.2599 -0.2278
  630DPPI   C3B10035  13.012  11.456   9.405  0.1787  0.0382 -0.0196
  630DPPI   C4B10036  13.217  11.411   9.037  0.1161  0.2162 -0.0078
  631DPPI    C110037   6.090   3.961  10.993 -0.0160 -0.0386 -0.0196
  631DPPI    C210038   5.743   3.822  10.850 -0.0053 -0.0115 -0.0722
  631DPPI    C310039   5.764   3.960  11.225 -0.1109  0.2148 -0.1476
  631DPPI   PO410040   6.214   4.064  10.756 -0.0119 -0.0132 -0.4044
  631DPPI   GL110041   6.007   4.181  10.498 -0.2446 -0.0614  0.0561
  631DPPI   GL210042   5.970   4.459  10.515 -0.0527  0.1237 -0.1436
  631DPPI   C1A10043   5.942   3.953  10.160 -0.0803 -0.2494  0.2166
  631DPPI   C2A10044   5.815   4.089   9.774 -0.3409  0.0019  0.5498
  631DPPI   C3A10045   5.961   3.963   9.353 -0.0106  0.1501 -0.0522
  631DPPI   C4A10046   5.950   3.937   8.899 -0.1484 -0.0365  0.2347
  631DPPI   C1B10047   6.027   4.425  10.082  0.2954 -0.1505 -0.0383
  631DPPI   C2B10048   6.108   4.584   9.630 -0.3583 -0.0657 -0.2536
  631DPPI   C3B10049   6.166   4.435   9.242  0.0298 -0.2258 -0.0822
  631DPPI   C4B10050   6.067   4.514   8.822 -0.0592  0.1482  0.0529
  632DPPI    C110051   0.868  16.886  10.862  0.2295  0.2213 -0.0736
  632DPPI    C210052   0.758  17.051  11.209  0.2122  0.0052  0.0246
  632DPPI    C310053   1.124  16.896  11.169  0.1324 -0.1868  0.0261
  632DPPI   PO410054   0.893  17.054  10.692  0.1691  0.2871 -0.0569
  632DPPI   GL110055   0.595  17.049  10.392  0.1461 -0.3455  0.0611
  632DPPI   GL210056   0.367  17.315  10.487  0.2170  0.2456 -0.0004
  632DPPI   C1A10057   0.431  16.968  10.053 -0.1563  0.1474  0.2358
  632DPPI   C2A10058   0.593  16.918   9.707  0.0652 -0.3782  0.2002
  632DPPI   C3A10059   0.488  16.941   9.223  0.0797 -0.0590  0.0137
  632DPPI   C4A10060   0.565  17.075   8.796 -0.3396  0.1078  0.0021
  632DPPI   C1B10061   0.291  17.423  10.134  0.0150 -0.1505  0.0931
  632DPPI   C2B10062   0.184  17.301   9.716  0.0822  0.1125 -0.3880
  632DPPI   C3B10063   0.190  17.322   9.296 -0.0541  0.0249  0.0392
  632DPPI   C4B10064   0.123  17.260   8.940  0.2022 -0.2719 -0.1805
  633DPPI    C110065  14.375   4.728  11.047  0.2818  0.0362  0.0164
  633DPPI    C210066  14.714   4.933  10.990  0.0612  0.3979 -0.0290
  633DPPI    C310067  14.453   5.051  11.270 -0.0538  0.1538 -0.0303
  633DPPI   PO410068  14.239   4.722  10.804  0.1464  0.2020  0.0199
  633DPPI   GL110069  14.149   4.696  10.381 -0.0062 -0.2247 -0.2874
  633DPPI   GL210070  13.947   4.597  10.276 -0.0364  0.0164  0.1091
  633DPPI   C1A10071  14.149   5.057   9.991  0.0582 -0.2079 -0.2242
  633DPPI   C2A10072  14.211   5.073   9.567  0.1793 -0.4247 -0.0657
  633DPPI   C3A10073  14.295   4.993   9.116  0.2305 -0.1983 -0.2210
  633DPPI   C4A10074  14.198   5.113   8.742  0.2331  0.1182 -0.5053
  633DPPI   C1B10075  13.965   4.640   9.791 -0.2550 -0.1172 -0.0322
  633DPPI   C2B10076  13.972   4.674   9.352  0.3154  0.0142 -0.1091
  633DPPI   C3B10077  14.023   4.605   8.863 -0.2134  0.1903 -0.2141
  633DPPI   C4B10078  13.892   4.720   8.408  0.3634 -0.3114  0.0294
  634DPPI    C110079  11.698   7.367  11.121 -0.2401 -0.1232  0.0176
  634DPPI    C210080  11.768   7.618  11.425 -0.5785 -0.2864  0.2351
  634DPPI    C310081  11.844   7.227  11.466  0.1424 -0.2070 -0.1715
  634DPPI   PO410082  11.751   7.499  10.888 -0.2501  0.3359  0.1255
  634DPPI   GL110083  12.074   7.575  10.557 -0.1854  0.0091  0.3126
  634DPPI   GL210084  11.824   7.926  10.662  0.1843  0.0964 -0.1748
  634DPPI   C1A10085  11.962   7.560  10.120  0.0732  0.1056 -0.2148
  634DPPI   C2A10086  12.038   7.442   9.764  0.0061  0.1590 -0.4554
  634DPPI   C3A10087  12.108   7.520   9.376 -0.0076  0.1998  0.1273
  634DPPI   C4A10088  12.090   7.623   8.951 -0.0864  0.2553 -0.0466
  634DPPI   C1B10089  11.791   8.052  10.270 -0.2777  0.1590  0.1870
  634DPPI   C2B10090  11.804   7.942   9.751  0.1333 -0.0087  0.0220
  634DPPI   C3B10091  11.832   7.969   9.287  0.0331  0.0366  0.2988
  634DPPI   C4B10092  11.920   8.080   8.856  0.0833  0.2872 -0.0926
  635PYPI    C110093  14.024   5.237  11.066  0.1030  0.0255 -0.1068
  635PYPI    C210094  13.828   5.565  10.947  0.0160 -0.0375 -0.1381
  635PYPI    C310095  13.934   5.524  11.330  0.0568  0.0423 -0.1406
  635PYPI   PO410096  14.213   5.247  10.873 -0.1947  0.2552  0.0601
  635PYPI   GL110097  14.099   5.297  10.418 -0.2135 -0.0500 -0.0150
  635PYPI   GL210098  13.927   5.575  10.443  0.2175 -0.0807 -0.2186
  635PYPI   C1A10099  14.415   5.557  10.152  0.0189  0.1179  0.1999
  635PYPI   C2A10100  14.459   5.544   9.668 -0.2613 -0.0926 -0.2019
  635PYPI   D3A10101  14.423   5.480   9.250  0.1636 -0.0020  0.1206
  635PYPI   C4A10102  14.638   5.489   8.827 -0.0175  0.0727 -0.0077
  635PYPI   C1B10103  13.872   5.519  10.023  0.1517  0.0502  0.2287
  635PYPI   C2B10104  13.987   5.543   9.613  0.0961  0.3566 -0.0778
  635PYPI   C3B10105  13.961   5.568   9.175 -0.0876  0.2066 -0.1791
  635PYPI   C4B10106  14.078   5.553   8.735 -0.1076  0.1216  0.4117
  636PYPI    C110107  10.545   7.375  11.360 -0.2233  0.2048  0.1160
  636PYPI    C210108  10.156   7.370  11.451 -0.2397 -0.3864  0.0527
  636PYPI    C310109  10.421   7.205  11.701 -0.0175  0.0556  0.1185
  636PYPI   PO410110  10.452   7.261  11.046 -0.1675 -0.0129  0.4216
  636PYPI   GL110111  10.416   7.534  10.654 -0.0324 -0.0872 -0.1629
  636PYPI   GL210112  10.300   7.437  10.545  0.2897 -0.3062 -0.1043
  636PYPI   C1A10113  10.447   7.900  10.275 -0.0768  0.0801  0.3341
  636PYPI   C2A10114  10.262   7.761   9.860  0.0320 -0.0151  0.0590
  636PYPI   D3A10115  10.176   7.371   9.653  0.2063 -0.0128 -0.2393
  636PYPI   C4A10116  10.193   7.261   9.194  0.0574  0.2108  0.0869
  636PYPI   C1B10117  10.555   7.421  10.186  0.2605 -0.0751 -0.3815
  636PYPI   C2B10118  10.691   7.542   9.784  0.1279 -0.3297 -0.1481
  636PYPI   C3B10119  11.012   7.783   9.585  0.0152 -0.3060  0.2134
  636PYPI   C4B10120  11.284   7.990   9.221  0.1098 -0.1535 -0.0537
  637PYPI    C110121   2.571   2.146  11.014  0.0256 -0.0109 -0.1100
  637PYPI    C210122   2.287   2.415  10.928  0.2007  0.0589 -0.4919
  637PYPI    C310123   2.188   2.032  10.989 -0.0024  0.1308 -0.3596
  637PYPI   PO410124   2.677   2.080  10.760  0.1579  0.1376  0.4206
  637PYPI   GL110125   2.443   2.237  10.455  0.2315 -0.1993 -0.0070
  637PYPI   GL210126   2.094   2.089  10.443 -0.0128  0.5798 -0.1238
  637PYPI   C1A10127   2.499   2.299  10.048  0.1307  0.1193 -0.3016
  637PYPI   C2A10128   2.420   2.522   9.693 -0.3074 -0.1789 -0.2206
  637PYPI   D3A10129   2.322   2.493   9.329  0.0536 -0.1208 -0.0151
  637PYPI   C4A10130   2.467   2.549   8.900 -0.1173 -0.1982  0.0660
  637PYPI   C1B10131   2.113   2.058  10.018 -0.0377  0.4055  0.1642
  637PYPI   C2B10132   2.140   2.078   9.556  0.2025  0.0965  0.3178
  637PYPI   C3B10133   2.078   2.117   9.043 -0.0221 -0.0468  0.0923
  637PYPI   C4B10134   2.211   2.187   8.603 -0.2086 -0.3085  0.3659
  638PYPI    C110135   0.887  10.211  11.088 -0.0109  0.0225 -0.0928
  638PYPI    C210136   0.543  10.178  11.290  0.1274  0.1923  0.1758
  638PYPI    C310137   0.802   9.873  11.285  0.0885  0.1589  0.1887
  638PYPI   PO410138   0.834  10.295  10.843 -0.4274  0.1095 -0.2106
  638PYPI   GL110139   0.716  10.176  10.507  0.3832 -0.0620  0.1253
  638PYPI   GL210140   0.767   9.859  10.437 -0.1748 -0.1278 -0.3229
  638PYPI   C1A10141   0.887  10.311  10.192 -0.0565 -0.3344  0.1262
  638PYPI   C2A10142   0.879  10.208   9.884  0.1800 -0.0441  0.2630
  638PYPI   D3A10143   0.917  10.078   9.500  0.0045 -0.0878 -0.1023
  638PYPI   C4A10144   1.155  10.079   9.081  0.2788 -0.0852  0.0943
  638PYPI   C1B10145   0.529   9.827  10.069 -0.1758 -0.2571  0.1337
  638PYPI   C2B10146   0.493   9.821   9.579 -0.1305  0.2377 -0.5605
  638PYPI   C3B10147   0.669   9.804   9.189 -0.0231 -0.0730  0.1941
  638PYPI   C4B10148   0.602   9.978   8.781  0.1394  0.1313  0.2363
  639PYPI    C110149   9.949   7.770  10.990  0.1045 -0.1994 -0.1393
  639PYPI    C210150  10.334   7.789  11.099  0.0829 -0.1230 -0.0757
  639PYPI    C310151  10.066   8.034  11.267 -0.0623 -0.4437  0.1695
  639PYPI   PO410152   9.899   7.774  10.720 -0.0690 -0.1918 -0.1330
  639PYPI   GL110153   9.976   8.079  10.350  0.2042 -0.1625 -0.1561
  639PYPI   GL210154   9.880   7.782  10.184 -0.1202  0.0448  0.2364
  639PYPI   C1A10155  10.078   8.306  10.009 -0.0844  0.3621 -0.1020
  639PYPI   C2A10156  10.136   8.192   9.587 -0.1903 -0.0359  0.0040
  639PYPI   D3A10157  10.007   8.279   9.198 -0.1613 -0.1134  0.1354
  639PYPI   C4A10158  10.252   8.271   8.854  0.1732 -0.2701  0.2842
  639PYPI   C1B10159   9.754   7.829   9.780 -0.1582 -0.0088  0.1592
  639PYPI   C2B10160   9.796   7.736   9.317  0.1568  0.2408 -0.0894
  639PYPI   C3B10161   9.925   7.740   8.877  0.0841  0.0428 -0.0248
  639PYPI   C4B10162  10.106   7.527   8.470 -0.0891  0.0689  0.1249
  640PYPI    C110163  10.219   5.725  10.845 -0.2798  0.2052  0.1432
  640PYPI    C210164  10.274   5.445  11.125 -0.1534 -0.0150 -0.0975
  640PYPI    C310165  10.031   5.754  11.197 -0.1133 -0.0611  0.2577
  640PYPI   PO410166  10.418   5.683  10.694 -0.3001 -0.2462 -0.4190
  640PYPI   GL110167  10.601   5.623  10.332  0.0102  0.1442 -0.0479
  640PYPI   GL210168  10.498   5.471  10.237  0.0053 -0.3628  0.0704
  640PYPI   C1A10169  10.913   5.707  10.069  0.1497 -0.2019  0.2228
  640PYPI   C2A10170  10.829   5.282   9.852  0.3291 -0.2288  0.1308
  640PYPI   D3A10171  11.015   4.938   9.830  0.1014  0.0611 -0.1756
  640PYPI   C4A10172  11.338   4.896   9.606  0.1844 -0.1010  0.2035
  640PYPI   C1B10173  10.448   5.622   9.848 -0.1836 -0.0901  0.0195
  640PYPI   C2B10174  10.421   5.730   9.415  0.2883  0.0104 -0.3241
  640PYPI   C3B10175  10.742   5.492   9.220 -0.2295 -0.0143 -0.1813
  640PYPI   C4B10176  11.133   5.723   9.083 -0.0364 -0.0101 -0.1367
  641ERGO   ROH10177  12.631  13.070  10.358 -0.1958  0.1238  0.0671
  641ERGO    R110178  12.567  13.188  10.109 -0.0015  0.1124  0.0102
  641ERGO    R210179  12.748  13.206   9.902  0.0578 -0.2029  0.0347
  641ERGO    R310180  12.551  13.081   9.762 -0.0822 -0.0022  0.0475
  641ERGO    R410181  12.694  13.240   9.562  0.1688 -0.2516  0.0114
  641ERGO    R510182  12.480  13.243   9.601  0.1578  0.0397 -0.0251
  641ERGO    C110183  12.478  13.143   9.233  0.1022 -0.0913  0.0100
  641ERGO    C210184  12.453  13.062   8.904 -0.1089  0.3051  0.3767
  642ERGO   ROH10185   3.166   2.927  10.148 -0.0578 -0.0730 -0.0386
  642ERGO    R110186   3.265   2.926   9.882  0.0707 -0.1741  0.0099
  642ERGO    R210187   3.301   2.693   9.738 -0.2584 -0.2023 -0.0248
  642ERGO    R310188   3.144   2.820   9.556  0.0447  0.1141 -0.0783
  642ERGO    R410189   3.272   2.602   9.406 -0.5142 -0.3159  0.0248
  642ERGO    R510190   3.273   2.814   9.353  0.0287 -0.3261 -0.0883
  642ERGO    C110191   3.108   2.668   9.042 -0.3787 -0.0851  0.0036
  642ERGO    C210192   3.030   2.575   8.719  0.0460 -0.0815 -0.0815
  643ERGO   ROH10193   9.947   3.610   9.989  0.0768 -0.1481 -0.1360
  643ERGO    R110194  10.023   3.583   9.717  0.0115 -0.1904 -0.1501
  643ERGO    R210195   9.873   3.439   9.534 -0.1752  0.0067 -0.1536
  643ERGO    R310196   9.882   3.671   9.394  0.0680  0.0204 -0.1189
  643ERGO    R410197   9.924   3.463   9.193 -0.1332  0.0009 -0.1478
  643ERGO    R510198  10.051   3.635   9.229  0.0426 -0.1304 -0.1156
  643ERGO    C110199   9.962   3.695   8.863  0.1194  0.0105 -0.1119
  643ERGO    C210200   9.959   3.509   8.556 -0.0728 -0.0878 -0.1540
  644ERGO   ROH10201  13.796   6.984   9.967  0.3841 -0.1272 -0.0224
  644ERGO    R110202  13.905   6.883   9.726  0.1974 -0.0778 -0.1327
  644ERGO    R210203  13.753   6.751   9.537  0.0251  0.0360 -0.0949
  644ERGO    R310204  13.856   6.939   9.370 -0.0205  0.0741 -0.0767
  644ERGO    R410205  13.764   6.723   9.193 -0.0406  0.1395 -0.1046
  644ERGO    R510206  13.964   6.812   9.197 -0.0571  0.1380 -0.1312
  644ERGO    C110207  13.868   6.883   8.835 -0.1216  0.2355 -0.0931
  644ERGO    C210208  13.849   6.691   8.525  0.0411  0.1804  0.0254
  645ERGO   ROH10209  16.073   5.939  10.395  0.3200 -0.0809 -0.0428
  645ERGO    R110210  16.000   5.805  10.157  0.2337 -0.0934 -0.0102
  645ERGO    R210211  15.814   5.905   9.980  0.1356 -0.1233  0.0721
  645ERGO    R310212  16.015   5.873   9.800  0.0617 -0.0905 -0.0166
  645ERGO    R410213  15.768   5.851   9.642  0.0017 -0.1284  0.0904
  645ERGO    R510214  15.932   5.707   9.648  0.0251 -0.1007  0.0176
  645ERGO    C110215  15.931   5.790   9.276 -0.1457 -0.1006  0.0177
  645ERGO    C210216  15.922   5.892   8.920  0.0166 -0.4285  0.0665
  646ERGO   ROH10217   5.908   9.540  10.586  0.0771  0.1415 -0.2510
  646ERGO    R110218   5.761   9.393  10.393  0.2063 -0.0105 -0.2360
  646ERGO    R210219   5.589   9.514  10.214 -0.0597 -0.1991 -0.1166
  646ERGO    R310220   5.740   9.382  10.030  0.0608  0.0905 -0.2307
  646ERGO    R410221   5.524   9.504   9.875 -0.0783 -0.0173 -0.1187
  646ERGO    R510222   5.581   9.294   9.874  0.1386  0.0404 -0.2798
  646ERGO    C110223   5.628   9.375   9.505  0.0240  0.3604 -0.2271
  646ERGO    C210224   5.598   9.341   9.188  0.2382  0.1174  0.0386
  647ERGO   ROH10225   0.905  17.429  10.279 -0.2028 -0.0961  0.0964
  647ERGO    R110226   0.757  17.365  10.046 -0.0877  0.0534 -0.0196
  647ERGO    R210227   0.723  17.543   9.837  0.2371  0.0956 -0.0381
  647ERGO    R310228   0.824  17.338   9.690  0.1577  0.0084  0.0272
  647ERGO    R410229   0.750  17.542   9.493 -0.0519 -0.1444 -0.0637
  647ERGO    R510230   0.687  17.333   9.493 -0.0094 -0.1620  0.1414
  647ERGO    C110231   0.859  17.349   9.154 -0.2946 -0.3661 -0.0174
  647ERGO    C210232   0.933  17.391   8.799  0.2108  0.2383  0.0730
  648ERGO   ROH10233  16.444  16.182  10.707 -0.2703 -0.0827  0.1371
  648ERGO    R110234  16.287  16.144  10.474 -0.2367  0.3087  0.0448
  648ERGO    R210235  16.265  16.336  10.276  0.5296  0.3019 -0.0715
  648ERGO    R310236  16.346  16.133  10.115 -0.0040 -0.0569  0.0881
  648ERGO    R410237  16.204  16.315   9.936  0.4190  0.1675 -0.0445
  648ERGO    R510238  16.165  16.103   9.961 -0.1191  0.2662  0.1466
  648ERGO    C110239  16.244  16.111   9.588 -0.1464 -0.2481  0.1211
  648ERGO    C210240  16.142  16.212   9.202 -0.2189 -0.0899  0.1964
  649ERGO   ROH10241  17.386  11.606  10.451 -0.3214  0.3017 -0.1341
  649ERGO    R110242  17.494  11.685  10.201 -0.1873  0.3322 -0.0681
  649ERGO    R210243  17.575  11.504  10.009 -0.0035  0.3539 -0.0163
  649ERGO    R310244  17.406  11.645   9.851  0.0494  0.2949 -0.1248
  649ERGO    R410245  17.624  11.564   9.673  0.1397  0.2818 -0.0085
  649ERGO    R510246  17.550  11.767   9.704  0.0991  0.2789 -0.0883
  649ERGO    C110247  17.494  11.733   9.328  0.2724  0.1845 -0.1057
  649ERGO    C210248  17.608  11.713   9.086 -0.0475  0.1942  0.3552
  650ERGO   ROH10249  10.398  15.486  10.093 -0.0481  0.1179  0.0048
  650ERGO    R110250  10.399  15.615   9.841 -0.0825  0.0234 -0.0443
  650ERGO    R210251  10.630  15.655   9.695 -0.0907  0.0451 -0.0503
  650ERGO    R310252  10.489  15.529   9.500 -0.0417 -0.0754 -0.0091
  650ERGO    R410253  10.654  15.726   9.358 -0.1034 -0.0700 -0.0761
  650ERGO    R510254  10.437  15.702   9.343 -0.0957 -0.1494 -0.0747
  650ERGO    C110255  10.535  15.649   8.978 -0.0647 -0.2502 -0.0523
  650ERGO    C210256  10.449  15.610   8.633  0.1366 -0.1377  0.0584
  651ERGO   ROH10257  13.276  12.175  10.184  0.0303  0.0618 -0.1159
  651ERGO    R110258  13.135  12.240   9.947 -0.0396  0.1918 -0.0388
  651ERGO    R210259  13.197  12.460   9.792  0.1050  0.1129 -0.0901
  651ERGO    R310260  13.213  12.275   9.594 -0.2075  0.0779 -0.0890
  651ERGO    R410261  13.146  12.525   9.457  0.2023  0.1947 -0.0904
  651ERGO    R510262  13.039  12.336   9.441 -0.1159  0.3667 -0.0851
  651ERGO    C110263  13.131  12.389   9.075 -0.0344  0.2096 -0.0895
  651ERGO    C210264  13.056  12.244   8.746 -0.2536 -0.1903  0.1181
  652ERGO   ROH10265  10.191   9.133  10.612 -0.1512  0.3676  0.1103
  652ERGO    R110266  10.264   9.284  10.385 -0.0453  0.2316  0.0524
  652ERGO    R210267  10.445   9.193  10.197 -0.0537  0.0656  0.1244
  652ERGO    R310268  10.243   9.246  10.023 -0.0003  0.0766  0.0651
  652ERGO    R410269  10.487   9.290   9.868  0.0518  0.0483  0.1325
  652ERGO    R510270  10.322   9.431   9.893  0.0555  0.0651  0.0805
  652ERGO    C110271  10.321   9.397   9.513  0.1633  0.0485  0.0815
  652ERGO    C210272  10.254   9.272   9.287  0.1238 -0.0704 -0.0832
  653ERGO   ROH10273   0.229  15.803  10.338  0.1902  0.1296  0.0472
  653ERGO    R110274   0.322  15.680  10.100  0.0458 -0.0299  0.0699
  653ERGO    R210275   0.154  15.542   9.929 -0.1151  0.0867  0.1195
  653ERGO    R310276   0.256  15.712   9.743  0.0396 -0.0575  0.0707
  653ERGO    R410277   0.099  15.519   9.588 -0.0875  0.0226  0.1202
  653ERGO    R510278   0.308  15.572   9.556 -0.0479 -0.1543  0.1247
  653ERGO    C110279   0.163  15.665   9.216  0.0737 -0.1501  0.0747
  653ERGO    C210280   0.067  15.678   8.913 -0.0125 -0.0134 -0.2186
  654ERGO   ROH10281   0.513  10.718  10.581  0.1428  0.1154  0.0912
  654ERGO    R110282   0.518  10.810  10.313 -0.0471 -0.0266  0.0377
  654ERGO    R210283   0.746  10.798  10.157 -0.0740  0.1824 -0.0067
  654ERGO    R310284   0.582  10.665   9.985  0.0559 -0.1279  0.0987
  654ERGO    R410285   0.827  10.713   9.832 -0.1480  0.4608 -0.1024
  654ERGO    R510286   0.625  10.766   9.772 -0.3358  0.0448  0.0853
  654ERGO    C110287   0.721  10.539   9.482 -0.0691  0.3315 -0.0590
  654ERGO    C210288   0.761  10.466   9.187 -0.0671  0.1131 -0.1081
  655ERGO   ROH10289   6.795  16.453  10.231  0.2357 -0.1273  0.0917
  655ERGO    R110290   6.711  16.559   9.982  0.1683  0.0312  0.1811
  655ERGO    R210291   6.873  16.721   9.827  0.2289 -0.0971  0.1158
  655ERGO    R310292   6.820  16.536   9.636 -0.1036  0.0141  0.0941
  655ERGO    R410293   6.942  16.760   9.491  0.1236 -0.1029  0.0925
  655ERGO    R510294   6.751  16.665   9.446 -0.0269  0.1542  0.1575
  655ERGO    C110295   6.931  16.609   9.115 -0.2499 -0.0019  0.0584
  655ERGO    C210296   7.062  16.706   8.799  0.0548  0.0680  0.0197
  656ERGO   ROH10297   7.594   9.227  10.334  0.1041 -0.2497 -0.0830
  656ERGO    R110298   7.526   9.114  10.083  0.0087 -0.0442 -0.1517
  656ERGO    R210299   7.334   9.224   9.917  0.0453  0.1728 -0.0526
  656ERGO    R310300   7.535   9.218   9.735  0.0179  0.1868 -0.0836
  656ERGO    R410301   7.290   9.201   9.575 -0.0098  0.2713 -0.0530
  656ERGO    R510302   7.460   9.065   9.568 -0.0337  0.2436 -0.1140
  656ERGO    C110303   7.454   9.183   9.205 -0.0676  0.3419 -0.0823
  656ERGO    C210304   7.572   9.310   8.941  0.0895 -0.1983 -0.0674
  657ERGO   ROH10305  14.624   5.282  10.581  0.2673  0.0994  0.1213
  657ERGO    R110306  14.743   5.162  10.354  0.0312 -0.0717  0.0855
  657ERGO    R210307  14.593   5.046  10.153 -0.2046  0.2639  0.0589
  657ERGO    R310308  14.737   5.213   9.994  0.1165  0.0369  0.0992
  657ERGO    R410309  14.642   5.003   9.813 -0.2609  0.2363  0.0543
  657ERGO    R510310  14.848   5.068   9.840 -0.1359 -0.1434  0.0802
  657ERGO    C110311  14.805   5.135   9.467  0.0077  0.0071  0.0892
  657ERGO    C210312  14.764   5.063   9.114 -0.0607  0.1197 -0.0950
  658ERGO   ROH10313   4.015  17.809  10.047 -0.0696  0.0533 -0.0218
  658ERGO    R110314   4.044  17.971   9.817  0.1564  0.0256 -0.0154
  658ERGO    R210315   4.263  17.954   9.649  0.1279 -0.2854 -0.0271
  658ERGO    R310316   4.073  17.918   9.458  0.0628 -0.0006 -0.0192
  658ERGO    R410317   4.325  17.940   9.309  0.0884 -0.3364 -0.0319
  658ERGO    R510318   4.144  18.058   9.277  0.2474 -0.0787 -0.0087
  658ERGO    C110319   4.182  17.898   8.932  0.0042 -0.0986 -0.0274
  658ERGO    C210320   4.234  17.947   8.615  0.2608  0.2356  0.0001
  659ERGO   ROH10321   8.955   2.727  10.193  0.1723  0.0559  0.1243
  659ERGO    R110322   8.919   2.597   9.944  0.2146  0.0369  0.1288
  659ERGO    R210323   8.712   2.658   9.772  0.2161 -0.0138  0.1153
  659ERGO    R310324   8.914   2.693   9.593  0.2176  0.0161  0.1217
  659ERGO    R410325   8.682   2.617   9.431  0.3231 -0.4249  0.1493
  659ERGO    R510326   8.878   2.522   9.430  0.4374 -0.2120  0.2985
  659ERGO    C110327   8.853   2.626   9.063  0.3869 -0.6362  0.1753
  659ERGO    C210328   8.928   2.589   8.666 -0.2448  0.2871  0.4241
  660ERGO   ROH10329   1.356  11.716  10.522  0.1876 -0.1001  0.1086
  660ERGO    R110330   1.373  11.919  10.326  0.1884 -0.0470  0.1629
  660ERGO    R210331   1.614  12.005  10.221  0.1805 -0.1120  0.0891
  660ERGO    R310332   1.494  11.947   9.984  0.0586  0.0074  0.1212
  660ERGO    R410333   1.762  12.043   9.911  0.0749 -0.0965  0.0409
  660ERGO    R510334   1.571  12.119   9.835  0.0786  0.0121  0.1373
  660ERGO    C110335   1.735  12.012   9.508 -0.1011  0.0246  0.0428
  660ERGO    C210336   1.884  12.002   9.225 -0.1691  0.0375 -0.0025
  661ERGO   ROH10337  16.258   6.377  10.300 -0.1786  0.1664  0.1475
  661ERGO    R110338  16.225   6.252  10.048 -0.0573  0.1245  0.1515
  661ERGO    R210339  16.027   6.326   9.870 -0.1084 -0.0501  0.1332
  661ERGO    R310340  16.237   6.354   9.699 -0.1190  0.1163  0.1465
  661ERGO    R410341  16.008   6.295   9.526 -0.0314 -0.2718  0.1477
  661ERGO    R510342  16.198   6.190   9.530  0.1060 -0.0335  0.2344
  661ERGO    C110343  16.193   6.304   9.166  0.0035 -0.2448  0.1688
  661ERGO    C210344  16.181   6.358   8.767 -0.0908  0.2199  0.4208
  662ERGO   ROH10345   7.486   4.226  10.003 -0.0326 -0.2025 -0.0471
  662ERGO    R110346   7.575   4.259   9.736  0.1363 -0.4395 -0.0247
  662ERGO    R210347   7.528   4.071   9.539 -0.4076 -0.2899 -0.0638
  662ERGO    R310348   7.422   4.283   9.407  0.2650  0.0798 -0.0530
  662ERGO    R410349   7.505   4.098   9.195 -0.6707 -0.3824 -0.0546
  662ERGO    R510350   7.560   4.308   9.213  0.1745 -0.5612 -0.2168
  662ERGO    C110351   7.392   4.313   8.871 -0.1924 -0.0891 -0.0391
  662ERGO    C210352   7.392   4.287   8.480  0.1569 -0.0809  0.1714
  663ERGO   ROH10353   1.920   9.461  10.665  0.1815  0.0757  0.0912
  663ERGO    R110354   1.772   9.396  10.432  0.3016 -0.1584  0.0791
  663ERGO    R210355   1.675   9.587  10.259  0.0290 -0.3114  0.0644
  663ERGO    R310356   1.810   9.442  10.073  0.2669 -0.1171  0.0795
  663ERGO    R410357   1.612   9.594   9.919  0.0500 -0.3997  0.0580
  663ERGO    R510358   1.643   9.378   9.914  0.3690 -0.3640  0.0622
  663ERGO    C110359   1.704   9.461   9.547  0.2854 -0.2686  0.0686
  663ERGO    C210360   1.788   9.305   9.228 -0.3073  0.0760  0.1094
  664ERGO   ROH10361  11.525  17.374  10.640  0.1790 -0.1160  0.1936
  664ERGO    R110362  11.696  17.340  10.417  0.0993 -0.1163  0.1329
  664ERGO    R210363  11.651  17.149  10.222 -0.0544 -0.0158  0.0698
  664ERGO    R310364  11.665  17.362  10.055  0.0103  0.0432  0.1491
  664ERGO    R410365  11.672  17.130   9.878 -0.2257  0.1076  0.0510
  664ERGO    R510366  11.815  17.294   9.882 -0.1138  0.0117  0.0517
  664ERGO    C110367  11.697  17.320   9.520 -0.2646  0.2347  0.1142
  664ERGO    C210368  11.709  17.280   9.239 -0.1335 -0.2239  0.0332
  665ERGO   ROH10369  17.156  10.102  10.630  0.0393  0.1612  0.0451
  665ERGO    R110370  17.081  10.226  10.386  0.0351  0.1564  0.0432
  665ERGO    R210371  17.260  10.368  10.230  0.0358  0.1523  0.0326
  665ERGO    R310372  17.175  10.198  10.036  0.0288  0.1444  0.0437
  665ERGO    R410373  17.284  10.428   9.891  0.2409  0.0235  0.0235
  665ERGO    R510374  17.086  10.341   9.866  0.2031  0.1407 -0.0480
  665ERGO    C110375  17.219  10.303   9.510  0.3538 -0.0591  0.0286
  665ERGO    C210376  17.212  10.249   9.207  0.0846  0.4248 -0.2207
  666ERGO   ROH10377   4.156  14.922  10.059  0.2112  0.1334  0.0284
  666ERGO    R110378   4.215  14.782   9.820 -0.2256 -0.0710  0.0294
  666ERGO    R210379   4.034  14.758   9.613 -0.3955  0.2907  0.1237
  666ERGO    R310380   4.238  14.862   9.466 -0.2185 -0.2066  0.0001
  666ERGO    R410381   4.024  14.809   9.271 -0.4534  0.2699  0.1224
  666ERGO    R510382   4.231  14.739   9.260 -0.6169 -0.2221  0.0185
  666ERGO    C110383   4.210  14.936   8.934 -0.3208 -0.2090  0.0056
  666ERGO    C210384   4.205  15.009   8.503 -0.0600 -0.1879  0.1002
  667ERGO   ROH10385  10.206   5.933  10.281 -0.0929 -0.0506 -0.0947
  667ERGO    R110386  10.058   5.970  10.042 -0.0530  0.1333 -0.0925
  667ERGO    R210387  10.095   6.188   9.876  0.1602  0.1307 -0.0535
  667ERGO    R310388  10.132   5.997   9.687 -0.0166  0.1257 -0.0849
  667ERGO    R410389  10.112   6.248   9.536  0.2478  0.1683 -0.0430
  667ERGO    R510390   9.995   6.067   9.504  0.0694  0.2931 -0.0844
  667ERGO    C110391  10.157   6.103   9.161  0.1328  0.1856 -0.0664
  667ERGO    C210392  10.289   6.322   8.972 -0.2565 -0.1241 -0.0505
  668ERGO   ROH10393   0.723   4.847  10.348 -0.1300 -0.2090  0.0595
  668ERGO    R110394   0.725   4.975  10.095  0.1414 -0.1215  0.1042
  668ERGO    R210395   0.906   4.908   9.897  0.0516 -0.3861  0.1133
  668ERGO    R310396   0.681   4.874   9.749  0.0052  0.0803  0.0602
  668ERGO    R410397   0.893   4.911   9.551  0.1796 -0.5321  0.1051
  668ERGO    R510398   0.707   5.023   9.564  0.4321 -0.0674 -0.0123
  668ERGO    C110399   0.674   4.881   9.212  0.2104 -0.1791  0.0505
  668ERGO    C210400   0.600   4.707   8.955 -0.2708  0.0789  0.0394
  669ERGO   ROH10401   6.852  15.959  10.422 -0.0530 -0.1263  0.0023
  669ERGO    R110402   6.994  15.845  10.205 -0.0584 -0.0354 -0.0506
  669ERGO    R210403   6.878  15.667  10.028 -0.0477 -0.0070 -0.0899
  669ERGO    R310404   6.968  15.845   9.842 -0.1065  0.0677 -0.0469
  669ERGO    R410405   6.945  15.591   9.697 -0.0670  0.1097 -0.1207
  669ERGO    R510406   7.121  15.718   9.709 -0.0949  0.1431 -0.1026
  669ERGO    C110407   7.068  15.713   9.331 -0.1335  0.2476 -0.0983
  669ERGO    C210408   7.162  15.657   8.957 -0.0280 -0.2785  0.2164
  670ERGO   ROH10409  16.274  13.376  10.606  0.1928 -0.1807 -0.0955
  670ERGO    R110410  16.139  13.308  10.367  0.0618 -0.1988 -0.0154
  670ERGO    R210411  16.036  13.499  10.195  0.0687 -0.2144 -0.0206
  670ERGO    R310412  16.187  13.367  10.011 -0.0728 -0.3307 -0.0597
  670ERGO    R410413  16.023  13.551   9.853  0.2418  0.0506  0.0093
  670ERGO    R510414  16.041  13.336   9.824 -0.0817  0.0246 -0.1294
  670ERGO    C110415  16.157  13.459   9.482  0.2099  0.0959 -0.0100
  670ERGO    C210416  16.076  13.542   9.097  0.3183 -0.0125 -0.2360
  671ERGO   ROH10417  13.178  10.059  10.284  0.1342 -0.0954 -0.0596
  671ERGO    R110418  13.119  10.024  10.009  0.0686 -0.0648 -0.0491
  671ERGO    R210419  13.138  10.230   9.825  0.1372 -0.0736 -0.0498
  671ERGO    R310420  13.298  10.054   9.694  0.0278 -0.1518 -0.0814
  671ERGO    R410421  13.182  10.221   9.483  0.4549  0.2448 -0.0238
  671ERGO    R510422  13.178  10.003   9.493  0.1462  0.2295 -0.2599
  671ERGO    C110423  13.358  10.051   9.160  0.5372  0.3568 -0.0383
  671ERGO    C210424  13.320  10.205   8.864 -0.1434 -0.1211 -0.1485
  672ERGO   ROH10425   1.921  15.597   9.954  0.1152  0.2556 -0.0664
  672ERGO    R110426   1.842  15.448   9.727  0.0236  0.3520 -0.0983
  672ERGO    R210427   1.867  15.545   9.470  0.3462  0.2862 -0.0948
  672ERGO    R310428   2.004  15.314   9.429  0.0072  0.0571  0.0217
  672ERGO    R410429   1.882  15.374   9.170  0.2758  0.2349 -0.0697
  672ERGO    R510430   1.865  15.188   9.281 -0.0999  0.2653 -0.0609
  672ERGO    C110431   2.019  15.058   8.957 -0.0834 -0.0102  0.0544
  672ERGO    C210432   2.109  15.035   8.569  0.0758 -0.1024  0.0569
  673ERGO   ROH10433  17.138   1.013  10.511  0.0190  0.1418  0.0257
  673ERGO    R110434  17.023   0.921  10.270 -0.1630  0.3303  0.0375
  673ERGO    R210435  16.879   1.086  10.100  0.2971  0.6398 -0.0689
  673ERGO    R310436  17.057   0.996   9.916  0.1253  0.0986  0.0121
  673ERGO    R410437  16.817   1.063   9.761  0.2432  0.4076 -0.0447
  673ERGO    R510438  16.924   0.873   9.760 -0.1220  0.1899  0.1453
  673ERGO    C110439  16.948   0.964   9.390  0.0505 -0.2357  0.0454
  673ERGO    C210440  17.057   0.918   9.025  0.1086  0.1395 -0.0925
  674PSPI    C110441  13.530   8.225   5.852 -0.0936 -0.1001  0.0023
  674PSPI    C210442  13.176   8.360   5.723 -0.0673 -0.0608 -0.0293
  674PSPI    C310443  13.488   8.609   5.749 -0.0726 -0.0680  0.1121
  674PSPI   PO410444  13.584   8.168   6.097 -0.0260  0.1312  0.0273
  674PSPI   GL110445  13.739   8.283   6.468  0.1872 -0.1357  0.1017
  674PSPI   GL210446  13.540   8.311   6.707 -0.2209  0.2608 -0.1931
  674PSPI   C1A10447  14.119   8.173   6.788 -0.2999 -0.0650 -0.2511
  674PSPI   C2A10448  14.108   8.200   7.260 -0.0456  0.2527  0.0923
  674PSPI   C3A10449  14.187   8.482   7.537  0.0578  0.1814  0.1012
  674PSPI   C4A10450  14.376   8.743   7.451  0.0152 -0.1517 -0.3791
  674PSPI   C1B10451  13.702   8.364   7.050  0.0504  0.3110 -0.2608
  674PSPI   C2B10452  13.576   8.345   7.443  0.2351 -0.1051  0.0831
  674PSPI   C3B10453  13.789   8.333   7.761  0.2453 -0.0472  0.1299
  674PSPI   C4B10454  13.920   8.360   8.135  0.0163  0.1085 -0.2019
  675PSPI    C110455  12.157  11.893   6.331 -0.1202  0.0548  0.1017
  675PSPI    C210456  11.791  12.053   6.345 -0.1198  0.0929 -0.2457
  675PSPI    C310457  11.966  11.986   5.992  0.0923 -0.1930 -0.0895
  675PSPI   PO410458  12.293  11.984   6.571  0.0468  0.1203  0.1276
  675PSPI   GL110459  12.190  11.968   6.953  0.3734 -0.0480  0.1035
  675PSPI   GL210460  11.922  12.207   6.783  0.0885  0.1572 -0.0562
  675PSPI   C1A10461  12.102  11.999   7.382 -0.0130 -0.0034  0.0939
  675PSPI   C2A10462  12.104  12.091   7.843 -0.0815 -0.1876 -0.2352
  675PSPI   C3A10463  12.362  12.490   8.056  0.1042 -0.0546 -0.2619
  675PSPI   C4A10464  12.603  12.826   8.190 -0.0544 -0.3941 -0.2709
  675PSPI   C1B10465  11.662  12.318   7.182  0.0024 -0.1047  0.2010
  675PSPI   C2B10466  11.660  12.096   7.535 -0.2384 -0.2436 -0.0589
  675PSPI   C3B10467  11.542  12.102   7.993 -0.1477  0.1511  0.0919
  675PSPI   C4B10468  11.197  11.964   8.128 -0.1004 -0.3439 -0.0293
  676PSPI    C110469   7.425   9.127   5.978 -0.1036  0.0002  0.0450
  676PSPI    C210470   7.041   9.069   5.883 -0.0850  0.1200 -0.1083
  676PSPI    C310471   7.313   8.789   5.795 -0.1593 -0.0342  0.1423
  676PSPI   PO410472   7.392   9.307   6.124  0.1410  0.2044  0.2650
  676PSPI   GL110473   7.359   9.458   6.543 -0.1684 -0.1754  0.0456
  676PSPI   GL210474   7.642   9.587   6.582  0.2207 -0.0226  0.2365
  676PSPI   C1A10475   7.300   9.100   6.749 -0.3049  0.2499 -0.1996
  676PSPI   C2A10476   7.168   8.936   7.156  0.0809  0.0054  0.0630
  676PSPI   C3A10477   6.817   8.788   7.289 -0.2942  0.1163  0.0682
  676PSPI   C4A10478   6.537   8.609   7.378 -0.0424  0.2032 -0.1886
  676PSPI   C1B10479   7.521   9.522   7.008 -0.1310  0.1089  0.0557
  676PSPI   C2B10480   7.454   9.354   7.473 -0.1821 -0.4427  0.1812
  676PSPI   C3B10481   7.228   9.362   7.900 -0.2576 -0.2412 -0.0328
  676PSPI   C4B10482   7.010   9.605   8.181  0.1028  0.2137  0.1662
  677PSPI    C110483   8.418   3.007   5.649  0.0101  0.1135 -0.0024
  677PSPI    C210484   8.686   3.113   5.372  0.0051  0.1061 -0.0101
  677PSPI    C310485   8.479   2.774   5.330 -0.1178  0.1898 -0.0833
  677PSPI   PO410486   8.517   3.061   5.955 -0.1042 -0.2808 -0.0402
  677PSPI   GL110487   8.671   2.994   6.395 -0.0710 -0.2726  0.0662
  677PSPI   GL210488   8.442   2.771   6.391 -0.2000  0.1511 -0.2002
  677PSPI   C1A10489   8.593   3.110   6.823 -0.0805  0.5555  0.1206
  677PSPI   C2A10490   8.458   3.064   7.274  0.0347 -0.2018 -0.2121
  677PSPI   C3A10491   8.676   2.992   7.669 -0.1098  0.2874 -0.1367
  677PSPI   C4A10492   8.872   2.838   8.126  0.2025  0.0647  0.0713
  677PSPI   C1B10493   8.386   2.677   6.714 -0.0885 -0.1900  0.1112
  677PSPI   C2B10494   8.239   2.606   7.109  0.0512  0.2080  0.2741
  677PSPI   C3B10495   8.243   2.647   7.591 -0.2056  0.2354 -0.1159
  677PSPI   C4B10496   7.939   2.420   7.823 -0.1443  0.3452 -0.1495
  678PSPI    C110497   0.785  11.871   5.819  0.0660  0.0912  0.1744
  678PSPI    C210498   0.521  11.797   5.528  0.0384  0.0829  0.2016
  678PSPI    C310499   0.879  11.621   5.522  0.1139  0.2382  0.0645
  678PSPI   PO410500   0.718  11.786   5.999 -0.1491 -0.0071  0.0999
  678PSPI   GL110501   0.802  11.465   6.322 -0.2069  0.0161 -0.1454
  678PSPI   GL210502   0.849  11.221   6.539  0.0199 -0.0527 -0.0189
  678PSPI   C1A10503   0.742  11.616   6.809 -0.3311  0.0064 -0.1745
  678PSPI   C2A10504   0.691  11.653   7.254  0.0894  0.1236  0.0969
  678PSPI   C3A10505   0.862  11.609   7.654 -0.1735  0.0339  0.0332
  678PSPI   C4A10506   0.839  11.655   8.096 -0.0186  0.1591  0.3341
  678PSPI   C1B10507   0.749  11.188   7.065  0.1251  0.0247  0.4001
  678PSPI   C2B10508   0.532  11.264   7.434  0.3419  0.2684  0.2615
  678PSPI   C3B10509   0.465  11.276   7.945 -0.1739  0.3618 -0.0993
  678PSPI   C4B10510   0.621  11.150   8.295  0.0343 -0.2972  0.1791
  679PSPI    C110511   2.213  12.811   5.874 -0.1472  0.1070 -0.1188
  679PSPI    C210512   2.445  13.132   5.821 -0.0953  0.1113  0.1236
  679PSPI    C310513   2.193  13.018   5.532  0.3784 -0.0360 -0.2451
  679PSPI   PO410514   2.416  12.623   6.001 -0.0198  0.0185  0.0795
  679PSPI   GL110515   2.609  12.608   6.445 -0.0084  0.2971  0.1888
  679PSPI   GL210516   2.612  12.923   6.685  0.2782  0.1128 -0.1958
  679PSPI   C1A10517   2.589  12.387   6.776 -0.2180  0.3602 -0.2218
  679PSPI   C2A10518   2.626  12.327   7.158  0.1147  0.1058 -0.1543
  679PSPI   C3A10519   2.756  12.372   7.528  0.0882  0.1392  0.0898
  679PSPI   C4A10520   2.671  12.370   8.051 -0.3929 -0.4766  0.1934
  679PSPI   C1B10521   2.488  12.875   7.107  0.1934 -0.0003  0.0116
  679PSPI   C2B10522   2.366  12.668   7.414 -0.2159 -0.0350  0.0718
  679PSPI   C3B10523   2.288  12.584   7.839 -0.1466  0.1349 -0.1914
  679PSPI   C4B10524   2.155  12.532   8.260 -0.3663  0.0020  0.4869
  680PSPI    C110525   0.719  10.412   5.891  0.1948  0.0062  0.0525
  680PSPI    C210526   0.510  10.746   5.825 -0.0013 -0.1090  0.0831
  680PSPI    C310527   0.601  10.504   5.520  0.1323 -0.0336  0.0624
  680PSPI   PO410528   0.754  10.468   6.152  0.0333 -0.1419 -0.2851
  680PSPI   GL110529   1.069  10.358   6.513 -0.2085  0.0431 -0.0725
  680PSPI   GL210530   1.262  10.431   6.712  0.0413 -0.0507  0.0572
  680PSPI   C1A10531   0.713  10.185   6.846  0.1704  0.1858  0.1376
  680PSPI   C2A10532   0.819  10.217   7.287  0.0805  0.1318 -0.1636
  680PSPI   C3A10533   1.072  10.260   7.681  0.3662 -0.2019  0.0578
  680PSPI   C4A10534   1.472  10.360   7.863 -0.1482 -0.1165 -0.0010
  680PSPI   C1B10535   1.335  10.452   7.107 -0.4202 -0.0938 -0.0452
  680PSPI   C2B10536   1.368  10.723   7.553  0.1701 -0.1931 -0.4453
  680PSPI   C3B10537   1.485  10.925   7.958  0.2261 -0.0420 -0.1613
  680PSPI   C4B10538   1.535  11.239   8.231 -0.0799  0.0463 -0.1901
  681PSPI    C110539  10.531   8.761   6.108 -0.1510  0.0828  0.1344
  681PSPI    C210540  10.159   8.628   6.047 -0.0708 -0.1421  0.1231
  681PSPI    C310541  10.471   8.390   5.970  0.0936  0.1913 -0.2824
  681PSPI   PO410542  10.512   8.910   6.357  0.2980 -0.1010  0.2364
  681PSPI   GL110543  10.809   9.111   6.712 -0.1700  0.3005  0.0455
  681PSPI   GL210544  10.603   9.331   6.919  0.0468 -0.1085 -0.0292
  681PSPI   C1A10545  10.793   8.823   7.083 -0.2404 -0.3341  0.1963
  681PSPI   C2A10546  10.786   8.549   7.410 -0.0848  0.0783 -0.3264
  681PSPI   C3A10547  10.902   8.326   7.623 -0.1560  0.2573  0.2386
  681PSPI   C4A10548  11.110   8.264   8.011  0.3635 -0.1444 -0.3158
  681PSPI   C1B10549  10.916   9.284   7.207 -0.1264  0.1762  0.0111
  681PSPI   C2B10550  10.944   9.119   7.649 -0.1100 -0.0628  0.1801
  681PSPI   C3B10551  10.764   8.798   7.963 -0.1279  0.0182  0.0251
  681PSPI   C4B10552  10.929   8.699   8.388  0.2094 -0.0300 -0.1924
  682PSPI    C110553   2.771   5.009   5.900  0.2578  0.0879 -0.1267
  682PSPI    C210554   2.792   4.746   5.599 -0.2523 -0.0785 -0.0266
  682PSPI    C310555   2.880   5.131   5.535 -0.0805 -0.1631 -0.3172
  682PSPI   PO410556   2.895   4.827   6.092 -0.0367  0.1301 -0.4369
  682PSPI   GL110557   3.170   4.790   6.414 -0.0368 -0.2987 -0.1587
  682PSPI   GL210558   2.866   4.885   6.663  0.0843 -0.1310 -0.0883
  682PSPI   C1A10559   3.330   4.840   6.904 -0.2300  0.0870  0.0367
  682PSPI   C2A10560   3.430   4.741   7.415 -0.3052 -0.2304 -0.3642
  682PSPI   C3A10561   3.404   4.651   7.907  0.0764  0.2442  0.2892
  682PSPI   C4A10562   3.612   4.669   8.267 -0.0761 -0.3966 -0.1577
  682PSPI   C1B10563   2.819   4.886   7.078 -0.3921  0.0457 -0.1261
  682PSPI   C2B10564   2.965   4.833   7.423 -0.1198 -0.2489  0.0804
  682PSPI   C3B10565   2.856   4.817   7.874 -0.1185 -0.3032 -0.1605
  682PSPI   C4B10566   2.783   4.805   8.369 -0.3310  0.2317 -0.1130
  683PSPI    C110567  11.683  15.261   6.256 -0.0638  0.2153  0.1321
  683PSPI    C210568  11.401  15.544   6.257 -0.0911  0.1889 -0.0124
  683PSPI    C310569  11.644  15.506   5.942 -0.1589 -0.0185 -0.0408
  683PSPI   PO410570  11.825  15.266   6.507 -0.1249 -0.1229 -0.1613
  683PSPI   GL110571  11.676  15.212   6.798 -0.0153 -0.0376  0.0895
  683PSPI   GL210572  11.625  14.948   6.998  0.2950  0.0059  0.0673
  683PSPI   C1A10573  11.670  15.446   7.190 -0.1912 -0.3179  0.0352
  683PSPI   C2A10574  11.408  15.548   7.485  0.1735  0.0132 -0.1405
  683PSPI   C3A10575  11.289  15.952   7.822  0.1734 -0.0659 -0.1515
  683PSPI   C4A10576  11.011  15.946   8.045 -0.0278  0.2233 -0.0739
  683PSPI   C1B10577  11.797  15.043   7.418 -0.1129  0.0715  0.2947
  683PSPI   C2B10578  11.914  14.965   7.820  0.2331  0.4239 -0.1035
  683PSPI   C3B10579  11.725  14.987   8.179  0.0900  0.1218  0.0487
  683PSPI   C4B10580  11.450  15.180   8.459 -0.0775 -0.0719  0.2407
  684PSPI    C110581  10.620   5.626   6.155 -0.1358  0.1368 -0.0953
  684PSPI    C210582  10.678   5.278   5.967  0.0197  0.1239 -0.0248
  684PSPI    C310583  10.657   5.617   5.757 -0.0635  0.0804 -0.0875
  684PSPI   PO410584  10.657   5.528   6.368  0.2309  0.1950  0.2477
  684PSPI   GL110585  10.652   5.746   6.705 -0.0130  0.0561 -0.5959
  684PSPI   GL210586  10.494   5.770   7.005 -0.0140  0.0167  0.0724
  684PSPI   C1A10587  10.922   6.147   6.755  0.2831  0.2599 -0.1543
  684PSPI   C2A10588  10.882   6.241   7.107 -0.0810  0.0711  0.2379
  684PSPI   C3A10589  10.901   6.297   7.500  0.4038 -0.1114  0.0687
  684PSPI   C4A10590  11.207   6.522   7.731 -0.2178  0.2035  0.0619
  684PSPI   C1B10591  10.577   5.922   7.393 -0.2470 -0.0526 -0.1420
  684PSPI   C2B10592  10.825   5.962   7.830 -0.0881  0.0968 -0.3979
  684PSPI   C3B10593  10.945   6.013   8.303 -0.0076 -0.1928  0.0000
  684PSPI   C4B10594  11.249   5.976   8.626 -0.0086 -0.1356  0.3122
  685PSPI    C110595   7.437  14.415   5.813 -0.1598 -0.0851 -0.0320
  685PSPI    C210596   7.749  14.202   5.681 -0.0675  0.0366 -0.0128
  685PSPI    C310597   7.789  14.594   5.747 -0.1692  0.0154  0.1828
  685PSPI   PO410598   7.352  14.312   6.056  0.3920 -0.2033  0.2470
  685PSPI   GL110599   7.225  13.965   6.282 -0.1193 -0.0730 -0.1016
  685PSPI   GL210600   7.021  13.630   6.412  0.1559  0.0488 -0.2354
  685PSPI   C1A10601   7.126  14.144   6.682 -0.3090  0.4205  0.1935
  685PSPI   C2A10602   7.276  14.203   7.118 -0.1670 -0.1800  0.2382
  685PSPI   C3A10603   7.014  14.413   7.406  0.0628  0.0574  0.0421
  685PSPI   C4A10604   6.926  14.573   7.807  0.3281  0.0410 -0.1202
  685PSPI   C1B10605   6.800  13.322   6.689  0.1094  0.1939 -0.0123
  685PSPI   C2B10606   6.812  13.161   7.094 -0.0722  0.5166 -0.3659
  685PSPI   C3B10607   7.016  13.480   7.429 -0.0113  0.2199  0.1978
  685PSPI   C4B10608   7.013  13.948   7.583  0.0041  0.1326 -0.1167
  686PSPI    C110609  13.850  16.167   6.251 -0.1093 -0.0642  0.0330
  686PSPI    C210610  14.101  16.331   5.986 -0.1820 -0.2287 -0.1393
  686PSPI    C310611  13.706  16.364   5.934 -0.1974 -0.0687  0.0700
  686PSPI   PO410612  13.947  16.192   6.491  0.0653  0.2312  0.1309
  686PSPI   GL110613  13.882  16.124   6.892  0.1075 -0.2477 -0.0431
  686PSPI   GL210614  13.754  16.338   7.097  0.1009 -0.2219 -0.0869
  686PSPI   C1A10615  14.107  16.045   7.386  0.0546 -0.1561  0.0075
  686PSPI   C2A10616  14.168  16.048   7.866  0.1985 -0.0252  0.2225
  686PSPI   C3A10617  14.489  16.139   8.189 -0.2765  0.1120 -0.0091
  686PSPI   C4A10618  14.815  16.130   8.535  0.1292  0.2223 -0.1935
  686PSPI   C1B10619  13.733  16.313   7.569  0.0611 -0.0430  0.3302
  686PSPI   C2B10620  13.742  16.225   8.008 -0.0847  0.0358  0.0099
  686PSPI   C3B10621  14.027  16.047   8.410 -0.0391 -0.1253  0.0216
  686PSPI   C4B10622  14.337  16.346   8.596  0.0255  0.1669 -0.0941
  687PSPI    C110623   2.856   3.390   5.850 -0.1325 -0.0989  0.1235
  687PSPI    C210624   3.057   3.340   5.508 -0.0448 -0.2046  0.1899
  687PSPI    C310625   2.708   3.536   5.508  0.2075  0.2601  0.1219
  687PSPI   PO410626   2.908   3.143   6.034 -0.1667 -0.0264 -0.0148
  687PSPI   GL110627   2.688   2.974   6.447  0.0631 -0.1438 -0.4721
  687PSPI   GL210628   2.891   2.735   6.348 -0.1370  0.0050 -0.0083
  687PSPI   C1A10629   3.002   2.973   6.782  0.1264 -0.0387 -0.2359
  687PSPI   C2A10630   3.348   3.237   6.953  0.2206  0.3441 -0.2768
  687PSPI   C3A10631   3.544   3.365   7.280  0.1319  0.4081  0.0163
  687PSPI   C4A10632   3.546   3.312   7.673 -0.1358 -0.0618  0.0249
  687PSPI   C1B10633   2.848   2.507   6.721 -0.2852 -0.5668 -0.0793
  687PSPI   C2B10634   2.851   2.483   7.168  0.2830  0.1912  0.1047
  687PSPI   C3B10635   2.871   2.504   7.615  0.1582 -0.0669 -0.2885
  687PSPI   C4B10636   2.688   2.775   7.924 -0.0035 -0.1290  0.0762
  688PSPI    C110637  10.819  10.854   5.770 -0.0379 -0.1250 -0.2429
  688PSPI    C210638  10.914  11.174   5.550  0.0270 -0.0123 -0.0526
  688PSPI    C310639  11.149  10.850   5.544 -0.0566 -0.0704 -0.2712
  688PSPI   PO410640  10.858  11.006   6.031  0.1702 -0.1836  0.1320
  688PSPI   GL110641  10.923  10.600   6.359  0.2327  0.1322  0.0234
  688PSPI   GL210642  10.879  10.827   6.523 -0.0662 -0.1262 -0.1913
  688PSPI   C1A10643  11.007  10.431   6.800 -0.3682  0.1274 -0.1294
  688PSPI   C2A10644  10.976  10.408   7.208 -0.2289  0.0866  0.0877
  688PSPI   C3A10645  11.165  10.569   7.612 -0.0458  0.2252 -0.2308
  688PSPI   C4A10646  10.895  10.689   7.982 -0.0975 -0.2390  0.1382
  688PSPI   C1B10647  11.023  10.927   6.960  0.0613  0.2810  0.0672
  688PSPI   C2B10648  11.132  10.991   7.404 -0.1540 -0.0144  0.2279
  688PSPI   C3B10649  11.173  11.195   7.735 -0.2440  0.2508 -0.1809
  688PSPI   C4B10650  11.323  10.926   8.112 -0.1488 -0.3684 -0.0077
  689PSPI    C110651   8.037   8.408   5.865  0.1810 -0.3180 -0.1526
  689PSPI    C210652   7.796   8.337   5.554 -0.2166 -0.0593  0.0881
  689PSPI    C310653   7.962   8.698   5.601 -0.0120 -0.1513  0.0808
  689PSPI   PO410654   7.996   8.145   6.056  0.0037 -0.0488 -0.0675
  689PSPI   GL110655   8.253   7.957   6.408  0.3167 -0.0036  0.1110
  689PSPI   GL210656   8.520   8.221   6.400 -0.0342  0.2158 -0.0618
  689PSPI   C1A10657   7.864   8.179   6.700 -0.0386  0.0768 -0.2205
  689PSPI   C2A10658   7.771   8.151   7.073  0.2471  0.0872 -0.2146
  689PSPI   C3A10659   7.790   8.310   7.473 -0.1000 -0.0017 -0.2692
  689PSPI   C4A10660   7.618   8.488   7.788 -0.0802  0.1000 -0.2425
  689PSPI   C1B10661   8.429   8.295   6.866  0.1662 -0.2146 -0.1489
  689PSPI   C2B10662   8.677   8.373   7.261 -0.1754 -0.1059  0.0345
  689PSPI   C3B10663   8.788   8.233   7.699 -0.1913 -0.0325  0.0860
  689PSPI   C4B10664   9.159   8.437   7.793 -0.1025  0.1706 -0.1597
  690PSPI    C110665   2.902   5.812   6.093 -0.2595  0.0615  0.0814
  690PSPI    C210666   3.117   5.499   5.969 -0.1021  0.1820  0.0468
  690PSPI    C310667   2.758   5.571   5.809 -0.0068  0.1945 -0.1643
  690PSPI   PO410668   2.922   5.732   6.358 -0.1085 -0.1792  0.1265
  690PSPI   GL110669   3.191   5.827   6.758 -0.0421 -0.2269  0.1448
  690PSPI   GL210670   3.057   6.074   6.878 -0.0113 -0.1760  0.1706
  690PSPI   C1A10671   3.507   5.856   7.054 -0.3133  0.2942  0.2117
  690PSPI   C2A10672   3.606   5.740   7.478  0.1305  0.0822  0.0252
  690PSPI   C3A10673   3.632   5.568   7.770 -0.0996 -0.0357  0.3528
  690PSPI   C4A10674   3.338   5.642   7.967 -0.3332 -0.0885  0.1643
  690PSPI   C1B10675   3.228   6.121   7.297 -0.2368 -0.0508  0.0169
  690PSPI   C2B10676   3.385   6.165   7.775  0.2128  0.0072 -0.0049
  690PSPI   C3B10677   3.200   6.078   8.142  0.0184 -0.1919  0.0812
  690PSPI   C4B10678   3.046   6.063   8.470  0.1142  0.0312  0.0708
  691PSPI    C110679  11.963  14.754   6.082  0.1208 -0.4251 -0.2389
  691PSPI    C210680  11.823  15.017   5.816  0.0391 -0.1476  0.0723
  691PSPI    C310681  11.655  14.656   5.847 -0.0402 -0.1320 -0.1553
  691PSPI   PO410682  12.084  14.824   6.217 -0.3290  0.2015 -0.3436
  691PSPI   GL110683  12.216  15.010   6.606 -0.1773 -0.1731 -0.2160
  691PSPI   GL210684  12.164  14.737   6.688  0.1491 -0.1132 -0.0052
  691PSPI   C1A10685  12.565  15.128   6.840  0.3076  0.0931 -0.0006
  691PSPI   C2A10686  12.849  15.009   7.219 -0.0896 -0.0781 -0.0968
  691PSPI   C3A10687  12.862  15.000   7.584 -0.2742 -0.0771 -0.0391
  691PSPI   C4A10688  12.917  15.173   8.045 -0.4341  0.2027  0.0857
  691PSPI   C1B10689  12.169  15.014   7.088  0.0683  0.1657  0.0694
  691PSPI   C2B10690  12.346  15.059   7.408 -0.0622 -0.3127 -0.3468
  691PSPI   C3B10691  12.440  15.070   7.855 -0.0571 -0.3467 -0.1745
  691PSPI   C4B10692  12.253  15.131   8.302 -0.1486 -0.1005  0.0628
  692PSPI    C110693  17.334   2.146   6.228 -0.1018 -0.0953 -0.0321
  692PSPI    C210694  17.183   2.503   6.329  0.6098  0.2186 -0.0205
  692PSPI    C310695  17.159   2.376   5.951 -0.1741 -0.0055  0.0871
  692PSPI   PO410696  17.269   1.989   6.450  0.0066 -0.0027 -0.2064
  692PSPI   GL110697  17.301   1.874   6.933  0.1077  0.2116 -0.3678
  692PSPI   GL210698  17.608   1.961   6.878 -0.0412  0.2680 -0.2307
  692PSPI   C1A10699  17.171   1.642   7.264 -0.1953  0.1943  0.1011
  692PSPI   C2A10700  17.319   1.527   7.577  0.0279  0.0725 -0.3096
  692PSPI   C3A10701  17.141   1.244   7.828  0.0368  0.1369  0.3332
  692PSPI   C4A10702  16.787   0.854   7.782 -0.2600  0.3587 -0.3009
  692PSPI   C1B10703  17.631   1.928   7.336 -0.2543 -0.3495 -0.7004
  692PSPI   C2B10704  17.644   1.942   7.765  0.2419 -0.1146  0.3843
  692PSPI   C3B10705  17.311   1.855   8.096  0.0395 -0.4284  0.1354
  692PSPI   C4B10706  17.276   2.099   8.485 -0.3333  0.2058  0.1204
  693POPI    C110707   2.096  10.907   5.715  0.0175 -0.1525  0.0796
  693POPI    C210708   1.879  10.612   5.552 -0.0004 -0.1630  0.1226
  693POPI    C310709   1.821  10.990   5.436 -0.0169 -0.1700  0.1082
  693POPI   PO410710   2.057  10.910   5.979 -0.1598  0.2589 -0.1167
  693POPI   GL110711   1.936  11.205   6.263  0.0871 -0.1976 -0.1462
  693POPI   GL210712   2.233  11.175   6.350  0.0096  0.3026  0.0411
  693POPI   C1A10713   1.934  10.917   6.655 -0.2995 -0.0382  0.0462
  693POPI   D2A10714   1.824  10.728   6.985  0.0018 -0.2643 -0.0592
  693POPI   C3A10715   1.765  10.919   7.357 -0.2789 -0.2272 -0.1189
  693POPI   C4A10716   1.908  10.856   7.666 -0.1207 -0.0269 -0.0622
  693POPI   C1B10717   2.288  11.330   6.699  0.1282 -0.1354 -0.2424
  693POPI   C2B10718   2.233  11.153   7.083 -0.0191  0.0565  0.1508
  693POPI   C3B10719   2.124  11.341   7.443 -0.2789 -0.1207 -0.1076
  693POPI   C4B10720   2.090  11.281   7.935  0.0919  0.1613  0.0062
  694POPI    C110721  15.869   9.807   6.543 -0.0933 -0.0257  0.0400
  694POPI    C210722  15.566   9.752   6.288  0.0496  0.1886 -0.1813
  694POPI    C310723  15.499   9.920   6.645 -0.1374 -0.0317 -0.1102
  694POPI   PO410724  16.052   9.961   6.404 -0.1413 -0.0886 -0.1427
  694POPI   GL110725  16.102  10.259   6.746  0.2179  0.1940  0.1679
  694POPI   GL210726  15.864  10.368   6.692  0.0585 -0.2461 -0.0565
  694POPI   C1A10727  15.897  10.053   7.151 -0.0481  0.3627 -0.0661
  694POPI   D2A10728  15.712  10.206   7.557 -0.4087  0.0957 -0.1556
  694POPI   C3A10729  15.481  10.116   8.016  0.1301  0.0704 -0.0504
  694POPI   C4A10730  15.155  10.170   8.199  0.0221 -0.1459  0.1002
  694POPI   C1B10731  15.689  10.579   7.055  0.0892  0.1823  0.3218
  694POPI   C2B10732  15.504  10.650   7.395 -0.1079  0.0319 -0.1582
  694POPI   C3B10733  15.461  11.003   7.686 -0.0293  0.1299 -0.2000
  694POPI   C4B10734  15.351  11.453   7.716  0.0509 -0.1158 -0.0610
  695POPI    C110735   3.985   8.233   6.322  0.1141  0.2953 -0.0029
  695POPI    C210736   3.830   8.300   5.959 -0.0970  0.0209  0.0328
  695POPI    C310737   4.074   7.989   6.019  0.0948  0.1786  0.0849
  695POPI   PO410738   3.750   8.282   6.471 -0.1722  0.2187  0.0728
  695POPI   GL110739   3.748   8.122   6.821 -0.1690 -0.0329  0.2618
  695POPI   GL210740   3.538   8.402   6.900 -0.0068  0.1652  0.0502
  695POPI   C1A10741   3.824   8.208   7.295 -0.0635 -0.1037 -0.1607
  695POPI   D2A10742   4.065   8.376   7.542  0.0462 -0.2202 -0.0328
  695POPI   C3A10743   4.509   8.206   7.647 -0.2573  0.1017  0.0834
  695POPI   C4A10744   4.659   7.839   7.985 -0.2186 -0.0743  0.2063
  695POPI   C1B10745   3.261   8.223   7.326 -0.2830 -0.2675  0.2140
  695POPI   C2B10746   3.131   8.194   7.832  0.0103  0.0595  0.0120
  695POPI   C3B10747   3.285   8.072   8.136 -0.0065  0.0159 -0.0837
  695POPI   C4B10748   3.260   7.938   8.464 -0.2747 -0.0172 -0.1372
  696POPI    C110749  13.066  17.631   6.332 -0.0005  0.1552  0.0322
  696POPI    C210750  13.363  17.621   6.064  0.1642 -0.0149  0.2174
  696POPI    C310751  13.109  17.313   6.093 -0.3054  0.3123 -0.2393
  696POPI   PO410752  13.191  17.702   6.507  0.2799  0.0165 -0.4732
  696POPI   GL110753  13.219  18.115   6.743  0.0192  0.4401  0.0406
  696POPI   GL210754  12.834  18.092   6.791  0.1677  0.2796  0.2626
  696POPI   C1A10755  13.260  18.123   7.157 -0.1662 -0.0842  0.3188
  696POPI   D2A10756  13.221  17.954   7.574  0.0547 -0.2671  0.1706
  696POPI   C3A10757  13.128  18.015   7.961  0.0691  0.0277  0.2879
  696POPI   C4A10758  12.889  17.775   8.089 -0.0017  0.0422  0.2978
  696POPI   C1B10759  12.435  18.215   7.104  0.0447  0.0505 -0.0560
  696POPI   C2B10760  12.340  18.304   7.566 -0.4043 -0.0208  0.1896
  696POPI   C3B10761  12.502  18.320   8.014  0.3724 -0.1546  0.0342
  696POPI   C4B10762  12.740  18.153   8.379 -0.3222  0.0833  0.1352
  697POPI    C110763  14.628  14.233   6.040  0.1346 -0.0949 -0.0338
  697POPI    C210764  14.349  13.993   5.883  0.0281  0.1106 -0.1642
  697POPI    C310765  14.736  13.900   5.846 -0.0164 -0.1100 -0.0938
  697POPI   PO410766  14.530  14.232   6.334 -0.2713  0.1078  0.1870
  697POPI   GL110767  14.669  14.165   6.706 -0.1657  0.1521  0.1110
  697POPI   GL210768  14.990  14.081   6.819  0.3604 -0.1907 -0.0043
  697POPI   C1A10769  14.573  14.452   7.157  0.0569 -0.0076 -0.1193
  697POPI   D2A10770  14.631  14.510   7.615 -0.1369 -0.0693 -0.0288
  697POPI   C3A10771  14.499  14.211   7.905  0.0729  0.2498 -0.2180
  697POPI   C4A10772  14.389  13.976   8.285  0.3132  0.2881  0.1310
  697POPI   C1B10773  14.885  14.045   7.180 -0.2948  0.2449  0.1020
  697POPI   C2B10774  14.842  14.051   7.569  0.1004  0.1593 -0.2466
  697POPI   C3B10775  14.737  13.780   7.902 -0.0565 -0.0144 -0.1783
  697POPI   C4B10776  14.714  13.573   8.222  0.3136  0.0406  0.0171
  698POPI    C110777   7.289   4.827   6.028  0.1168  0.1172 -0.1162
  698POPI    C210778   7.537   4.534   5.915 -0.1230 -0.0389 -0.2451
  698POPI    C310779   7.167   4.553   5.763 -0.2057  0.1674 -0.0234
  698POPI   PO410780   7.514   4.983   6.185  0.0083 -0.2609 -0.0067
  698POPI   GL110781   7.466   5.282   6.544 -0.0428 -0.0012 -0.2525
  698POPI   GL210782   7.217   5.474   6.553  0.0947 -0.1939  0.2561
  698POPI   C1A10783   7.800   5.205   6.883  0.1950 -0.0679 -0.6108
  698POPI   D2A10784   8.131   5.411   7.024  0.1420 -0.3368 -0.0883
  698POPI   C3A10785   8.182   5.466   7.452 -0.0594  0.0917  0.0436
  698POPI   C4A10786   8.168   5.371   7.815 -0.2239 -0.1310 -0.1988
  698POPI   C1B10787   7.367   5.453   7.009  0.1087 -0.1601 -0.0348
  698POPI   C2B10788   7.271   5.486   7.379 -0.0078  0.0419  0.0426
  698POPI   C3B10789   7.454   5.466   7.798 -0.1824  0.1469  0.1197
  698POPI   C4B10790   7.719   5.244   7.860 -0.3159  0.0534  0.2182
  699POPI    C110791   6.024   7.164   6.135 -0.0189  0.1315 -0.0172
  699POPI    C210792   6.116   6.835   5.927 -0.1222  0.1387 -0.0752
  699POPI    C310793   5.741   6.974   5.926 -0.0704  0.2807 -0.0849
  699POPI   PO410794   6.098   7.194   6.352  0.1809  0.0856  0.0090
  699POPI   GL110795   6.212   6.990   6.685  0.0497 -0.0091  0.1426
  699POPI   GL210796   6.124   6.758   6.775 -0.0088 -0.0615 -0.1311
  699POPI   C1A10797   6.457   7.272   6.913 -0.0154 -0.1023  0.0084
  699POPI   D2A10798   6.596   7.355   7.230  0.1532 -0.0986 -0.0406
  699POPI   C3A10799   6.374   7.543   7.543 -0.3812  0.3841 -0.1311
  699POPI   C4A10800   6.516   7.428   8.068 -0.0511  0.1652 -0.3251
  699POPI   C1B10801   5.848   6.736   7.187  0.0102  0.1279  0.0685
  699POPI   C2B10802   5.760   6.595   7.590  0.2602 -0.2356 -0.2729
  699POPI   C3B10803   5.538   6.324   7.927  0.3738  0.0219  0.0733
  699POPI   C4B10804   5.274   6.185   8.190  0.0238  0.3897 -0.0108
  700POPI    C110805  11.444  12.003   5.922  0.1351 -0.0802  0.0786
  700POPI    C210806  11.372  12.339   5.716  0.0144 -0.0793  0.1217
  700POPI    C310807  11.452  11.999   5.522 -0.0597 -0.0695  0.0739
  700POPI   PO410808  11.230  11.962   6.180  0.0458  0.0097 -0.1101
  700POPI   GL110809  11.300  11.716   6.560 -0.2958  0.0665 -0.0981
  700POPI   GL210810  11.659  11.736   6.706  0.0270 -0.3174  0.1847
  700POPI   C1A10811  11.180  11.936   6.909  0.3620 -0.1232 -0.0624
  700POPI   D2A10812  11.259  11.873   7.303 -0.2667 -0.0690  0.0836
  700POPI   C3A10813  11.091  12.102   7.693 -0.0643  0.1464  0.1701
  700POPI   C4A10814  10.698  12.389   7.813 -0.2377  0.0379  0.3320
  700POPI   C1B10815  11.748  11.777   7.131 -0.0612  0.4931 -0.0450
  700POPI   C2B10816  11.891  11.524   7.547 -0.1352 -0.1611 -0.0427
  700POPI   C3B10817  11.851  11.663   7.984 -0.2476  0.1861 -0.2560
  700POPI   C4B10818  12.102  11.704   8.418 -0.1567  0.2269  0.2551
  701POPI    C110819  12.840  11.618   5.994  0.0214 -0.0339 -0.1503
  701POPI    C210820  12.692  11.295   5.811  0.1795 -0.0880 -0.1841
  701POPI    C310821  12.477  11.631   5.826 -0.0012 -0.2050 -0.1170
  701POPI   PO410822  13.006  11.525   6.216 -0.1357  0.0240 -0.2410
  701POPI   GL110823  12.979  11.414   6.611 -0.0887  0.1210 -0.0283
  701POPI   GL210824  13.069  11.700   6.761 -0.1310 -0.0248  0.1353
  701POPI   C1A10825  13.118  11.033   6.904  0.1142 -0.2713  0.1993
  701POPI   D2A10826  13.487  10.810   7.050  0.2999  0.0204  0.0138
  701POPI   C3A10827  13.576  10.886   7.464  0.0113  0.0829 -0.3580
  701POPI   C4A10828  13.691  11.020   7.911 -0.1674 -0.1022  0.0105
  701POPI   C1B10829  13.223  11.766   7.185 -0.0639  0.2215  0.0775
  701POPI   C2B10830  13.205  11.785   7.627  0.0471 -0.2223  0.3578
  701POPI   C3B10831  13.064  11.702   8.033 -0.2119 -0.2672  0.1945
  701POPI   C4B10832  12.931  11.888   8.378 -0.1040 -0.1643 -0.2317
  702POPI    C110833   0.181   1.645   6.503 -0.0747  0.1189 -0.0196
  702POPI    C210834   0.109   1.337   6.257  0.1262 -0.1704  0.2748
  702POPI    C310835   0.463   1.523   6.247 -0.0620  0.1864 -0.0381
  702POPI   PO410836   0.113   1.601   6.717 -0.2031  0.0168  0.0018
  702POPI   GL110837  -0.078   1.392   6.937 -0.0841  0.1518 -0.0116
  702POPI   GL210838  -0.397   1.380   6.995 -0.0278  0.1292  0.0908
  702POPI   C1A10839  -0.015   1.463   7.369  0.0395  0.1276 -0.0645
  702POPI   D2A10840   0.168   1.605   7.753  0.0371 -0.0665 -0.0496
  702POPI   C3A10841   0.153   1.201   7.880 -0.0875  0.3954 -0.0839
  702POPI   C4A10842   0.380   0.899   8.140  0.1028  0.1081  0.1748
  702POPI   C1B10843  -0.365   1.124   7.387  0.0141 -0.0165  0.1884
  702POPI   C2B10844  -0.271   0.946   7.789  0.3094 -0.1668 -0.1021
  702POPI   C3B10845  -0.164   0.807   8.190 -0.2644 -0.0472 -0.1020
  702POPI   C4B10846   0.016   0.388   8.383  0.0181  0.1448  0.0361
  703POPI    C110847   0.870  13.157   5.966  0.1035  0.0322 -0.1670
  703POPI    C210848   0.762  12.774   5.918  0.0044  0.0386 -0.0020
  703POPI    C310849   0.680  12.964   6.261  0.1544  0.1743 -0.0400
  703POPI   PO410850   1.093  13.143   5.911  0.2312 -0.3025 -0.0482
  703POPI   GL110851   1.319  12.834   6.282 -0.0032  0.0811  0.1259
  703POPI   GL210852   1.296  12.611   6.275 -0.3741  0.1009  0.1673
  703POPI   C1A10853   1.076  13.005   6.605 -0.2516  0.0929 -0.1382
  703POPI   D2A10854   0.777  13.167   6.885  0.0436  0.0272 -0.0076
  703POPI   C3A10855   0.693  13.048   7.412 -0.2578  0.1824 -0.0615
  703POPI   C4A10856   0.614  12.950   7.793 -0.0686  0.0110 -0.0236
  703POPI   C1B10857   1.163  12.507   6.615 -0.0342  0.2321  0.1276
  703POPI   C2B10858   1.086  12.666   7.022 -0.0274  0.3463  0.0766
  703POPI   C3B10859   0.837  12.578   7.450  0.0593 -0.1909  0.0497
  703POPI   C4B10860   0.855  12.572   7.939 -0.3479  0.3499  0.2152
  704POPI    C110861   5.265  12.412   5.750  0.0076  0.0368  0.0946
  704POPI    C210862   5.290  12.790   5.621  0.0921  0.0296  0.0899
  704POPI    C310863   5.530  12.509   5.467  0.0000 -0.0345  0.0628
  704POPI   PO410864   5.272  12.469   6.001 -0.2796  0.3857 -0.1702
  704POPI   GL110865   5.071  12.534   6.371 -0.2038 -0.0559 -0.2201
  704POPI   GL210866   4.913  12.212   6.380 -0.0857 -0.0945 -0.0005
  704POPI   C1A10867   5.445  12.556   6.748 -0.0001  0.2138  0.6258
  704POPI   D2A10868   5.881  12.441   6.771 -0.1664 -0.2128 -0.0547
  704POPI   C3A10869   6.049  12.347   7.049 -0.1958  0.0108 -0.1753
  704POPI   C4A10870   6.192  12.334   7.500  0.0455 -0.3365  0.2459
  704POPI   C1B10871   4.928  12.160   6.807 -0.2774  0.0954 -0.1167
  704POPI   C2B10872   5.054  12.154   7.308  0.0367  0.0717  0.0560
  704POPI   C3B10873   5.102  12.079   7.770  0.1016 -0.1411 -0.0067
  704POPI   C4B10874   5.281  12.412   8.086  0.0694 -0.0512 -0.0295
  705POPI    C110875   0.338   2.068   6.328  0.0290  0.0388 -0.0515
  705POPI    C210876  -0.022   2.065   6.153 -0.0181 -0.1134  0.0462
  705POPI    C310877   0.291   2.226   5.964 -0.1929  0.2713  0.0739
  705POPI   PO410878   0.330   2.193   6.591  0.3499 -0.3144  0.0997
  705POPI   GL110879   0.324   1.943   6.970  0.2849  0.1420 -0.0400
  705POPI   GL210880   0.666   1.926   6.949 -0.0805  0.2941 -0.0491
  705POPI   C1A10881   0.262   1.951   7.381  0.1089  0.2189  0.2639
  705POPI   D2A10882   0.413   1.996   7.767  0.2993 -0.0785  0.3915
  705POPI   C3A10883   0.218   2.055   8.096  0.0767 -0.0821  0.3648
  705POPI   C4A10884  -0.095   1.911   8.329  0.0275  0.2063 -0.0124
  705POPI   C1B10885   0.746   1.857   7.368 -0.1194 -0.1544  0.1423
  705POPI   C2B10886   0.894   2.010   7.701 -0.3116  0.1159  0.1003
  705POPI   C3B10887   1.234   1.986   8.013  0.1781  0.1403 -0.1561
  705POPI   C4B10888   1.546   2.251   8.328 -0.2399  0.1512  0.1095
  706POPI    C110889  13.894   0.602   6.397  0.0546 -0.3883 -0.0313
  706POPI    C210890  13.784   0.450   6.043  0.0624 -0.3352 -0.0565
  706POPI    C310891  14.102   0.692   6.068 -0.1083 -0.1069 -0.0609
  706POPI   PO410892  13.678   0.630   6.541 -0.0253  0.0137  0.1712
  706POPI   GL110893  13.603   0.996   6.743 -0.3423 -0.3636 -0.0124
  706POPI   GL210894  13.826   1.217   6.849 -0.2846  0.0896 -0.2422
  706POPI   C1A10895  13.489   0.770   7.139 -0.1322  0.0258  0.0473
  706POPI   D2A10896  13.304   0.721   7.559  0.1686 -0.0587  0.0767
  706POPI   C3A10897  13.410   0.542   7.965  0.0279 -0.1924  0.0047
  706POPI   C4A10898  13.592   0.297   8.277 -0.0425 -0.0388  0.3050
  706POPI   C1B10899  14.118   1.504   7.122 -0.1324 -0.0409 -0.0372
  706POPI   C2B10900  13.976   1.670   7.446  0.1385  0.1076 -0.1529
  706POPI   C3B10901  13.722   1.634   7.703 -0.0906 -0.1009 -0.1768
  706POPI   C4B10902  13.499   1.638   8.004  0.0495 -0.0867  0.1221
  707POPI    C110903  15.215  11.668   5.825  0.2251 -0.0838  0.0404
  707POPI    C210904  15.148  11.721   5.434  0.1651  0.0251  0.0649
  707POPI    C310905  15.395  11.967   5.629  0.2680 -0.0859  0.0764
  707POPI   PO410906  15.063  11.622   6.014  0.2338  0.0036  0.1370
  707POPI   GL110907  15.011  11.332   6.316  0.0245  0.1116  0.2680
  707POPI   GL210908  14.963  11.080   6.291 -0.0859  0.3811  0.1247
  707POPI   C1A10909  15.122  11.508   6.729 -0.1865  0.0610  0.0609
  707POPI   D2A10910  15.252  11.938   6.987  0.3509 -0.1431  0.0433
  707POPI   C3A10911  14.936  12.234   7.118 -0.0186 -0.1316  0.4247
  707POPI   C4A10912  14.680  12.212   7.359  0.2060 -0.0944 -0.0966
  707POPI   C1B10913  14.689  11.201   6.727 -0.2093  0.1943  0.2778
  707POPI   C2B10914  14.824  11.239   7.040 -0.2941  0.0634 -0.0103
  707POPI   C3B10915  14.893  11.231   7.547  0.4130  0.0293 -0.1834
  707POPI   C4B10916  15.026  11.069   7.997 -0.2354 -0.3882 -0.0096
  708POPI    C110917  11.016  10.347   5.905  0.1273  0.1131 -0.1576
  708POPI    C210918  10.800  10.044   5.756  0.2513 -0.1566  0.1971
  708POPI    C310919  10.624  10.394   5.840  0.1473 -0.0529 -0.4124
  708POPI   PO410920  11.161  10.240   6.070 -0.2253 -0.1526  0.0779
  708POPI   GL110921  11.360  10.271   6.444  0.2065 -0.0699  0.1286
  708POPI   GL210922  11.115  10.039   6.548 -0.0960 -0.1368  0.3026
  708POPI   C1A10923  11.664  10.245   6.839 -0.0251 -0.2007  0.2201
  708POPI   D2A10924  12.030  10.191   6.949 -0.3919  0.1515  0.0664
  708POPI   C3A10925  12.093  10.137   7.365  0.1061 -0.0916  0.1514
  708POPI   C4A10926  12.018   9.978   7.782 -0.0938 -0.1402  0.0831
  708POPI   C1B10927  11.270  10.030   7.049  0.3387 -0.0086 -0.3792
  708POPI   C2B10928  11.509  10.215   7.345  0.1584 -0.2731 -0.2500
  708POPI   C3B10929  11.474  10.208   7.711  0.2009  0.0189 -0.0449
  708POPI   C4B10930  11.511   9.858   8.016 -0.3090  0.3300  0.0241
  709POPI    C110931   9.824   7.130   6.238 -0.1170 -0.0937 -0.1248
  709POPI    C210932   9.939   7.415   5.983  0.2248 -0.0098  0.1151
  709POPI    C310933   9.910   7.036   5.859  0.1812  0.0621 -0.0996
  709POPI   PO410934  10.033   7.147   6.408 -0.1597  0.3009 -0.0192
  709POPI   GL110935  10.057   7.224   6.836  0.1532 -0.0535 -0.3294
  709POPI   GL210936   9.705   7.305   6.780  0.3761  0.0200 -0.2411
  709POPI   C1A10937   9.951   7.370   7.251 -0.1288 -0.1881  0.0531
  709POPI   D2A10938   9.884   7.241   7.606 -0.0651 -0.0465  0.0231
  709POPI   C3A10939   9.754   7.289   8.000 -0.0963 -0.1196 -0.2287
  709POPI   C4A10940   9.492   6.971   8.214 -0.0140 -0.0234  0.1642
  709POPI   C1B10941   9.643   7.009   7.078 -0.2518 -0.1092  0.2467
  709POPI   C2B10942   9.643   6.818   7.447 -0.2905  0.0129  0.1453
  709POPI   C3B10943   9.729   6.794   7.830 -0.2920 -0.1417 -0.2199
  709POPI   C4B10944   9.790   6.578   8.236  0.2431  0.1909  0.0143
  710POPI    C110945   0.815  15.629   5.856 -0.1088  0.1506  0.0151
  710POPI    C210946   1.155  15.835   5.813  0.0390 -0.0578  0.1681
  710POPI    C310947   1.166  15.450   5.923 -0.2378 -0.1262 -0.0315
  710POPI   PO410948   0.638  15.699   5.977 -0.2780 -0.0151  0.0842
  710POPI   GL110949   0.597  15.643   6.428 -0.0470 -0.1057  0.2725
  710POPI   GL210950   0.963  15.694   6.344  0.0964 -0.0649  0.0514
  710POPI   C1A10951   0.439  15.652   6.835 -0.1835 -0.0640 -0.0494
  710POPI   D2A10952   0.591  15.505   7.271  0.0770  0.0529 -0.0070
  710POPI   C3A10953   0.812  15.546   7.675 -0.2861 -0.0334  0.1522
  710POPI   C4A10954   0.920  15.712   7.997  0.2545  0.1150 -0.0839
  710POPI   C1B10955   0.978  15.655   6.833 -0.3295 -0.0756  0.1159
  710POPI   C2B10956   1.084  15.567   7.166 -0.1529 -0.3817  0.0827
  710POPI   C3B10957   1.138  15.219   7.401  0.0088  0.2022 -0.2818
  710POPI   C4B10958   1.249  14.848   7.567 -0.1744 -0.4145 -0.0316
  711POPI    C110959  13.582   6.241   5.875 -0.1571 -0.0409  0.0204
  711POPI    C210960  13.808   6.370   5.572  0.0139  0.0587  0.1884
  711POPI    C310961  13.873   6.009   5.730 -0.1013 -0.0095  0.0819
  711POPI   PO410962  13.521   6.436   6.019 -0.0280 -0.0865 -0.1809
  711POPI   GL110963  13.472   6.596   6.440 -0.0898  0.1148  0.0150
  711POPI   GL210964  13.079   6.639   6.366  0.1672  0.0258 -0.1798
  711POPI   C1A10965  13.524   6.706   6.792 -0.0495 -0.0001  0.1882
  711POPI   D2A10966  13.458   7.084   7.077 -0.1004 -0.1182 -0.3653
  711POPI   C3A10967  13.768   7.284   6.944  0.0976 -0.1766 -0.1466
  711POPI   C4A10968  14.114   7.315   6.615  0.0885 -0.1417  0.1063
  711POPI   C1B10969  13.112   6.393   6.746  0.0981 -0.2220  0.0917
  711POPI   C2B10970  13.071   6.168   7.225  0.1669  0.0620 -0.1849
  711POPI   C3B10971  12.929   6.202   7.638 -0.1321 -0.0284 -0.1740
  711POPI   C4B10972  13.010   6.069   8.072 -0.0268  0.1392 -0.0036
  712POPI    C110973   8.145  10.677   6.193  0.2199 -0.1600  0.0713
  712POPI    C210974   7.934  10.345   6.123 -0.0488  0.0232 -0.0027
  712POPI    C310975   8.019  10.596   5.823  0.1984 -0.0035  0.0433
  712POPI   PO410976   8.164  10.663   6.484  0.0646  0.1196 -0.0688
  712POPI   GL110977   8.433  10.521   6.819  0.3884  0.0987 -0.1213
  712POPI   GL210978   8.479  10.804   6.836  0.0904 -0.2012 -0.1468
  712POPI   C1A10979   8.306  10.555   7.275  0.4320  0.2327 -0.1094
  712POPI   D2A10980   8.060  10.392   7.558 -0.2483 -0.0372  0.4511
  712POPI   C3A10981   8.279  10.413   8.018  0.0378 -0.0965 -0.2039
  712POPI   C4A10982   8.397  10.585   8.483 -0.0069 -0.1294  0.2021
  712POPI   C1B10983   8.757  10.810   7.250 -0.2152  0.0543 -0.1135
  712POPI   C2B10984   9.091  11.010   7.493  0.1173  0.2298 -0.0969
  712POPI   C3B10985   9.323  11.016   7.781 -0.0523  0.4399 -0.0851
  712POPI   C4B10986   9.438  10.809   8.198  0.1606  0.2633  0.3794
  713POPI    C110987   1.159   2.808   6.126  0.0066  0.1209  0.0254
  713POPI    C210988   1.195   2.486   5.892 -0.0525  0.1795 -0.0653
  713POPI    C310989   1.364   2.832   5.783  0.0486  0.1683  0.0537
  713POPI   PO410990   1.245   2.760   6.384 -0.0422 -0.0180 -0.1243
  713POPI   GL110991   1.249   2.375   6.502 -0.1337 -0.0268  0.3270
  713POPI   GL210992   1.470   2.414   6.695  0.4768  0.1835 -0.0722
  713POPI   C1A10993   1.175   2.179   7.020  0.0830  0.3790  0.2438
  713POPI   D2A10994   1.335   2.044   7.427  0.0778  0.0479 -0.3300
  713POPI   C3A10995   1.264   1.631   7.641  0.1684  0.0583 -0.0022
  713POPI   C4A10996   1.169   1.202   7.741 -0.0196 -0.2005 -0.0881
  713POPI   C1B10997   1.659   2.632   7.056  0.1583 -0.0416  0.2000
  713POPI   C2B10998   1.628   2.585   7.512  0.2547  0.0383  0.0149
  713POPI   C3B10999   1.623   2.194   7.780  0.2035 -0.3508 -0.4703
  713POPI   C4B11000   1.701   1.786   7.886 -0.0800  0.2944  0.0871
  714POPI    C111001   9.982   4.429   6.331 -0.1171  0.0168  0.0603
  714POPI    C211002   9.736   4.505   6.637 -0.2475 -0.0494 -0.0274
  714POPI    C311003   9.587   4.442   6.271 -0.1000 -0.0900 -0.0811
  714POPI   PO411004  10.225   4.601   6.397  0.2069  0.0678 -0.1265
  714POPI   GL111005  10.410   4.723   6.798 -0.0678 -0.2208  0.3605
  714POPI   GL211006  10.091   4.945   6.879  0.1433 -0.2365  0.2949
  714POPI   C1A11007  10.459   4.518   7.105 -0.0073  0.1921  0.0196
  714POPI   D2A11008  10.383   4.523   7.544  0.0998  0.4848 -0.1873
  714POPI   C3A11009   9.955   4.510   7.453  0.0752  0.0534 -0.0207
  714POPI   C4A11010   9.962   4.510   7.063  0.2644 -0.4310  0.0672
  714POPI   C1B11011  10.035   4.980   7.332  0.2834  0.1759  0.2562
  714POPI   C2B11012  10.089   4.815   7.803  0.2446  0.4256 -0.1373
  714POPI   C3B11013   9.987   4.469   8.318 -0.1194 -0.1837 -0.1934
  714POPI   C4B11014  10.006   4.439   8.842  0.0509 -0.0280  0.1975
  715POPI    C111015  15.077  17.251   6.115  0.0531  0.1303 -0.1269
  715POPI    C211016  15.143  17.535   5.841 -0.1464  0.1565 -0.1495
  715POPI    C311017  14.771  17.465   5.971 -0.0708  0.0495  0.0129
  715POPI   PO411018  15.334  17.246   6.268  0.0135  0.1846 -0.0826
  715POPI   GL111019  15.255  17.265   6.703 -0.2483 -0.0656  0.1793
  715POPI   GL211020  15.478  17.152   6.877  0.0837 -0.2091  0.0014
  715POPI   C1A11021  15.150  17.559   7.052 -0.2298  0.1096 -0.1533
  715POPI   D2A11022  15.122  17.614   7.522 -0.1207 -0.1493 -0.1053
  715POPI   C3A11023  15.121  17.699   7.983  0.3688 -0.0390  0.1952
  715POPI   C4A11024  15.219  17.988   8.325  0.0196  0.1546  0.1588
  715POPI   C1B11025  15.651  17.384   7.172  0.2126  0.1478  0.0238
  715POPI   C2B11026  15.592  17.496   7.719  0.0056 -0.0393  0.1507
  715POPI   C3B11027  15.639  17.578   8.155 -0.0561 -0.1660  0.1030
  715POPI   C4B11028  15.447  17.514   8.656  0.1482 -0.0599  0.0563
  716POPI    C111029   0.143  11.058   6.081  0.1157  0.0461 -0.0364
  716POPI    C211030  -0.066  11.024   5.742 -0.1217 -0.1342  0.1243
  716POPI    C311031  -0.121  11.341   5.980 -0.0668 -0.0839  0.0705
  716POPI   PO411032   0.119  10.822   6.153 -0.0173 -0.0658  0.0704
  716POPI   GL111033  -0.179  10.546   6.302 -0.0486  0.1798  0.2031
  716POPI   GL211034  -0.416  10.613   6.524  0.2459 -0.6689  0.4475
  716POPI   C1A11035  -0.121  10.241   6.593 -0.0804 -0.0107  0.1044
  716POPI   D2A11036  -0.225   9.784   6.747 -0.2138  0.2953  0.1019
  716POPI   C3A11037   0.047   9.437   6.649 -0.0362  0.1473  0.1902
  716POPI   C4A11038   0.220   9.055   6.762 -0.2134  0.1776  0.0998
  716POPI   C1B11039  -0.159  10.630   6.997  0.0877 -0.1461 -0.1182
  716POPI   C2B11040  -0.227  10.526   7.448  0.0694 -0.1976 -0.0961
  716POPI   C3B11041  -0.299  10.230   7.856  0.1003 -0.3910  0.4653
  716POPI   C4B11042  -0.217  10.201   8.264 -0.0661  0.0777 -0.0733
  717POPI    C111043   2.424   1.527   5.978  0.0137 -0.0297 -0.0601
  717POPI    C211044   2.069   1.428   6.133  0.1353 -0.1516  0.1458
  717POPI    C311045   2.281   1.156   5.931 -0.0063 -0.0036 -0.2110
  717POPI   PO411046   2.572   1.707   6.128 -0.1084  0.0513 -0.2939
  717POPI   GL111047   2.545   2.032   6.568 -0.2510  0.1721  0.1971
  717POPI   GL211048   2.809   1.850   6.615 -0.1322 -0.0054 -0.0899
  717POPI   C1A11049   2.363   2.168   6.958 -0.3124  0.0448 -0.3531
  717POPI   D2A11050   2.490   2.226   7.360  0.0008 -0.1365 -0.2251
  717POPI   C3A11051   2.628   2.043   7.793  0.1942  0.0016 -0.0715
  717POPI   C4A11052   2.642   1.633   8.064  0.2140 -0.2393  0.2963
  717POPI   C1B11053   2.828   1.984   7.030 -0.1166  0.0600 -0.0895
  717POPI   C2B11054   2.925   1.880   7.427  0.0246  0.1655 -0.1349
  717POPI   C3B11055   3.076   1.797   7.852  0.2836  0.1706 -0.1100
  717POPI   C4B11056   3.206   1.631   8.261 -0.0385 -0.2413  0.0814
  718POPI    C111057  17.361  12.208   5.582 -0.2287 -0.1267  0.0898
  718POPI    C211058  17.024  12.365   5.433 -0.1713  0.0354  0.1296
  718POPI    C311059  17.375  12.438   5.255 -0.1050  0.2105  0.3276
  718POPI   PO411060  17.286  12.256   5.858 -0.3899  0.2320 -0.2148
  718POPI   GL111061  17.382  12.168   6.239 -0.2403 -0.0179  0.1625
  718POPI   GL211062  17.118  12.219   6.365  0.2315 -0.1722  0.1300
  718POPI   C1A11063  17.737  12.032   6.468 -0.1692  0.1890 -0.0421
  718POPI   D2A11064  17.834  11.671   6.565  0.2601 -0.3968 -0.2918
  718POPI   C3A11065  17.511  11.608   6.916 -0.1690 -0.0571 -0.0419
  718POPI   C4A11066  17.422  11.524   7.384 -0.1744 -0.2538  0.0526
  718POPI   C1B11067  16.849  11.939   6.588 -0.2180  0.2479 -0.1338
  718POPI   C2B11068  16.615  11.684   6.943  0.4014 -0.2752  0.0828
  718POPI   C3B11069  16.691  11.499   7.366  0.2618  0.0507  0.0896
  718POPI   C4B11070  16.885  11.410   7.720 -0.1648  0.1278  0.0764
  719POPI    C111071   6.851   8.588   5.845  0.1019  0.0662 -0.2194
  719POPI    C211072   6.481   8.684   5.963  0.2290  0.1512  0.1219
  719POPI    C311073   6.636   8.851   5.634 -0.0481  0.0848 -0.0457
  719POPI   PO411074   7.015   8.471   6.070  0.0829 -0.0674  0.1019
  719POPI   GL111075   7.141   8.778   6.304 -0.0664 -0.1370  0.1726
  719POPI   GL211076   6.920   9.051   6.387 -0.3771  0.1275  0.0653
  719POPI   C1A11077   7.014   8.646   6.720  0.2375 -0.2389  0.0259
  719POPI   D2A11078   6.570   8.752   6.812 -0.4754 -0.0212 -0.1482
  719POPI   C3A11079   6.231   8.766   7.007 -0.0267 -0.1245 -0.1155
  719POPI   C4A11080   5.833   8.729   7.038 -0.0579  0.0678 -0.0151
  719POPI   C1B11081   6.840   9.258   6.859 -0.1032  0.2264 -0.0427
  719POPI   C2B11082   7.041   9.413   7.065  0.1171  0.3509 -0.3951
  719POPI   C3B11083   6.947   9.342   7.421 -0.1491 -0.3677  0.0151
  719POPI   C4B11084   6.710   9.471   7.697  0.0756 -0.2802 -0.1344
  720POPI    C111085  12.052  16.394   6.184  0.1808  0.0703 -0.0201
  720POPI    C211086  12.027  16.590   5.836 -0.1324 -0.1020 -0.0991
  720POPI    C311087  12.285  16.286   5.877 -0.0441 -0.0353 -0.1564
  720POPI   PO411088  11.748  16.355   6.266 -0.2037 -0.1065  0.2207
  720POPI   GL111089  11.615  16.154   6.577  0.0005  0.0775  0.2063
  720POPI   GL211090  11.298  15.967   6.581 -0.0561 -0.1938  0.2003
  720POPI   C1A11091  11.448  16.396   6.926  0.2293  0.0765 -0.3248
  720POPI   D2A11092  11.302  16.766   7.160 -0.1101 -0.1951  0.0349
  720POPI   C3A11093  11.117  17.100   7.286  0.0883  0.1940  0.0106
  720POPI   C4A11094  10.998  17.087   7.741  0.0720  0.1806  0.0783
  720POPI   C1B11095  11.465  15.913   7.109  0.0228 -0.0647  0.1734
  720POPI   C2B11096  11.719  15.982   7.516  0.1107  0.1389 -0.0309
  720POPI   C3B11097  11.757  15.997   8.020  0.0382 -0.0819 -0.0097
  720POPI   C4B11098  11.459  16.079   8.289  0.0754 -0.1156 -0.1040
  721POPI    C111099   4.462   0.475   5.797  0.1677 -0.0314  0.0728
  721POPI    C211100   4.270   0.148   5.923 -0.0729  0.0731 -0.0176
  721POPI    C311101   4.090   0.402   5.672  0.0595  0.3474  0.1588
  721POPI   PO411102   4.563   0.528   6.111 -0.0445 -0.1481 -0.1928
  721POPI   GL111103   4.490   0.334   6.524  0.1434 -0.1142  0.3110
  721POPI   GL211104   4.395   0.538   6.696  0.1041  0.2549 -0.0420
  721POPI   C1A11105   4.630   0.034   6.895 -0.1926  0.1143 -0.5344
  721POPI   D2A11106   4.658   0.182   7.290 -0.0116 -0.1528  0.1279
  721POPI   C3A11107   4.989   0.039   7.484  0.1577 -0.0229  0.2074
  721POPI   C4A11108   5.348  -0.010   7.899  0.0246 -0.0426 -0.1685
  721POPI   C1B11109   4.276   0.385   7.087 -0.0905 -0.0787  0.3053
  721POPI   C2B11110   4.241   0.302   7.488  0.0506  0.4694  0.0239
  721POPI   C3B11111   4.534   0.429   7.718 -0.0747  0.0652 -0.0195
  721POPI   C4B11112   4.853   0.225   7.899 -0.0216  0.0258  0.1030
  722POPI    C111113   4.059   9.164   6.265  0.2826 -0.1067 -0.1027
  722POPI    C211114   4.006   8.869   6.000 -0.2010  0.0508 -0.1917
  722POPI    C311115   3.725   9.150   6.045 -0.0711  0.0985  0.4032
  722POPI   PO411116   4.240   9.135   6.373 -0.4290  0.0916 -0.2431
  722POPI   GL111117   4.313   9.035   6.747  0.0399  0.1928  0.3204
  722POPI   GL211118   4.035   9.137   6.821 -0.1852  0.0977  0.3091
  722POPI   C1A11119   4.519   8.934   7.138  0.1584  0.0467 -0.2638
  722POPI   D2A11120   4.405   8.742   7.491  0.0220 -0.0832  0.0814
  722POPI   C3A11121   4.495   8.980   7.900 -0.1051  0.2379 -0.1140
  722POPI   C4A11122   4.822   9.219   8.057 -0.1602 -0.2152  0.0695
  722POPI   C1B11123   3.935   8.786   7.001  0.3184 -0.0025  0.0002
  722POPI   C2B11124   3.715   8.715   7.264  0.3281 -0.0735 -0.1518
  722POPI   C3B11125   3.639   8.709   7.598  0.0015 -0.2185  0.0541
  722POPI   C4B11126   3.904   8.788   7.889 -0.1517  0.4250 -0.0075
  723POPI    C111127   0.762  16.511   5.994 -0.0379  0.0314 -0.2190
  723POPI    C211128   1.007  16.227   6.133 -0.2033 -0.0453 -0.0812
  723POPI    C311129   0.785  16.158   5.807 -0.2967 -0.1010 -0.0063
  723POPI   PO411130   0.946  16.739   6.015  0.4288 -0.1521 -0.1700
  723POPI   GL111131   0.843  17.099   6.374 -0.0502 -0.2795 -0.0091
  723POPI   GL211132   0.597  16.972   6.515 -0.0503 -0.1166 -0.1951
  723POPI   C1A11133   1.074  16.926   6.767 -0.0829  0.1261  0.3211
  723POPI   D2A11134   1.122  16.532   6.888  0.0052  0.4685  0.1874
  723POPI   C3A11135   1.436  16.453   7.157 -0.0398  0.3058  0.0728
  723POPI   C4A11136   1.375  16.492   7.573 -0.1233  0.2307  0.2020
  723POPI   C1B11137   0.411  17.146   6.888 -0.0347 -0.2371 -0.0946
  723POPI   C2B11138   0.375  16.914   7.311 -0.0640  0.1859  0.3360
  723POPI   C3B11139   0.027  16.940   7.633 -0.0320  0.0343  0.0236
  723POPI   C4B11140  -0.243  16.701   7.856 -0.2022 -0.1234  0.1755
  724POPI    C111141   3.039   7.335   6.051  0.0793 -0.0451 -0.0921
  724POPI    C211142   3.212   7.188   5.721 -0.0278 -0.2013 -0.0794
  724POPI    C311143   2.819   7.140   5.779  0.0104 -0.2750  0.1252
  724POPI   PO411144   3.247   7.449   6.217  0.0049 -0.2126  0.0701
  724POPI   GL111145   3.363   7.803   6.651 -0.1070  0.1706  0.0362
  724POPI   GL211146   3.600   7.530   6.582  0.2552 -0.0402  0.0390
  724POPI   C1A11147   2.996   7.840   6.972  0.2048 -0.0932  0.1193
  724POPI   D2A11148   2.967   7.851   7.437 -0.1471 -0.1874 -0.0297
  724POPI   C3A11149   3.133   7.584   7.766  0.0240 -0.0963  0.1185
  724POPI   C4A11150   3.194   7.588   8.151 -0.2284 -0.1591  0.1107
  724POPI   C1B11151   3.691   7.611   7.013  0.1502 -0.0374  0.0228
  724POPI   C2B11152   3.518   7.772   7.413 -0.0085 -0.2868 -0.0198
  724POPI   C3B11153   3.580   8.155   7.704 -0.0348  0.1920  0.0217
  724POPI   C4B11154   3.732   8.310   8.036 -0.3343 -0.1049 -0.1581
  725POPI    C111155   4.340   3.730   5.963 -0.0246  0.0545  0.0636
  725POPI    C211156   4.658   3.700   5.722 -0.2592 -0.3982 -0.2028
  725POPI    C311157   4.378   3.976   5.649  0.0598  0.0000  0.0307
  725POPI   PO411158   4.362   3.412   6.014  0.0842 -0.3215 -0.0523
  725POPI   GL111159   4.087   3.083   6.229 -0.2014  0.0124  0.1360
  725POPI   GL211160   3.863   2.903   6.473  0.0950 -0.2436 -0.2918
  725POPI   C1A11161   4.348   2.772   6.533 -0.1115  0.2388 -0.3499
  725POPI   D2A11162   4.414   2.613   6.996 -0.2273 -0.1017 -0.0877
  725POPI   C3A11163   4.582   2.459   7.305  0.1373  0.1655 -0.0525
  725POPI   C4A11164   4.463   2.535   7.684  0.1397 -0.1013 -0.0400
  725POPI   C1B11165   3.988   2.843   6.930 -0.0238 -0.1959  0.4099
  725POPI   C2B11166   3.926   3.062   7.275 -0.0679 -0.0419 -0.4229
  725POPI   C3B11167   4.216   3.038   7.672  0.0456  0.1128  0.0100
  725POPI   C4B11168   4.231   2.859   8.082  0.0889  0.1523  0.2168
  726POPI    C111169  14.909   6.953   5.975 -0.1835 -0.0780  0.0749
  726POPI    C211170  15.025   6.590   5.855  0.0222  0.0758 -0.2038
  726POPI    C311171  15.290   6.839   6.021 -0.1586  0.0356  0.1555
  726POPI   PO411172  14.721   6.869   6.148  0.0136 -0.0094  0.1381
  726POPI   GL111173  14.602   6.827   6.531 -0.5369 -0.0341 -0.0214
  726POPI   GL211174  14.323   6.831   6.516  0.0229  0.0750  0.1742
  726POPI   C1A11175  14.695   6.785   6.974 -0.0408  0.0130  0.1196
  726POPI   D2A11176  14.635   6.954   7.397 -0.1477 -0.0813 -0.0109
  726POPI   C3A11177  14.825   6.817   7.723 -0.0821 -0.1576  0.2877
  726POPI   C4A11178  15.223   6.759   7.780 -0.2513  0.0663  0.1391
  726POPI   C1B11179  14.187   6.982   6.987  0.0430  0.1791 -0.0170
  726POPI   C2B11180  14.119   7.274   7.314 -0.0020 -0.0406 -0.3482
  726POPI   C3B11181  14.070   7.426   7.753  0.2924 -0.0685  0.7050
  726POPI   C4B11182  14.284   7.395   8.120 -0.0221 -0.0359  0.0709
  727POPI    C111183   8.903  12.889   5.875 -0.3508 -0.0348  0.1647
  727POPI    C211184   9.237  12.896   6.094 -0.1010  0.0361 -0.2090
  727POPI    C311185   9.021  12.560   6.069  0.0608 -0.0745 -0.1397
  727POPI   PO411186   8.756  13.040   5.981 -0.0488  0.1013 -0.0659
  727POPI   GL111187   8.613  12.906   6.327 -0.1092 -0.3461 -0.3401
  727POPI   GL211188   8.297  13.005   6.427 -0.0217 -0.0781 -0.0142
  727POPI   C1A11189   8.788  12.505   6.520  0.0164 -0.1181  0.3547
  727POPI   D2A11190   9.006  12.100   6.288 -0.2034  0.3052 -0.2528
  727POPI   C3A11191   9.352  12.024   6.633 -0.0045 -0.0954 -0.0216
  727POPI   C4A11192   9.412  12.092   7.069 -0.1483  0.2692 -0.2454
  727POPI   C1B11193   8.485  12.797   6.790  0.0163 -0.0119  0.0991
  727POPI   C2B11194   8.714  12.646   7.211 -0.0094 -0.0933  0.1011
  727POPI   C3B11195   8.726  12.650   7.616  0.1280  0.0599  0.1605
  727POPI   C4B11196   8.680  12.847   8.078 -0.2995  0.0880 -0.1243
  728POPI    C111197  10.751   7.615   6.198 -0.2281  0.0166  0.1177
  728POPI    C211198  11.077   7.764   6.019 -0.1160 -0.2045  0.1345
  728POPI    C311199  10.804   8.011   6.176  0.0973 -0.0185  0.2174
  728POPI   PO411200  10.835   7.427   6.321  0.0181  0.0910  0.3533
  728POPI   GL111201  10.842   7.290   6.750  0.3247  0.0692 -0.1765
  728POPI   GL211202  11.105   7.071   6.680  0.0084  0.2257  0.2520
  728POPI   C1A11203  10.550   7.269   6.957  0.2590  0.0205  0.3822
  728POPI   D2A11204  10.480   7.239   7.340 -0.0804 -0.4178  0.1518
  728POPI   C3A11205  10.520   7.346   7.807 -0.0815 -0.2142  0.1360
  728POPI   C4A11206  10.655   7.357   8.275  0.1941  0.1134 -0.0035
  728POPI   C1B11207  11.204   7.221   7.036 -0.1731 -0.2511 -0.0655
  728POPI   C2B11208  11.361   7.197   7.451 -0.3952 -0.1454 -0.1057
  728POPI   C3B11209  11.427   7.018   7.783  0.3901 -0.0562  0.0084
  728POPI   C4B11210  11.564   7.026   8.275 -0.0146 -0.1047 -0.0336
  729POPI    C111211  12.294  11.036   6.078  0.1853 -0.1552 -0.0006
  729POPI    C211212  12.451  10.780   5.814  0.0247 -0.2812  0.0247
  729POPI    C311213  12.080  10.920   5.760  0.2033  0.1490 -0.1264
  729POPI   PO411214  12.380  10.910   6.305  0.0554  0.1438  0.0132
  729POPI   GL111215  12.577  11.109   6.692 -0.2980 -0.1213  0.2287
  729POPI   GL211216  12.740  10.837   6.689  0.2555 -0.0290 -0.0965
  729POPI   C1A11217  12.706  10.911   7.154  0.1985 -0.1067  0.3313
  729POPI   D2A11218  13.113  10.861   7.408  0.3612 -0.2830  0.2747
  729POPI   C3A11219  13.237  10.705   7.800  0.1793 -0.1151 -0.0436
  729POPI   C4A11220  13.343  10.250   7.873 -0.0177  0.3182 -0.0876
  729POPI   C1B11221  12.386  10.521   6.848  0.0805  0.0438  0.1257
  729POPI   C2B11222  12.399  10.558   7.244 -0.1350  0.0690  0.1154
  729POPI   C3B11223  12.408  10.604   7.710  0.0565  0.0165 -0.0257
  729POPI   C4B11224  12.394  10.801   8.068  0.1146  0.1710 -0.1412
  730POPI    C111225   4.037   7.447   5.905  0.0643  0.3460 -0.4364
  730POPI    C211226   4.354   7.630   5.744  0.4927 -0.1863 -0.2258
  730POPI    C311227   4.301   7.237   5.691 -0.0034 -0.1496 -0.0514
  730POPI   PO411228   3.984   7.488   6.104  0.0851 -0.2274  0.0577
  730POPI   GL111229   3.961   7.151   6.486 -0.3037  0.0787  0.2099
  730POPI   GL211230   4.066   6.894   6.680 -0.1566  0.0627 -0.2851
  730POPI   C1A11231   4.340   7.368   6.704  0.0754  0.0208  0.4269
  730POPI   D2A11232   4.480   7.416   7.048 -0.0542 -0.0680  0.3016
  730POPI   C3A11233   4.424   7.387   7.480  0.0138 -0.0468 -0.1199
  730POPI   C4A11234   4.516   7.341   7.900  0.1966  0.0000 -0.0029
  730POPI   C1B11235   3.898   7.100   6.962 -0.0797 -0.0760 -0.0057
  730POPI   C2B11236   3.897   7.307   7.345 -0.1855 -0.0603  0.1044
  730POPI   C3B11237   3.985   7.215   7.709 -0.6017  0.4405 -0.0083
  730POPI   C4B11238   4.035   7.452   8.087 -0.1156  0.0261 -0.0376
  731POPI    C111239   5.177   1.480   5.428 -0.0844  0.2415 -0.0794
  731POPI    C211240   5.176   1.249   5.101 -0.2284 -0.0445  0.1195
  731POPI    C311241   4.841   1.294   5.316 -0.1925  0.3236  0.1046
  731POPI   PO411242   5.380   1.403   5.647 -0.0892 -0.0382  0.0226
  731POPI   GL111243   5.449   1.418   6.055  0.1604 -0.2195  0.0255
  731POPI   GL211244   5.159   1.316   6.226  0.0959  0.0745 -0.0950
  731POPI   C1A11245   5.686   1.408   6.351 -0.0269  0.0548 -0.1292
  731POPI   D2A11246   6.071   1.474   6.533 -0.1299  0.1754  0.0738
  731POPI   C3A11247   6.155   1.799   6.843  0.1541 -0.2263  0.0044
  731POPI   C4A11248   6.227   2.242   7.110  0.2433  0.2102 -0.1865
  731POPI   C1B11249   5.222   1.512   6.567 -0.0890 -0.3833 -0.0587
  731POPI   C2B11250   5.106   1.603   6.950  0.0536  0.0881 -0.1181
  731POPI   C3B11251   5.221   1.586   7.320  0.2646  0.0928  0.3208
  731POPI   C4B11252   5.497   1.663   7.604  0.2074  0.1944 -0.1544
  732POPI    C111253   1.902  13.144   6.076  0.0330  0.0119  0.1781
  732POPI    C211254   1.618  13.063   5.807  0.1594 -0.1831  0.1010
  732POPI    C311255   1.818  13.409   5.787 -0.0462 -0.0603  0.1345
  732POPI   PO411256   1.753  13.112   6.343  0.0265 -0.4166 -0.1762
  732POPI   GL111257   1.565  13.376   6.682  0.0294 -0.0994  0.1788
  732POPI   GL211258   1.945  13.307   6.723 -0.0509  0.1349 -0.2488
  732POPI   C1A11259   1.303  13.162   7.005 -0.1514  0.1075  0.0892
  732POPI   D2A11260   1.236  13.032   7.423  0.1049 -0.2817  0.0243
  732POPI   C3A11261   1.163  12.951   7.762 -0.1150  0.0140 -0.0964
  732POPI   C4A11262   1.025  12.948   8.181  0.0205 -0.0479  0.2510
  732POPI   C1B11263   1.806  13.280   7.132  0.1821  0.2572 -0.1228
  732POPI   C2B11264   1.576  13.384   7.491  0.0217 -0.0037  0.2530
  732POPI   C3B11265   1.396  13.581   7.876 -0.1133  0.5372  0.1910
  732POPI   C4B11266   1.289  13.450   8.292 -0.1039 -0.2846 -0.1181
  733POPI    C111267   7.830  13.427   6.091  0.3105  0.4177 -0.0126
  733POPI    C211268   7.450  13.550   6.113  0.2195  0.1336  0.0442
  733POPI    C311269   7.663  13.620   5.782  0.0340  0.0617 -0.0918
  733POPI   PO411270   7.817  13.218   6.305  0.0788  0.1896 -0.1287
  733POPI   GL111271   7.749  13.381   6.625 -0.0185 -0.0601 -0.0885
  733POPI   GL211272   7.476  13.510   6.628  0.0376 -0.0138  0.0179
  733POPI   C1A11273   8.059  13.765   6.850 -0.2144 -0.1050  0.0946
  733POPI   D2A11274   8.132  13.849   7.337  0.1089  0.2894  0.2774
  733POPI   C3A11275   8.142  13.696   7.709  0.0144  0.3669  0.0430
  733POPI   C4A11276   8.351  13.371   7.986 -0.1677  0.1866 -0.1661
  733POPI   C1B11277   7.528  13.777   6.970 -0.1505  0.0019  0.2878
  733POPI   C2B11278   7.535  13.852   7.450 -0.2133  0.0932 -0.1781
  733POPI   C3B11279   7.420  13.719   7.801 -0.3134  0.1228 -0.1130
  733POPI   C4B11280   7.292  13.737   8.383 -0.1147 -0.2794 -0.3356
  734POPI    C111281   9.850   3.895   5.917  0.0690 -0.0217  0.1496
  734POPI    C211282  10.200   3.800   5.747  0.0616  0.2046  0.0033
  734POPI    C311283   9.874   3.580   5.671  0.1748 -0.0190  0.1562
  734POPI   PO411284   9.940   3.932   6.217  0.2077  0.0931  0.1938
  734POPI   GL111285   9.666   3.988   6.551 -0.1203  0.0283  0.2322
  734POPI   GL211286   9.966   4.050   6.764  0.2577 -0.2924  0.0059
  734POPI   C1A11287   9.637   3.879   7.087 -0.2580  0.0726  0.0666
  734POPI   D2A11288   9.834   3.883   7.368  0.0970 -0.1314  0.0541
  734POPI   C3A11289   9.708   4.055   7.750 -0.0324 -0.0171  0.3560
  734POPI   C4A11290   9.371   4.005   7.995 -0.0244  0.1049 -0.3241
  734POPI   C1B11291  10.205   4.100   7.163 -0.0877  0.1328  0.0763
  734POPI   C2B11292  10.207   4.002   7.593 -0.3550 -0.0332  0.1955
  734POPI   C3B11293  10.131   4.097   7.957 -0.1915 -0.3476 -0.1928
  734POPI   C4B11294   9.936   3.930   8.326  0.0011 -0.2592  0.0487
  735POPI    C111295  15.474   3.242   6.174  0.0887  0.0843  0.2251
  735POPI    C211296  15.184   3.018   6.334  0.0274  0.0025  0.0023
  735POPI    C311297  15.484   2.844   6.135  0.1174  0.1015  0.0506
  735POPI   PO411298  15.575   3.428   6.387 -0.3044 -0.0466 -0.0918
  735POPI   GL111299  15.636   3.607   6.771 -0.0902 -0.0277  0.0133
  735POPI   GL211300  15.549   3.926   6.773  0.1141  0.1550 -0.4217
  735POPI   C1A11301  15.694   3.609   7.272  0.0334  0.2943  0.0982
  735POPI   D2A11302  15.755   3.504   7.747  0.0979  0.2211 -0.3855
  735POPI   C3A11303  15.392   3.684   7.915 -0.0404 -0.1730 -0.0213
  735POPI   C4A11304  15.202   4.032   7.840  0.1700 -0.1215  0.0384
  735POPI   C1B11305  15.493   4.185   7.148 -0.1147  0.0523  0.1850
  735POPI   C2B11306  15.159   4.291   7.386 -0.0572  0.0005 -0.0558
  735POPI   C3B11307  14.845   4.395   7.730  0.3390 -0.1330 -0.0584
  735POPI   C4B11308  14.792   4.430   8.167 -0.2374 -0.1836  0.1388
  736POPI    C111309  17.458  15.272   5.739 -0.0601 -0.2333  0.1868
  736POPI    C211310  17.844  15.235   5.638 -0.1243  0.0839 -0.1966
  736POPI    C311311  17.559  15.077   5.405 -0.2302 -0.1422  0.0807
  736POPI   PO411312  17.402  15.223   5.962  0.2176 -0.0004 -0.0839
  736POPI   GL111313  17.645  15.173   6.243 -0.0469 -0.1876  0.2835
  736POPI   GL211314  17.770  14.809   6.344 -0.0004 -0.3260  0.0160
  736POPI   C1A11315  17.396  15.076   6.674 -0.0141 -0.0388  0.0813
  736POPI   D2A11316  17.255  14.829   6.832 -0.0284  0.3775 -0.2153
  736POPI   C3A11317  17.215  14.718   7.283 -0.2111 -0.3306 -0.1026
  736POPI   C4A11318  16.934  14.636   7.562 -0.1888  0.2580  0.0985
  736POPI   C1B11319  17.660  14.435   6.630 -0.0828  0.2258  0.1273
  736POPI   C2B11320  17.677  14.224   6.954 -0.0360  0.1460  0.0426
  736POPI   C3B11321  17.835  14.087   7.299 -0.3379 -0.0811 -0.0134
  736POPI   C4B11322  17.995  13.894   7.595 -0.0982 -0.3138 -0.3097
  737POPS   CNO11323  15.098   2.813   5.830 -0.1102 -0.1618  0.0091
  737POPS   PO411324  14.780   2.841   6.120 -0.0593 -0.0782  0.0527
  737POPS   GL111325  14.746   2.874   6.619  0.0994 -0.0139  0.1056
  737POPS   GL211326  14.374   3.008   6.660  0.1596 -0.0564  0.0106
  737POPS   C1A11327  14.609   2.891   7.064  0.1085 -0.0398 -0.1179
  737POPS   D2A11328  14.430   2.870   7.464 -0.1972  0.3269  0.1790
  737POPS   C3A11329  14.289   2.588   7.888  0.0009  0.0128 -0.0130
  737POPS   C4A11330  14.072   2.429   8.198 -0.4332 -0.1457  0.0609
  737POPS   C1B11331  14.291   3.260   6.994  0.2467  0.0771 -0.0497
  737POPS   C2B11332  14.126   3.315   7.422 -0.3345  0.1244 -0.0283
  737POPS   C3B11333  13.961   3.173   7.879 -0.2031 -0.1676  0.0218
  737POPS   C4B11334  13.556   2.957   7.917 -0.1225  0.0051  0.0875
  738POPS   CNO11335  15.826   2.689   5.761 -0.0448 -0.1241 -0.1963
  738POPS   PO411336  15.773   2.395   6.128  0.0007  0.2501 -0.0101
  738POPS   GL111337  15.627   2.431   6.582 -0.1784 -0.0995 -0.0966
  738POPS   GL211338  15.552   2.815   6.652  0.0095  0.2075  0.0504
  738POPS   C1A11339  15.652   2.472   6.955 -0.1673  0.1473  0.5350
  738POPS   D2A11340  15.723   2.553   7.381 -0.1165  0.2508  0.1962
  738POPS   C3A11341  15.395   2.694   7.519 -0.1218  0.2745 -0.0888
  738POPS   C4A11342  15.203   2.616   7.905  0.2220  0.1965  0.1108
  738POPS   C1B11343  15.173   2.767   6.980 -0.1345  0.0502  0.1755
  738POPS   C2B11344  14.936   2.731   7.389 -0.3983  0.1664 -0.1787
  738POPS   C3B11345  14.796   2.751   7.744  0.4413 -0.0510  0.2934
  738POPS   C4B11346  14.915   3.047   8.004  0.0374  0.2351 -0.1394
  739POPS   CNO11347  11.288  16.467   6.359  0.1108 -0.2123 -0.1191
  739POPS   PO411348  11.370  16.750   6.200 -0.1194 -0.2918 -0.0109
  739POPS   GL111349  11.264  16.996   6.404 -0.1796  0.2247 -0.0542
  739POPS   GL211350  11.051  16.860   6.579  0.0649  0.3652  0.0675
  739POPS   C1A11351  11.257  17.186   6.787 -0.2378 -0.1200  0.1146
  739POPS   D2A11352  11.402  17.462   7.094  0.0813 -0.0405 -0.1288
  739POPS   C3A11353  11.205  17.519   7.554  0.0375 -0.3143 -0.1818
  739POPS   C4A11354  10.977  17.570   7.898  0.3760 -0.2752  0.0351
  739POPS   C1B11355  10.864  16.745   6.917 -0.0746 -0.1997  0.0516
  739POPS   C2B11356  10.782  16.689   7.285  0.3354  0.0824 -0.0186
  739POPS   C3B11357  10.666  16.678   7.717  0.0996 -0.0825  0.3096
  739POPS   C4B11358  10.569  16.893   8.075 -0.1940 -0.3026  0.3375
  740POPS   CNO11359  13.219   8.449   6.270  0.0237  0.1740  0.1615
  740POPS   PO411360  12.865   8.346   6.145  0.1583  0.0655  0.1157
  740POPS   GL111361  12.762   8.560   6.483 -0.2613 -0.0413  0.0588
  740POPS   GL211362  12.360   8.615   6.574 -0.1973  0.0851 -0.1761
  740POPS   C1A11363  12.715   8.623   6.930 -0.1056  0.0613  0.2096
  740POPS   D2A11364  12.674   8.961   7.278  0.3484  0.1397  0.0727
  740POPS   C3A11365  12.391   9.045   7.448  0.1100  0.1248  0.0963
  740POPS   C4A11366  12.193   8.974   7.810  0.2371 -0.1647 -0.1878
  740POPS   C1B11367  12.302   8.889   6.880  0.1340  0.1177  0.2813
  740POPS   C2B11368  11.980   9.149   7.091 -0.0694  0.3464  0.0126
  740POPS   C3B11369  11.721   9.224   7.366  0.1577 -0.0405  0.4613
  740POPS   C4B11370  11.377   9.276   7.748  0.1551 -0.0716  0.0659
  741POPS   CNO11371  11.823   8.382   5.819 -0.2314 -0.0704 -0.1374
  741POPS   PO411372  11.908   8.327   6.274 -0.1699 -0.1493 -0.2229
  741POPS   GL111373  12.179   8.153   6.519  0.1828 -0.0245  0.1343
  741POPS   GL211374  12.354   7.910   6.385  0.2415 -0.0755 -0.0234
  741POPS   C1A11375  12.214   8.245   6.950 -0.2267 -0.2542 -0.2209
  741POPS   D2A11376  12.391   8.577   7.315  0.2227 -0.0763  0.1450
  741POPS   C3A11377  12.519   8.520   7.688  0.6295  0.2814 -0.1184
  741POPS   C4A11378  12.873   8.792   7.822  0.2878 -0.1769 -0.0399
  741POPS   C1B11379  12.240   7.719   6.777  0.0160 -0.2145 -0.0590
  741POPS   C2B11380  12.160   7.744   7.230  0.0567 -0.0809  0.1549
  741POPS   C3B11381  12.269   7.698   7.681  0.1585 -0.0926  0.3599
  741POPS   C4B11382  12.607   7.729   8.031  0.1220 -0.1991 -0.2210
  742POPS   CNO11383   4.327  11.765   5.654 -0.1552 -0.3775  0.0818
  742POPS   PO411384   4.733  11.648   5.825 -0.0913 -0.3345  0.0163
  742POPS   GL111385   4.818  11.691   6.238 -0.1983 -0.0596  0.0373
  742POPS   GL211386   4.527  11.744   6.251  0.0101  0.3578  0.3661
  742POPS   C1A11387   5.140  11.625   6.547  0.2131  0.1172 -0.1122
  742POPS   D2A11388   5.140  11.707   6.969  0.0867  0.0553  0.0213
  742POPS   C3A11389   4.974  11.405   7.149 -0.2543 -0.3622 -0.0057
  742POPS   C4A11390   4.869  11.250   7.482  0.0737  0.2413 -0.1161
  742POPS   C1B11391   4.445  11.993   6.602 -0.3639  0.0674  0.1458
  742POPS   C2B11392   4.330  12.227   7.011  0.0628  0.1289  0.1849
  742POPS   C3B11393   4.310  12.310   7.455  0.2012  0.2072  0.0170
  742POPS   C4B11394   4.633  12.179   7.600 -0.2751  0.0247  0.0259
  743POPS   CNO11395  12.894  15.312   6.462 -0.0251  0.1004  0.1311
  743POPS   PO411396  13.139  15.017   6.119  0.3139  0.3173 -0.2095
  743POPS   GL111397  13.082  14.837   6.635 -0.2174 -0.2250  0.1116
  743POPS   GL211398  12.871  14.643   6.831  0.2897  0.0003  0.2690
  743POPS   C1A11399  13.339  14.872   7.012 -0.1261  0.2412 -0.1554
  743POPS   D2A11400  13.359  14.938   7.448  0.2322  0.3294  0.4680
  743POPS   C3A11401  13.625  14.778   7.760  0.1571 -0.1991  0.0588
  743POPS   C4A11402  13.685  14.747   8.169  0.3192  0.2616 -0.0628
  743POPS   C1B11403  13.086  14.516   7.191  0.2442 -0.0658 -0.0428
  743POPS   C2B11404  13.072  14.553   7.626  0.1474 -0.0617  0.2663
  743POPS   C3B11405  13.206  14.730   7.974  0.1575 -0.0183 -0.2096
  743POPS   C4B11406  13.218  14.939   8.309  0.2359  0.0025 -0.2552
  744POPS   CNO11407  11.888  13.656   6.007  0.1962  0.0559 -0.1315
  744POPS   PO411408  11.935  13.453   6.325  0.2308 -0.0700  0.1394
  744POPS   GL111409  11.919  13.569   6.830 -0.2109 -0.5265 -0.0445
  744POPS   GL211410  12.256  13.664   6.734  0.0408 -0.3466 -0.1694
  744POPS   C1A11411  11.959  13.558   7.234  0.0183  0.0474 -0.0159
  744POPS   D2A11412  12.122  13.566   7.588 -0.0650 -0.0845 -0.0350
  744POPS   C3A11413  11.916  13.866   7.842 -0.0229 -0.0012  0.0735
  744POPS   C4A11414  12.030  14.049   8.238  0.1373 -0.2590 -0.2666
  744POPS   C1B11415  12.077  14.017   7.090 -0.2556 -0.1965 -0.4119
  744POPS   C2B11416  11.796  14.184   7.416 -0.0785 -0.1331 -0.0904
  744POPS   C3B11417  11.536  14.582   7.378 -0.0521  0.0654 -0.0925
  744POPS   C4B11418  11.513  14.699   7.746 -0.0436 -0.0853 -0.0524
  745POPS   CNO11419   4.946  13.416   6.168 -0.0932  0.0594 -0.0210
  745POPS   PO411420   5.379  13.511   6.134  0.0110  0.1256 -0.1273
  745POPS   GL111421   5.493  13.443   6.498 -0.2061 -0.0363  0.0403
  745POPS   GL211422   5.267  13.207   6.660 -0.0770  0.0865 -0.1091
  745POPS   C1A11423   5.746  13.521   6.691 -0.0519 -0.0856 -0.2011
  745POPS   D2A11424   6.159  13.453   6.934 -0.1119 -0.1480  0.1231
  745POPS   C3A11425   6.565  13.644   7.141  0.0938  0.1740  0.2193
  745POPS   C4A11426   7.007  13.718   7.003 -0.0429  0.0354  0.1874
  745POPS   C1B11427   5.323  13.363   6.969 -0.2483  0.0216 -0.2176
  745POPS   C2B11428   5.302  13.348   7.370  0.4636 -0.0309  0.0503
  745POPS   C3B11429   5.245  13.335   7.798  0.0204 -0.1307 -0.0546
  745POPS   C4B11430   5.073  13.431   8.134  0.1688  0.1114 -0.0075
  746POPS   CNO11431   6.690  11.841   6.580 -0.2613 -0.3411 -0.0179
  746POPS   PO411432   7.054  11.953   6.324  0.1957  0.1892 -0.2082
  746POPS   GL111433   7.218  11.939   6.769 -0.0307  0.0044 -0.0853
  746POPS   GL211434   7.047  11.601   6.824 -0.0298 -0.1531 -0.0725
  746POPS   C1A11435   7.409  11.945   7.082  0.4082 -0.0474 -0.0780
  746POPS   D2A11436   7.503  11.977   7.503  0.1190 -0.0871 -0.1774
  746POPS   C3A11437   7.795  12.258   7.622 -0.0328  0.0511 -0.2259
  746POPS   C4A11438   7.994  12.252   8.012 -0.2087  0.0342 -0.1036
  746POPS   C1B11439   7.380  11.453   7.103 -0.0166  0.1629 -0.0937
  746POPS   C2B11440   7.403  11.490   7.487 -0.1341 -0.1302 -0.1169
  746POPS   C3B11441   7.475  11.541   7.972 -0.0727  0.0571 -0.0015
  746POPS   C4B11442   7.295  11.333   8.249 -0.0169 -0.0292  0.0124
  747POPS   CNO11443   3.380  12.559   5.617  0.2174 -0.1395 -0.2018
  747POPS   PO411444   3.268  12.770   6.055 -0.0153  0.1233  0.1197
  747POPS   GL111445   3.161  12.820   6.456 -0.0602 -0.0512  0.0192
  747POPS   GL211446   3.113  13.220   6.517 -0.2578  0.1121 -0.1192
  747POPS   C1A11447   2.949  12.700   6.921 -0.0317  0.0127 -0.1382
  747POPS   D2A11448   2.887  12.792   7.376 -0.1123  0.1056 -0.2501
  747POPS   C3A11449   3.102  12.571   7.744 -0.1421  0.0719 -0.0583
  747POPS   C4A11450   3.231  12.461   8.211 -0.3571 -0.2632 -0.0881
  747POPS   C1B11451   3.136  13.613   6.872 -0.1393  0.0610  0.0772
  747POPS   C2B11452   3.117  13.547   7.285  0.1875 -0.2238 -0.1598
  747POPS   C3B11453   3.043  13.612   7.668 -0.1304 -0.2282 -0.0936
  747POPS   C4B11454   3.312  13.417   8.070  0.0197  0.1349  0.0675
  748POPS   CNO11455   2.629  14.361   6.347 -0.1418 -0.1514 -0.0707
  748POPS   PO411456   3.082  14.228   6.419 -0.0238  0.0629 -0.0170
  748POPS   GL111457   2.890  14.428   6.824 -0.2219  0.1922  0.0410
  748POPS   GL211458   2.694  14.663   6.759 -0.0792 -0.0274  0.0807
  748POPS   C1A11459   2.818  14.373   7.377 -0.0538  0.0171  0.0864
  748POPS   D2A11460   2.676  14.582   7.701 -0.1325 -0.1456  0.1999
  748POPS   C3A11461   2.868  14.489   8.173  0.0340  0.0862 -0.2531
  748POPS   C4A11462   3.224  14.330   8.325  0.4282 -0.0402  0.0724
  748POPS   C1B11463   2.543  14.811   7.163 -0.0584 -0.0422  0.0713
  748POPS   C2B11464   2.514  15.083   7.484  0.0504 -0.0385 -0.0724
  748POPS   C3B11465   2.329  15.179   7.977 -0.0229 -0.0117  0.0146
  748POPS   C4B11466   2.322  15.401   8.407  0.0681  0.0743  0.0359
  749POPS   CNO11467   2.812  12.933   6.156 -0.1506  0.2328 -0.0644
  749POPS   PO411468   2.716  13.364   6.251 -0.0388 -0.0260  0.0376
  749POPS   GL111469   2.711  13.408   6.693 -0.0100 -0.0297  0.1955
  749POPS   GL211470   2.399  13.507   6.645 -0.0887 -0.0778  0.2121
  749POPS   C1A11471   2.809  13.215   7.033  0.0584 -0.2490  0.1898
  749POPS   D2A11472   2.698  13.290   7.475  0.2316  0.1496 -0.0757
  749POPS   C3A11473   3.129  13.152   7.633 -0.2942 -0.0053 -0.1943
  749POPS   C4A11474   3.526  12.937   7.952 -0.0387  0.3505 -0.2101
  749POPS   C1B11475   2.324  13.324   7.070 -0.1977 -0.1268  0.1592
  749POPS   C2B11476   2.155  13.335   7.481 -0.0784 -0.1959  0.2299
  749POPS   C3B11477   2.055  13.313   7.821 -0.0161 -0.1138 -0.0392
  749POPS   C4B11478   1.993  13.359   8.262 -0.0702  0.1124 -0.2310
  750POPS   CNO11479   8.483   1.278   5.419  0.2432  0.2289  0.2072
  750POPS   PO411480   8.825   1.314   5.615  0.2365 -0.3719 -0.2890
  750POPS   GL111481   8.844   1.276   6.035  0.0312  0.1457 -0.3288
  750POPS   GL211482   8.961   1.065   6.227 -0.2504 -0.0861  0.0598
  750POPS   C1A11483   8.478   1.155   6.296  0.0005 -0.2233 -0.1035
  750POPS   D2A11484   8.287   0.917   6.591 -0.0040  0.3135 -0.0439
  750POPS   C3A11485   8.511   1.140   6.909 -0.0529  0.1802  0.0793
  750POPS   C4A11486   8.619   1.294   7.304 -0.1238  0.1787  0.0206
  750POPS   C1B11487   8.967   0.929   6.630 -0.1602 -0.1577  0.3279
  750POPS   C2B11488   8.963   0.917   7.077 -0.0405 -0.0167  0.2684
  750POPS   C3B11489   8.919   0.834   7.446 -0.0232 -0.1001  0.0980
  750POPS   C4B11490   8.812   1.066   7.768 -0.2009 -0.0743 -0.0886
  751POPS   CNO11491  16.528  15.405   6.189  0.1996  0.1867  0.0598
  751POPS   PO411492  16.309  15.668   6.471 -0.0062 -0.0062  0.0537
  751POPS   GL111493  16.449  15.471   6.776  0.1867 -0.0696 -0.2286
  751POPS   GL211494  16.622  15.282   6.709 -0.1979 -0.1292 -0.1600
  751POPS   C1A11495  16.653  15.538   7.188 -0.2455 -0.0267  0.0057
  751POPS   D2A11496  17.025  15.574   7.426 -0.3349 -0.1730  0.0325
  751POPS   C3A11497  17.237  15.559   7.767  0.1071  0.0003 -0.1915
  751POPS   C4A11498  17.163  15.509   8.242 -0.1649  0.3630  0.0199
  751POPS   C1B11499  16.731  15.022   7.006  0.0289 -0.1560  0.0089
  751POPS   C2B11500  16.755  15.061   7.438 -0.1180 -0.2273  0.2303
  751POPS   C3B11501  17.077  15.092   7.785  0.1515 -0.1735 -0.1675
  751POPS   C4B11502  17.267  15.055   8.168 -0.0083  0.3772 -0.1832
  752POPS   CNO11503   1.063  13.694   5.923 -0.0063  0.0522 -0.0576
  752POPS   PO411504   0.619  13.587   5.937 -0.1530  0.1163 -0.1982
  752POPS   GL111505   0.620  13.584   6.297  0.0747 -0.0134  0.0257
  752POPS   GL211506   1.002  13.461   6.351 -0.0425 -0.2531 -0.1052
  752POPS   C1A11507   0.511  13.611   6.820  0.3174  0.0777 -0.1674
  752POPS   D2A11508   0.553  13.674   7.234 -0.0529  0.1813  0.0314
  752POPS   C3A11509   0.419  13.456   7.532 -0.1542  0.0570  0.1345
  752POPS   C4A11510   0.359  13.465   7.938 -0.0043  0.0580 -0.0178
  752POPS   C1B11511   1.070  13.546   6.729 -0.3518  0.3220 -0.0983
  752POPS   C2B11512   1.080  13.557   7.200  0.2603  0.3069  0.1180
  752POPS   C3B11513   1.008  13.469   7.537  0.0514  0.1396  0.0547
  752POPS   C4B11514   0.821  13.358   7.931 -0.6564 -0.1133 -0.0461
  753POPS   CNO11515   6.437   6.807   5.528 -0.1773 -0.0866  0.0668
  753POPS   PO411516   6.653   6.836   5.970 -0.3598  0.0439 -0.3511
  753POPS   GL111517   6.811   6.831   6.397 -0.2248  0.0488 -0.1310
  753POPS   GL211518   6.652   6.844   6.750  0.3098  0.0496 -0.0968
  753POPS   C1A11519   7.240   6.884   6.616  0.0008 -0.1241  0.1652
  753POPS   D2A11520   7.472   6.791   6.946 -0.0180  0.1828 -0.2067
  753POPS   C3A11521   7.837   6.723   6.974  0.1418 -0.2074 -0.2080
  753POPS   C4A11522   8.203   6.644   6.689  0.2148 -0.0920 -0.3728
  753POPS   C1B11523   6.444   6.836   7.160 -0.2143  0.0640 -0.1151
  753POPS   C2B11524   6.230   6.672   7.561  0.0210  0.2635  0.2712
  753POPS   C3B11525   6.216   6.812   7.868 -0.1918  0.2926 -0.1662
  753POPS   C4B11526   5.903   6.700   8.193 -0.3479  0.0388 -0.0737
  754POPS   CNO11527  17.089   7.190   5.992  0.0304  0.2069  0.3753
  754POPS   PO411528  17.476   7.073   6.215  0.2072  0.0282  0.0512
  754POPS   GL111529  17.089   6.997   6.463 -0.1936  0.3301  0.3786
  754POPS   GL211530  16.993   6.694   6.563 -0.3114  0.3076  0.0449
  754POPS   C1A11531  16.917   7.093   6.873 -0.0908  0.2667  0.0694
  754POPS   D2A11532  16.716   7.021   7.203  0.0499 -0.5602 -0.2571
  754POPS   C3A11533  16.641   7.276   7.526  0.2949 -0.1371  0.0097
  754POPS   C4A11534  16.467   7.560   7.804  0.3314  0.0867 -0.1755
  754POPS   C1B11535  16.861   6.318   6.921 -0.0121 -0.0055 -0.0762
  754POPS   C2B11536  16.974   5.892   6.952 -0.2667 -0.0719  0.0859
  754POPS   C3B11537  16.978   5.469   6.871 -0.0495  0.2853  0.3478
  754POPS   C4B11538  16.991   5.012   6.833 -0.1482 -0.2118  0.0433
  755POPS   CNO11539  12.691  14.160   6.175 -0.1095  0.0034 -0.1974
  755POPS   PO411540  12.648  14.479   6.414 -0.2210  0.3257 -0.0205
  755POPS   GL111541  12.878  14.165   6.676  0.1181  0.1187 -0.0283
  755POPS   GL211542  12.705  13.932   6.666 -0.1162  0.0069 -0.1250
  755POPS   C1A11543  12.949  14.023   7.064 -0.3381 -0.1176 -0.0986
  755POPS   D2A11544  13.073  14.027   7.452  0.0333 -0.1802  0.1830
  755POPS   C3A11545  12.773  14.083   7.745  0.1116 -0.1420 -0.0440
  755POPS   C4A11546  12.425  13.840   7.966  0.1368  0.1749  0.0239
  755POPS   C1B11547  12.684  13.537   7.021 -0.2904 -0.0877 -0.2262
  755POPS   C2B11548  12.804  13.516   7.551 -0.0278  0.1569  0.3848
  755POPS   C3B11549  13.070  13.671   7.860  0.1211 -0.0284 -0.0874
  755POPS   C4B11550  13.338  13.745   8.150 -0.1175 -0.0352  0.0131
  756POPS   CNO11551  13.851   5.566   6.070 -0.3363 -0.0692 -0.4093
  756POPS   PO411552  14.187   5.543   6.321  0.1239  0.0924 -0.0444
  756POPS   GL111553  14.001   5.577   6.727 -0.0276 -0.1634  0.1445
  756POPS   GL211554  13.988   5.920   6.665  0.1446 -0.2896  0.1710
  756POPS   C1A11555  13.869   5.394   7.085  0.0172  0.0424 -0.5677
  756POPS   D2A11556  13.729   5.511   7.527 -0.2270 -0.1314  0.1930
  756POPS   C3A11557  13.897   5.472   7.930 -0.0776 -0.0157 -0.1000
  756POPS   C4A11558  14.105   5.652   8.225 -0.0429  0.4636  0.0057
  756POPS   C1B11559  13.857   5.870   7.108 -0.0048 -0.3439 -0.0185
  756POPS   C2B11560  13.792   6.081   7.439 -0.0316  0.1636  0.0437
  756POPS   C3B11561  13.922   6.414   7.715 -0.2122 -0.3063 -0.1644
  756POPS   C4B11562  14.158   6.744   7.666  0.0274 -0.3726  0.2064
  757POPS   CNO11563  10.824   5.035   6.446 -0.1733 -0.0257  0.1949
  757POPS   PO411564  11.336   4.863   6.423  0.0912 -0.0696 -0.1023
  757POPS   GL111565  11.233   4.870   6.854 -0.0869  0.1009 -0.2623
  757POPS   GL211566  10.889   4.748   6.906  0.2395  0.0822  0.0686
  757POPS   C1A11567  11.186   5.095   7.270 -0.0901  0.1657  0.0715
  757POPS   D2A11568  11.045   5.278   7.537 -0.0728  0.1393 -0.0893
  757POPS   C3A11569  11.062   5.384   7.900  0.0479 -0.0946  0.0064
  757POPS   C4A11570  10.745   5.575   8.205  0.1455  0.2583  0.1580
  757POPS   C1B11571  10.916   4.606   7.279  0.0871 -0.0534  0.0298
  757POPS   C2B11572  10.964   4.586   7.667  0.2854  0.1451 -0.0399
  757POPS   C3B11573  11.305   4.450   7.919 -0.0943  0.1540 -0.0757
  757POPS   C4B11574  11.554   4.115   8.021 -0.1669 -0.2386  0.1600
  758POPS   CNO11575  10.585   1.624   5.557 -0.3782  0.1194  0.0328
  758POPS   PO411576  10.613   1.494   6.045 -0.0443  0.0925  0.3232
  758POPS   GL111577  10.356   1.422   6.345 -0.2589 -0.0631  0.1883
  758POPS   GL211578  10.201   1.122   6.412  0.2556  0.0063  0.1247
  758POPS   C1A11579  10.304   1.362   6.818 -0.0373  0.1787  0.3227
  758POPS   D2A11580  10.261   1.558   7.251  0.0053 -0.0977 -0.1157
  758POPS   C3A11581  10.128   1.393   7.637 -0.0685 -0.2534 -0.2296
  758POPS   C4A11582   9.851   1.077   7.833  0.3801  0.1556 -0.0013
  758POPS   C1B11583   9.910   0.919   6.666  0.0728 -0.0581  0.1093
  758POPS   C2B11584   9.832   0.690   6.992  0.0445  0.1626 -0.0666
  758POPS   C3B11585   9.759   0.677   7.519 -0.0113 -0.2568 -0.0293
  758POPS   C4B11586   9.657   0.325   7.718  0.0511  0.1616 -0.1753
  759POPS   CNO11587   8.386   6.747   5.591 -0.2377 -0.0263 -0.1189
  759POPS   PO411588   8.741   6.614   5.777 -0.1557 -0.0201  0.1330
  759POPS   GL111589   8.828   6.462   6.224  0.1935 -0.0059  0.3732
  759POPS   GL211590   8.917   6.223   6.210  0.0610 -0.2573  0.2861
  759POPS   C1A11591   8.573   6.369   6.539  0.0901 -0.2787 -0.0563
  759POPS   D2A11592   8.511   6.444   7.036  0.0554  0.0493 -0.1177
  759POPS   C3A11593   8.713   6.823   7.088 -0.0406 -0.0420 -0.1446
  759POPS   C4A11594   8.852   7.002   7.481 -0.0626 -0.1675 -0.3372
  759POPS   C1B11595   8.954   6.014   6.570 -0.1310 -0.1417  0.2574
  759POPS   C2B11596   8.767   6.000   6.970  0.0559 -0.0725 -0.0948
  759POPS   C3B11597   8.660   6.054   7.427 -0.1375  0.1766 -0.0449
  759POPS   C4B11598   8.884   6.111   7.831  0.0063 -0.1259 -0.2636
  760POPS   CNO11599  13.115   1.053   6.057  0.0418  0.2182 -0.1769
  760POPS   PO411600  13.234   1.489   6.130 -0.3724 -0.0984  0.0141
  760POPS   GL111601  13.150   1.273   6.473 -0.0288  0.1912  0.1646
  760POPS   GL211602  12.776   1.154   6.509 -0.2049  0.0624  0.2065
  760POPS   C1A11603  13.268   1.418   6.872 -0.0105 -0.0856  0.2917
  760POPS   D2A11604  13.240   1.720   7.238  0.1953  0.1575 -0.2655
  760POPS   C3A11605  13.136   1.523   7.559  0.1455 -0.1624 -0.0515
  760POPS   C4A11606  12.921   1.647   7.903  0.2589 -0.2371  0.2310
  760POPS   C1B11607  12.694   1.408   6.876 -0.2313  0.1941  0.0574
  760POPS   C2B11608  12.702   1.393   7.267 -0.2442  0.0374 -0.1704
  760POPS   C3B11609  12.513   1.414   7.629  0.1789 -0.1046 -0.2304
  760POPS   C4B11610  12.141   1.458   7.773  0.1109 -0.3668  0.0537
  761POPS   CNO11611  13.165   4.499   6.127 -0.0207 -0.0557  0.0054
  761POPS   PO411612  13.128   4.058   6.243  0.0824 -0.3495 -0.0390
  761POPS   GL111613  13.060   4.118   6.660 -0.0242 -0.1222  0.1723
  761POPS   GL211614  13.311   4.371   6.758  0.0829 -0.3011  0.2815
  761POPS   C1A11615  12.998   3.947   7.133 -0.2152  0.1270  0.2619
  761POPS   D2A11616  13.287   4.121   7.432 -0.5202 -0.0950 -0.1929
  761POPS   C3A11617  13.455   4.012   7.855  0.0408 -0.1310 -0.0956
  761POPS   C4A11618  13.332   3.905   8.224  0.2402  0.4514  0.0649
  761POPS   C1B11619  13.449   3.947   6.954 -0.0112  0.0735 -0.0382
  761POPS   C2B11620  13.611   3.703   7.189 -0.0624  0.0535 -0.2279
  761POPS   C3B11621  13.730   3.565   7.650 -0.0887 -0.0884 -0.0289
  761POPS   C4B11622  13.899   3.765   7.978 -0.0032 -0.2587  0.5293
  762POPS   CNO11623  15.192  12.156   6.060 -0.2433  0.0248  0.1763
  762POPS   PO411624  14.733  12.088   6.054 -0.0615  0.1250  0.1607
  762POPS   GL111625  14.549  12.263   6.389  0.1617  0.0633 -0.1963
  762POPS   GL211626  14.604  12.555   6.294 -0.1119 -0.0608 -0.3776
  762POPS   C1A11627  14.469  12.290   6.854 -0.0160  0.0457  0.0782
  762POPS   D2A11628  14.433  12.663   7.109  0.6396  0.2055  0.0192
  762POPS   C3A11629  14.013  12.530   7.366 -0.1487 -0.0229  0.1838
  762POPS   C4A11630  13.746  12.277   7.579  0.1447  0.0791  0.0041
  762POPS   C1B11631  14.774  12.676   6.760 -0.2788 -0.0321  0.0963
  762POPS   C2B11632  14.874  12.925   7.025  0.0872 -0.3308 -0.3277
  762POPS   C3B11633  14.756  12.814   7.475 -0.1867 -0.0966  0.0634
  762POPS   C4B11634  14.650  12.450   7.841 -0.1935 -0.2700 -0.0266
  763POPS   CNO11635   1.521   5.763   6.095  0.1804  0.0688 -0.0912
  763POPS   PO411636   1.567   5.418   6.312 -0.1581 -0.0296 -0.2335
  763POPS   GL111637   1.609   5.243   6.718 -0.0024 -0.0610  0.2377
  763POPS   GL211638   1.456   5.274   6.914  0.1216 -0.1240 -0.4468
  763POPS   C1A11639   1.963   5.036   6.990  0.0039  0.0068  0.2621
  763POPS   D2A11640   2.269   4.996   7.254 -0.1037 -0.1125  0.1552
  763POPS   C3A11641   2.383   4.855   7.616  0.1618  0.2134 -0.0161
  763POPS   C4A11642   2.464   4.469   7.926  0.0279  0.1762 -0.0213
  763POPS   C1B11643   1.262   5.198   7.226  0.2188  0.2768  0.0737
  763POPS   C2B11644   1.290   5.196   7.640 -0.2096 -0.3156 -0.0087
  763POPS   C3B11645   1.407   5.388   7.961 -0.1234  0.1524  0.2982
  763POPS   C4B11646   1.264   5.512   8.382 -0.1814  0.1903 -0.1941
  764POPS   CNO11647   9.769   8.621   6.400  0.1958 -0.0033 -0.2847
  764POPS   PO411648   9.323   8.578   6.528  0.1163  0.1669 -0.0909
  764POPS   GL111649   9.422   8.175   6.621  0.0734  0.1498 -0.1565
  764POPS   GL211650   9.226   8.093   6.523  0.1568 -0.2373 -0.1245
  764POPS   C1A11651   9.620   7.908   6.940 -0.1669 -0.2924  0.0883
  764POPS   D2A11652   9.614   7.788   7.367  0.0354 -0.3702 -0.0617
  764POPS   C3A11653   9.886   7.733   7.729 -0.0975 -0.0826  0.0787
  764POPS   C4A11654  10.171   7.666   8.011 -0.0473  0.0483  0.2542
  764POPS   C1B11655   9.104   8.007   7.009 -0.1486  0.1926  0.2114
  764POPS   C2B11656   9.246   8.260   7.317 -0.0049  0.1170 -0.0887
  764POPS   C3B11657   9.501   8.591   7.397  0.0217 -0.2518 -0.0138
  764POPS   C4B11658   9.825   8.827   7.344 -0.2202  0.1823 -0.1010
  765POPS   CNO11659   8.193   9.848   6.049  0.0574  0.0142 -0.1839
  765POPS   PO411660   8.319   9.398   6.052  0.1258 -0.0364  0.2044
  765POPS   GL111661   8.128   9.503   6.419  0.0736  0.0035  0.3043
  765POPS   GL211662   8.346   9.681   6.630 -0.1186  0.1209  0.1444
  765POPS   C1A11663   8.002   9.627   6.928 -0.0116  0.0087 -0.1745
  765POPS   D2A11664   7.930   9.546   7.362  0.1269 -0.0009 -0.2253
  765POPS   C3A11665   8.196   9.486   7.550  0.1504 -0.1210  0.0804
  765POPS   C4A11666   8.431   9.543   7.802 -0.2166 -0.3034  0.0002
  765POPS   C1B11667   8.524   9.689   7.004  0.1031 -0.1557  0.1157
  765POPS   C2B11668   8.751   9.776   7.433  0.1765 -0.0838  0.0876
  765POPS   C3B11669   8.666   9.985   7.858 -0.2470  0.1950 -0.1410
  765POPS   C4B11670   8.695  10.213   8.129  0.1488  0.1404 -0.1757
  766POPS   CNO11671   6.922   0.642   5.876  0.1422  0.0816  0.1956
  766POPS   PO411672   7.085   0.925   5.877 -0.2735 -0.3565  0.0280
  766POPS   GL111673   6.874   0.886   6.276  0.2153  0.0867 -0.1302
  766POPS   GL211674   6.556   0.620   6.296  0.0533  0.1504 -0.0964
  766POPS   C1A11675   6.845   1.078   6.707  0.1945 -0.2143 -0.0399
  766POPS   D2A11676   7.032   1.108   7.059 -0.2674 -0.1268  0.2377
  766POPS   C3A11677   6.762   1.306   7.279  0.1041 -0.1545  0.0849
  766POPS   C4A11678   6.257   1.275   7.264 -0.0019 -0.0847 -0.1302
  766POPS   C1B11679   6.899   0.492   6.669  0.1772  0.0288 -0.2420
  766POPS   C2B11680   6.923   0.494   7.040 -0.0747  0.3880  0.2104
  766POPS   C3B11681   6.650   0.398   7.405 -0.1602  0.1853  0.2746
  766POPS   C4B11682   6.604   0.519   7.877 -0.0707 -0.1621  0.0719
  767POPS   CNO11683  10.893  13.081   6.004  0.0960  0.2901  0.1423
  767POPS   PO411684  11.102  13.391   6.116  0.2000 -0.3840 -0.2828
  767POPS   GL111685  11.045  13.171   6.493  0.3186  0.1788  0.0563
  767POPS   GL211686  10.840  12.879   6.610  0.0774  0.0381  0.1209
  767POPS   C1A11687  10.956  13.339   6.976  0.2810  0.1126  0.0372
  767POPS   D2A11688  10.736  13.420   7.436  0.2112  0.0771 -0.3794
  767POPS   C3A11689  10.578  13.087   7.553 -0.1386 -0.0304  0.1209
  767POPS   C4A11690  10.339  12.902   7.921  0.0062  0.1615 -0.0284
  767POPS   C1B11691  10.768  12.809   7.082 -0.1540 -0.2053  0.0555
  767POPS   C2B11692  10.883  12.703   7.457 -0.0424 -0.1473 -0.0336
  767POPS   C3B11693  10.922  12.881   7.912 -0.3306 -0.1795  0.1225
  767POPS   C4B11694  10.721  12.896   8.276 -0.0265  0.1172  0.0092
  768POPS   CNO11695   2.050   8.938   6.813  0.0750 -0.0472 -0.1594
  768POPS   PO411696   1.832   9.139   6.530 -0.0594 -0.1850  0.2079
  768POPS   GL111697   1.932   9.431   6.869  0.1848  0.0337 -0.2549
  768POPS   GL211698   1.727   9.577   7.045 -0.2046 -0.0746 -0.0483
  768POPS   C1A11699   2.143   9.738   7.224 -0.0419  0.0975  0.0359
  768POPS   D2A11700   2.246  10.183   7.325 -0.4113  0.2570 -0.1025
  768POPS   C3A11701   2.217  10.403   7.726 -0.1866  0.2254 -0.2543
  768POPS   C4A11702   2.389  10.397   8.234  0.0811 -0.0966  0.0623
  768POPS   C1B11703   1.590   9.545   7.456 -0.0158 -0.2430 -0.3276
  768POPS   C2B11704   1.480   9.619   7.878 -0.0069 -0.2167 -0.0032
  768POPS   C3B11705   1.404   9.945   8.112 -0.1049 -0.0217 -0.3360
  768POPS   C4B11706   1.133  10.063   8.279  0.0913 -0.0182 -0.2557
  769POPS   CNO11707  16.087  13.069   6.103  0.3343  0.0294 -0.1197
  769POPS   PO411708  15.966  12.724   6.231  0.2393 -0.1005  0.0226
  769POPS   GL111709  16.127  12.925   6.580 -0.0345  0.0480  0.1323
  769POPS   GL211710  16.057  13.287   6.660 -0.1213 -0.5311 -0.0155
  769POPS   C1A11711  16.398  12.899   6.962 -0.2361 -0.0816 -0.1119
  769POPS   D2A11712  16.383  12.740   7.383 -0.2504  0.0711  0.0638
  769POPS   C3A11713  16.531  12.718   7.774 -0.0073 -0.1090 -0.0408
  769POPS   C4A11714  16.644  12.641   8.188  0.2394  0.0257 -0.0239
  769POPS   C1B11715  16.015  13.164   7.108  0.2632  0.1448 -0.2369
  769POPS   C2B11716  16.061  13.117   7.553 -0.1750 -0.0655 -0.2422
  769POPS   C3B11717  16.089  12.798   7.840  0.1223 -0.1557 -0.0570
  769POPS   C4B11718  16.160  12.564   8.137 -0.0646 -0.1513 -0.1245
  770POPS   CNO11719   5.193   0.978   5.829  0.0481 -0.0968  0.1733
  770POPS   PO411720   4.880   0.923   6.073  0.1513 -0.0886  0.2443
  770POPS   GL111721   4.883   0.850   6.452  0.0924 -0.0297 -0.3166
  770POPS   GL211722   5.004   0.444   6.605  0.1359  0.0249  0.2613
  770POPS   C1A11723   4.744   0.822   6.904  0.1502  0.2061  0.1857
  770POPS   D2A11724   4.719   0.676   7.294  0.3218 -0.0065  0.0502
  770POPS   C3A11725   4.562   0.947   7.535  0.0754 -0.2865 -0.1154
  770POPS   C4A11726   4.323   1.158   7.761 -0.2846  0.0066 -0.2540
  770POPS   C1B11727   4.997   0.410   6.976 -0.3419  0.2428 -0.2267
  770POPS   C2B11728   5.191   0.536   7.355 -0.0686  0.0135  0.0795
  770POPS   C3B11729   4.946   0.732   7.748  0.1368 -0.1131 -0.3948
  770POPS   C4B11730   4.876   1.166   8.049  0.5094 -0.0728  0.2279
  771POPS   CNO11731   7.289   9.814   6.130 -0.0572 -0.0928 -0.0269
  771POPS   PO411732   7.404  10.231   6.028  0.0317  0.1045 -0.0501
  771POPS   GL111733   7.529  10.114   6.439  0.0439  0.2657  0.2955
  771POPS   GL211734   7.319   9.976   6.655 -0.0035  0.3453 -0.1168
  771POPS   C1A11735   7.921   9.971   6.554 -0.0051 -0.1067 -0.0326
  771POPS   D2A11736   8.209  10.068   6.887 -0.0804 -0.1365  0.0625
  771POPS   C3A11737   8.251  10.000   7.308  0.1819 -0.2775  0.3003
  771POPS   C4A11738   8.163   9.971   7.743  0.2503 -0.2066 -0.0354
  771POPS   C1B11739   7.122   9.933   7.066 -0.0592  0.4131  0.1625
  771POPS   C2B11740   6.989   9.837   7.430  0.1567 -0.3663 -0.1271
  771POPS   C3B11741   6.857   9.962   7.831  0.1523  0.1085 -0.0927
  771POPS   C4B11742   6.595   9.867   8.099 -0.0881  0.1125 -0.0077
  772POPS   CNO11743   6.956  11.343   5.705 -0.2033 -0.1023 -0.1882
  772POPS   PO411744   6.709  11.080   6.036 -0.1413  0.1010  0.0565
  772POPS   GL111745   6.666  10.991   6.510  0.1410  0.0107 -0.0051
  772POPS   GL211746   6.616  11.279   6.687 -0.2421  0.1432 -0.2919
  772POPS   C1A11747   6.822  10.734   6.847 -0.1063  0.1215  0.1373
  772POPS   D2A11748   6.880  10.710   7.298 -0.2145 -0.0613  0.1408
  772POPS   C3A11749   6.768  10.774   7.612 -0.0152  0.0565  0.0894
  772POPS   C4A11750   6.489  10.842   7.923  0.2195  0.2748 -0.0968
  772POPS   C1B11751   6.491  11.091   7.014 -0.2308 -0.4055 -0.3516
  772POPS   C2B11752   6.478  11.117   7.440  0.0404  0.1378  0.1473
  772POPS   C3B11753   6.223  11.250   7.785 -0.0612 -0.0391  0.3087
  772POPS   C4B11754   6.224  11.603   8.048  0.2035 -0.1745 -0.0370
  773POPS   CNO11755  11.535   3.491   6.059  0.1860 -0.0675  0.0944
  773POPS   PO411756  11.947   3.433   6.154  0.1302  0.0316  0.0684
  773POPS   GL111757  11.925   3.489   6.543  0.0815  0.3170  0.0593
  773POPS   GL211758  11.567   3.269   6.560 -0.0009 -0.0032 -0.1378
  773POPS   C1A11759  12.155   3.329   6.796 -0.0269 -0.0671 -0.1576
  773POPS   D2A11760  12.361   3.076   7.046  0.3518 -0.1351  0.0769
  773POPS   C3A11761  12.143   2.706   7.279 -0.0270  0.0193  0.0205
  773POPS   C4A11762  12.144   2.648   7.698  0.2497 -0.3439 -0.0271
  773POPS   C1B11763  11.648   3.565   6.984 -0.2622 -0.0471  0.0815
  773POPS   C2B11764  11.822   3.479   7.310 -0.0522 -0.0272 -0.1440
  773POPS   C3B11765  11.974   3.194   7.575 -0.1067 -0.2093 -0.0335
  773POPS   C4B11766  12.360   3.106   7.810 -0.0073 -0.2875  0.2067
  774POPS   CNO11767  10.392   0.755   5.194  0.0625  0.2247  0.2361
  774POPS   PO411768  10.264   0.842   5.683  0.0448  0.0076  0.2963
  774POPS   GL111769  10.076   0.759   6.114 -0.2138  0.0752  0.0523
  774POPS   GL211770   9.778   0.500   6.172  0.0594  0.1938 -0.0462
  774POPS   C1A11771  10.135   0.536   6.483 -0.0252 -0.1921 -0.1396
  774POPS   D2A11772  10.300   0.418   6.774 -0.0364 -0.3950 -0.0067
  774POPS   C3A11773  10.102   0.149   7.062 -0.2155 -0.0907  0.0559
  774POPS   C4A11774   9.902  -0.133   7.320 -0.1174  0.0580 -0.0866
  774POPS   C1B11775   9.666   0.413   6.607  0.0349 -0.0560 -0.0720
  774POPS   C2B11776   9.561   0.279   7.081 -0.1060 -0.1591  0.0081
  774POPS   C3B11777   9.276   0.384   7.419 -0.4477  0.0694 -0.4206
  774POPS   C4B11778   8.997   0.563   7.854  0.2651 -0.3374  0.1743
  775POPS   CNO11779   7.335   7.568   5.986  0.1345  0.1433  0.3510
  775POPS   PO411780   7.529   7.927   5.950 -0.3043 -0.4140  0.1051
  775POPS   GL111781   7.525   8.006   6.417 -0.0884 -0.0481 -0.2213
  775POPS   GL211782   7.211   8.242   6.491  0.1027  0.0476 -0.1384
  775POPS   C1A11783   7.585   7.734   6.819 -0.0501  0.1279 -0.1005
  775POPS   D2A11784   7.398   7.663   7.167  0.0359 -0.2123 -0.0839
  775POPS   C3A11785   7.430   7.383   7.564  0.1806  0.1393 -0.1433
  775POPS   C4A11786   7.339   7.106   7.866 -0.1916  0.1464  0.1432
  775POPS   C1B11787   7.327   8.149   6.926  0.1531  0.0857  0.1721
  775POPS   C2B11788   7.298   8.084   7.424  0.1431  0.1731  0.0836
  775POPS   C3B11789   7.244   8.066   7.791 -0.0843 -0.2474  0.1257
  775POPS   C4B11790   7.431   8.169   8.214 -0.0965  0.0662 -0.0238
  776POPS   CNO11791  17.614   0.391   6.309 -0.0738  0.3285 -0.0618
  776POPS   PO411792  17.671  -0.072   6.421 -0.0016  0.1168  0.1500
  776POPS   GL111793  17.648   0.004   6.817 -0.0864  0.0179 -0.0358
  776POPS   GL211794  17.340  -0.262   7.043 -0.1488  0.3603  0.2079
  776POPS   C1A11795  17.704  -0.039   7.235 -0.2976  0.2933  0.2573
  776POPS   D2A11796  17.866  -0.260   7.519  0.2190 -0.2432 -0.0825
  776POPS   C3A11797  17.703  -0.541   7.965  0.2088  0.3208 -0.0555
  776POPS   C4A11798  17.480  -0.834   8.227 -0.1361 -0.0903  0.0466
  776POPS   C1B11799  17.128  -0.624   7.089  0.0967 -0.1311  0.2042
  776POPS   C2B11800  16.965  -1.083   7.167  0.2601 -0.2823 -0.2824
  776POPS   C3B11801  16.769  -1.286   7.361  0.0083  0.0562 -0.0749
  776POPS   C4B11802  16.715  -1.434   7.740 -0.0284  0.1387  0.2935
  777POPS   CNO11803   9.008   3.031   5.787 -0.0418  0.0070  0.0730
  777POPS   PO411804   9.282   3.105   6.123 -0.0468  0.1260  0.1075
  777POPS   GL111805   9.128   3.293   6.457 -0.1512 -0.0296 -0.4337
  777POPS   GL211806   9.257   3.581   6.464 -0.0140  0.0000  0.1716
  777POPS   C1A11807   9.036   3.255   6.829  0.2580  0.0581  0.0182
  777POPS   D2A11808   9.068   3.097   7.259  0.1291  0.1684 -0.2270
  777POPS   C3A11809   9.157   2.684   7.509  0.0495 -0.2150  0.3851
  777POPS   C4A11810   9.185   2.536   7.909  0.0827  0.3057  0.2471
  777POPS   C1B11811   9.389   3.572   6.808 -0.0970  0.2120  0.1946
  777POPS   C2B11812   9.512   3.418   7.242  0.0237 -0.0746  0.0621
  777POPS   C3B11813   9.625   3.501   7.635 -0.1384 -0.0892 -0.0033
  777POPS   C4B11814   9.552   3.500   8.070  0.0785 -0.0956 -0.3397
  778POPS   CNO11815   8.859   7.854   6.236  0.3120  0.1912 -0.0021
  778POPS   PO411816   8.842   7.474   6.313 -0.1650  0.2788 -0.0951
  778POPS   GL111817   8.550   7.640   6.683  0.0552  0.5557  0.0246
  778POPS   GL211818   8.716   7.887   6.733  0.2490 -0.0385 -0.1584
  778POPS   C1A11819   8.175   7.787   6.884 -0.1661 -0.5854 -0.1669
  778POPS   D2A11820   8.228   7.999   7.350 -0.1129  0.1693  0.1029
  778POPS   C3A11821   8.316   7.801   7.723  0.1366  0.0467 -0.1033
  778POPS   C4A11822   8.512   7.542   8.013  0.0832 -0.0181 -0.0573
  778POPS   C1B11823   8.680   7.825   7.180 -0.0710 -0.2304  0.1904
  778POPS   C2B11824   8.747   7.570   7.560  0.0099 -0.0101 -0.2745
  778POPS   C3B11825   8.851   7.217   7.881 -0.5277 -0.3321  0.1073
  778POPS   C4B11826   9.014   7.143   8.232 -0.1854 -0.0720  0.2581
  779POPS   CNO11827   0.959   9.122   6.029 -0.0123 -0.2727  0.3502
  779POPS   PO411828   1.193   9.535   6.197 -0.0545  0.0108 -0.1566
  779POPS   GL111829   0.996   9.728   6.670 -0.2175 -0.0644  0.0449
  779POPS   GL211830   1.268   9.962   6.818 -0.0338  0.0166  0.0169
  779POPS   C1A11831   0.864   9.759   7.097 -0.0088  0.1335 -0.1065
  779POPS   D2A11832   0.953   9.757   7.491 -0.0107 -0.3387 -0.1206
  779POPS   C3A11833   0.953   9.696   7.874 -0.2627  0.2235  0.0439
  779POPS   C4A11834   0.665   9.873   8.214 -0.1472 -0.0040  0.0519
  779POPS   C1B11835   1.331   9.886   7.189 -0.2027  0.2314 -0.2822
  779POPS   C2B11836   1.502  10.051   7.467 -0.2255  0.2947  0.1327
  779POPS   C3B11837   1.882  10.021   7.757 -0.1111  0.0535 -0.3786
  779POPS   C4B11838   1.868  10.092   8.213 -0.2490  0.1988  0.1230
  780POPS   CNO11839   3.811  12.222   5.592  0.2760  0.0214 -0.0716
  780POPS   PO411840   4.087  12.108   6.018  0.2115  0.0156 -0.2391
  780POPS   GL111841   3.890  12.051   6.435 -0.1051 -0.0025 -0.2864
  780POPS   GL211842   3.619  11.966   6.517  0.2858  0.0194 -0.2173
  780POPS   C1A11843   3.797  12.268   6.922  0.1606 -0.2593  0.0757
  780POPS   D2A11844   3.798  12.248   7.378 -0.1442 -0.0343  0.2662
  780POPS   C3A11845   3.839  12.023   7.635 -0.2713  0.3425 -0.1056
  780POPS   C4A11846   4.021  11.850   8.039 -0.1032  0.0063 -0.0654
  780POPS   C1B11847   3.589  11.837   6.971  0.5392  0.3513  0.0043
  780POPS   C2B11848   3.573  11.771   7.402 -0.0125 -0.0507 -0.0257
  780POPS   C3B11849   3.544  11.573   7.774 -0.0377 -0.1327 -0.1697
  780POPS   C4B11850   3.410  11.118   7.792  0.2193  0.2079 -0.1011
  781POPS   CNO11851  12.537   9.406   6.117  0.0231 -0.1673  0.1730
  781POPS   PO411852  12.979   9.457   6.274  0.1069  0.2018 -0.0749
  781POPS   GL111853  13.217   9.400   6.689 -0.3197  0.2651  0.0083
  781POPS   GL211854  13.504   9.161   6.604 -0.0899 -0.0921 -0.1564
  781POPS   C1A11855  13.417   9.290   7.127  0.1278  0.2598 -0.3091
  781POPS   D2A11856  13.442   9.343   7.520 -0.0130  0.2066  0.0748
  781POPS   C3A11857  13.616   9.213   7.876 -0.3214 -0.0422  0.1637
  781POPS   C4A11858  13.518   9.160   8.251 -0.1243 -0.3542  0.0878
  781POPS   C1B11859  13.803   9.416   6.825 -0.1179  0.1313  0.1075
  781POPS   C2B11860  13.863   9.473   7.281 -0.2870 -0.1372 -0.1044
  781POPS   C3B11861  14.026   9.456   7.634 -0.1192 -0.0819 -0.1947
  781POPS   C4B11862  14.053   9.327   8.143  0.2352  0.0023  0.1950
  782POPS   CNO11863   7.930   2.414   5.860  0.1289 -0.0182 -0.1508
  782POPS   PO411864   8.181   2.398   6.150  0.0253 -0.4737  0.1018
  782POPS   GL111865   7.942   2.475   6.460  0.0310  0.0794  0.0995
  782POPS   GL211866   7.926   2.838   6.568 -0.4885 -0.1092 -0.0513
  782POPS   C1A11867   7.869   2.315   6.881  0.3655 -0.1144  0.1063
  782POPS   D2A11868   7.943   2.196   7.353  0.1327  0.2799 -0.2151
  782POPS   C3A11869   7.630   2.115   7.608  0.0078  0.0646  0.1296
  782POPS   C4A11870   7.657   2.125   8.152  0.2326 -0.1331 -0.0970
  782POPS   C1B11871   8.049   3.038   6.899  0.1496 -0.3880  0.2282
  782POPS   C2B11872   7.957   3.075   7.333 -0.2119  0.2170 -0.2616
  782POPS   C3B11873   7.831   2.924   7.805  0.0510 -0.2257  0.3070
  782POPS   C4B11874   7.981   2.702   8.207  0.2238  0.1683  0.2203
  783POPS   CNO11875   9.653  10.628   6.154 -0.2056 -0.0648  0.0879
  783POPS   PO411876  10.016  10.521   6.246  0.1060  0.0707 -0.2990
  783POPS   GL111877  10.249  10.278   6.512  0.1895  0.0876 -0.1108
  783POPS   GL211878  10.537  10.362   6.643  0.1274 -0.1720 -0.0190
  783POPS   C1A11879  10.202  10.137   6.981  0.2463  0.0595 -0.2304
  783POPS   D2A11880  10.214  10.197   7.384  0.1505 -0.0856 -0.4717
  783POPS   C3A11881  10.309   9.951   7.635 -0.1796  0.0689 -0.0005
  783POPS   C4A11882  10.579   9.816   7.974  0.3360  0.0099 -0.0296
  783POPS   C1B11883  10.555  10.471   7.017  0.3798  0.1704 -0.0901
  783POPS   C2B11884  10.621  10.463   7.553 -0.1061 -0.0216  0.0070
  783POPS   C3B11885  10.454  10.441   7.966  0.4185  0.1805 -0.2959
  783POPS   C4B11886  10.311  10.418   8.427  0.5234 -0.3127 -0.0283
  784POPS   CNO11887   3.666   6.314   6.126 -0.0303 -0.2091 -0.2638
  784POPS   PO411888   3.918   6.010   6.031  0.0674  0.2157  0.2118
  784POPS   GL111889   4.220   5.809   6.260  0.0886  0.0909 -0.1085
  784POPS   GL211890   4.444   5.875   6.447 -0.0722  0.2175  0.1387
  784POPS   C1A11891   4.219   5.475   6.576  0.1341  0.0742  0.0391
  784POPS   D2A11892   4.144   5.300   7.000  0.4335  0.1423 -0.0033
  784POPS   C3A11893   4.360   5.170   7.381  0.0630  0.1002 -0.0240
  784POPS   C4A11894   4.477   4.933   7.846 -0.0193  0.1954 -0.0932
  784POPS   C1B11895   4.502   5.871   6.890  0.1353  0.0951 -0.0539
  784POPS   C2B11896   4.645   5.628   7.288 -0.0837  0.0473  0.0513
  784POPS   C3B11897   4.634   5.616   7.637 -0.0787  0.1130 -0.0974
  784POPS   C4B11898   4.642   5.671   8.115 -0.0701 -0.3132 -0.1430
  785POPS   CNO11899   5.185   7.433   6.096  0.1546 -0.1855  0.1011
  785POPS   PO411900   4.891   7.474   6.288  0.0360  0.2075 -0.1202
  785POPS   GL111901   5.203   7.447   6.601 -0.1109  0.1061 -0.0672
  785POPS   GL211902   5.469   7.662   6.515 -0.1814 -0.0004 -0.0027
  785POPS   C1A11903   5.353   7.456   7.037 -0.1668  0.2276  0.1346
  785POPS   D2A11904   5.571   7.695   7.258 -0.0683 -0.3642  0.2083
  785POPS   C3A11905   5.495   8.037   7.594  0.1459  0.2712  0.0480
  785POPS   C4A11906   5.758   8.227   7.867 -0.0109  0.1720 -0.1496
  785POPS   C1B11907   5.313   7.962   6.869 -0.0272 -0.2627  0.2846
  785POPS   C2B11908   5.179   8.137   7.121 -0.1452  0.1378 -0.1181
  785POPS   C3B11909   5.000   8.170   7.586 -0.3591 -0.0821 -0.0391
  785POPS   C4B11910   5.184   8.081   7.980  0.0681  0.0652  0.0166
  786POPS   CNO11911   3.966   9.652   6.073 -0.0797  0.0428 -0.0280
  786POPS   PO411912   3.747   9.901   6.359  0.3763  0.1806  0.4762
  786POPS   GL111913   3.950   9.867   6.752  0.1773  0.4112  0.0013
  786POPS   GL211914   3.738   9.605   6.961 -0.2222 -0.2926  0.0361
  786POPS   C1A11915   4.312   9.997   6.989 -0.0864 -0.1291 -0.0919
  786POPS   D2A11916   4.448  10.279   7.240  0.0973  0.1728  0.0180
  786POPS   C3A11917   4.396  10.373   7.594 -0.0569 -0.2547  0.0057
  786POPS   C4A11918   4.230  10.584   7.879  0.0553 -0.1775  0.3232
  786POPS   C1B11919   3.859   9.831   7.273  0.0792 -0.0505  0.2440
  786POPS   C2B11920   3.687   9.808   7.624 -0.1128  0.1321  0.2087
  786POPS   C3B11921   3.757   9.681   8.112 -0.0298  0.1363  0.3069
  786POPS   C4B11922   3.570   9.633   8.418  0.0989  0.2018  0.1312
  787POPS   CNO11923  14.646   2.333   6.376  0.0354 -0.0921 -0.2690
  787POPS   PO411924  14.911   1.975   6.432 -0.1433  0.1226 -0.2903
  787POPS   GL111925  15.159   2.210   6.731  0.0854  0.2194 -0.0995
  787POPS   GL211926  14.872   2.446   6.789 -0.1012 -0.0309 -0.0446
  787POPS   C1A11927  15.242   2.302   7.168 -0.0969 -0.1343 -0.0866
  787POPS   D2A11928  15.055   2.244   7.561  0.0461  0.2281 -0.2338
  787POPS   C3A11929  15.144   2.118   7.966 -0.2075  0.2868 -0.0380
  787POPS   C4A11930  15.127   1.955   8.290  0.0047 -0.2722 -0.0498
  787POPS   C1B11931  14.732   2.321   7.135 -0.0113  0.0985 -0.0280
  787POPS   C2B11932  14.585   2.353   7.559 -0.1626 -0.1207  0.0172
  787POPS   C3B11933  14.662   2.212   7.915 -0.1839 -0.0470  0.0921
  787POPS   C4B11934  14.562   2.147   8.218 -0.1647  0.1205  0.2850
  788POPS   CNO11935  12.552  16.372   6.409  0.1373  0.2847  0.0625
  788POPS   PO411936  12.110  16.625   6.641 -0.1348 -0.0208  0.1332
  788POPS   GL111937  11.933  16.535   6.951 -0.1975 -0.1071  0.1225
  788POPS   GL211938  11.879  16.239   7.075 -0.1287 -0.0378  0.0761
  788POPS   C1A11939  11.711  16.600   7.403 -0.2243 -0.1766 -0.2660
  788POPS   D2A11940  11.590  16.391   7.779 -0.3154  0.3175  0.0784
  788POPS   C3A11941  11.723  16.522   8.170  0.2582  0.0079  0.2846
  788POPS   C4A11942  11.907  16.593   8.629  0.0555  0.0162  0.1735
  788POPS   C1B11943  12.151  16.375   7.377 -0.0673  0.0472  0.1328
  788POPS   C2B11944  12.065  16.372   7.700 -0.3762  0.2651 -0.2954
  788POPS   C3B11945  12.143  16.261   8.218  0.0485 -0.2194 -0.0147
  788POPS   C4B11946  11.982  15.962   8.461 -0.1504  0.2882 -0.1409
  789POPS   CNO11947   7.963   1.699   5.895 -0.3246  0.0927  0.0273
  789POPS   PO411948   8.044   1.164   5.782  0.3395  0.1296 -0.0208
  789POPS   GL111949   7.906   1.194   6.226 -0.0062  0.0557  0.1636
  789POPS   GL211950   7.786   1.442   6.272  0.0559  0.0670 -0.2813
  789POPS   C1A11951   8.186   1.468   6.563  0.1834 -0.3346  0.1123
  789POPS   D2A11952   8.356   1.610   6.969 -0.0156 -0.0665  0.0164
  789POPS   C3A11953   8.214   1.761   7.399  0.2103 -0.2076  0.3092
  789POPS   C4A11954   8.306   1.517   7.696  0.1036  0.0749  0.3094
  789POPS   C1B11955   7.603   1.429   6.647 -0.0186 -0.0001 -0.0940
  789POPS   C2B11956   7.537   1.229   7.096 -0.3740  0.0271  0.2195
  789POPS   C3B11957   7.324   1.265   7.502  0.2077  0.0974 -0.1998
  789POPS   C4B11958   7.040   1.426   7.768 -0.0502  0.1512 -0.2503
  790POPS   CNO11959   5.189   0.548   6.145  0.4517 -0.1958  0.0724
  790POPS   PO411960   5.461   0.119   6.169 -0.0777  0.0796 -0.0366
  790POPS   GL111961   5.476   0.146   6.562 -0.0846 -0.1522 -0.2884
  790POPS   GL211962   5.187   0.017   6.623  0.0627 -0.1529  0.2820
  790POPS   C1A11963   5.508   0.437   6.908 -0.0875  0.1312  0.3291
  790POPS   D2A11964   5.663   0.611   7.298 -0.2459 -0.1812 -0.0891
  790POPS   C3A11965   5.491   0.907   7.609  0.3080  0.1070  0.1958
  790POPS   C4A11966   5.358   1.253   7.881  0.0661 -0.0603  0.1102
  790POPS   C1B11967   5.261  -0.061   6.988 -0.2172 -0.1004 -0.1164
  790POPS   C2B11968   5.461   0.106   7.373 -0.2157 -0.3834 -0.2873
  790POPS   C3B11969   5.864   0.291   7.606 -0.1082  0.0313 -0.3981
  790POPS   C4B11970   6.127   0.508   7.565  0.1449 -0.2522  0.1645
  791POPS   CNO11971  14.392  17.179   5.856  0.0934 -0.0938 -0.1180
  791POPS   PO411972  14.622  16.987   6.211 -0.1956 -0.1888 -0.1608
  791POPS   GL111973  14.698  17.162   6.569  0.0379  0.0435 -0.4463
  791POPS   GL211974  14.396  17.028   6.767  0.0489  0.0210 -0.1444
  791POPS   C1A11975  14.823  17.207   7.041  0.1616 -0.0216 -0.3765
  791POPS   D2A11976  15.110  17.154   7.316 -0.1652 -0.2459 -0.1128
  791POPS   C3A11977  15.344  16.827   7.342  0.0882  0.2274  0.6451
  791POPS   C4A11978  15.566  16.582   7.086 -0.0898  0.1417  0.4529
  791POPS   C1B11979  14.661  16.767   7.182  0.0731  0.4261 -0.1000
  791POPS   C2B11980  14.826  16.794   7.514  0.1458 -0.1121 -0.2325
  791POPS   C3B11981  15.085  16.673   7.781 -0.0764  0.3229  0.1801
  791POPS   C4B11982  15.152  16.802   8.214 -0.1705  0.0520  0.1556
  792POPS   CNO11983   3.482   1.235   6.103 -0.3288 -0.1467  0.0067
  792POPS   PO411984   3.931   1.183   6.189  0.4054 -0.1388  0.3378
  792POPS   GL111985   3.591   1.138   6.603  0.4168  0.1074 -0.0762
  792POPS   GL211986   3.595   1.438   6.638 -0.1096  0.1958  0.0631
  792POPS   C1A11987   3.405   0.901   6.907 -0.0822  0.4237  0.0374
  792POPS   D2A11988   3.484   0.811   7.383  0.1039 -0.1368  0.0499
  792POPS   C3A11989   3.250   0.479   7.515 -0.0137  0.0489 -0.1244
  792POPS   C4A11990   3.205   0.013   7.305  0.0948 -0.2436 -0.2289
  792POPS   C1B11991   3.612   1.255   7.135  0.0174  0.0687 -0.0681
  792POPS   C2B11992   3.801   1.228   7.486  0.0870  0.1073  0.3656
  792POPS   C3B11993   3.422   1.236   7.753 -0.0364 -0.0391  0.0561
  792POPS   C4B11994   2.995   1.310   7.657  0.0524  0.1997  0.1103
  793POPS   CNO11995  13.039   6.524   5.873  0.2128  0.0367  0.1993
  793POPS   PO411996  12.699   6.353   6.139 -0.1766  0.2069 -0.1390
  793POPS   GL111997  12.608   6.318   6.553  0.0748  0.0395 -0.0515
  793POPS   GL211998  12.194   6.440   6.553  0.0755  0.0303  0.2921
  793POPS   C1A11999  12.629   6.423   7.056  0.0536 -0.2062  0.2313
  793POPS   D2A12000  12.590   6.527   7.511 -0.1098 -0.2655  0.0434
  793POPS   C3A12001  12.577   6.416   8.057 -0.1145  0.0156  0.2081
  793POPS   C4A12002  12.616   6.173   8.340  0.2293  0.2946  0.3195
  793POPS   C1B12003  12.188   6.574   6.928 -0.0453 -0.1430 -0.1696
  793POPS   C2B12004  12.392   6.876   7.079 -0.1028 -0.0344 -0.1481
  793POPS   C3B12005  12.569   6.997   7.472 -0.1794  0.0469  0.0145
  793POPS   C4B12006  12.799   6.878   7.798  0.3691  0.0089  0.1734
  794POPS   CNO12007  12.882   7.160   6.285 -0.0180  0.0203  0.3881
  794POPS   PO412008  12.798   7.641   6.255  0.1806  0.1043  0.0602
  794POPS   GL112009  12.675   7.391   6.686  0.2673  0.0162 -0.0698
  794POPS   GL212010  12.443   7.125   6.700  0.4034  0.3313 -0.0531
  794POPS   C1A12011  12.599   7.385   7.175 -0.0105  0.1473 -0.1360
  794POPS   D2A12012  12.721   7.470   7.639 -0.0561 -0.0267 -0.2189
  794POPS   C3A12013  12.428   7.256   7.928 -0.0238 -0.0692  0.2169
  794POPS   C4A12014  12.392   7.232   8.360  0.2640 -0.5292  0.0031
  794POPS   C1B12015  12.086   7.234   6.866  0.0495 -0.1388 -0.2171
  794POPS   C2B12016  12.187   7.291   7.347 -0.1882  0.3620  0.1038
  794POPS   C3B12017  11.855   7.288   7.716 -0.0336 -0.0108 -0.3227
  794POPS   C4B12018  11.585   7.422   7.974 -0.0798 -0.1438  0.0242
  795POPS   CNO12019   3.052  10.569   5.870 -0.0537 -0.0455 -0.0184
  795POPS   PO412020   3.444  10.720   5.981  0.0473 -0.0829  0.0619
  795POPS   GL112021   3.293  10.713   6.388  0.4182 -0.1322 -0.0714
  795POPS   GL212022   3.008  10.580   6.345 -0.0905 -0.0094 -0.0811
  795POPS   C1A12023   3.483  10.789   6.804 -0.0254 -0.1146  0.2088
  795POPS   D2A12024   3.594  10.953   7.260 -0.0972  0.0146  0.0502
  795POPS   C3A12025   3.817  11.257   7.310 -0.0149 -0.0079  0.0179
  795POPS   C4A12026   4.017  11.396   7.666 -0.0802  0.2066 -0.0128
  795POPS   C1B12027   2.720  10.171   6.608  0.1583 -0.2586 -0.0982
  795POPS   C2B12028   2.687  10.180   6.966  0.2912  0.0184 -0.0121
  795POPS   C3B12029   2.708  10.364   7.380  0.0628  0.0958  0.0622
  795POPS   C4B12030   2.715  10.420   7.824 -0.0882 -0.1800  0.0561
  796POPS   CNO12031  10.794   9.272   6.230  0.0065 -0.2135  0.2949
  796POPS   PO412032  10.804   9.616   6.353  0.1905  0.1483  0.2357
  796POPS   GL112033  11.075   9.622   6.798 -0.1133 -0.0077 -0.1716
  796POPS   GL212034  11.412   9.679   6.756  0.0915  0.1342  0.0134
  796POPS   C1A12035  11.326   9.544   7.230 -0.3128  0.1844  0.0416
  796POPS   D2A12036  11.614   9.747   7.534  0.2170 -0.0717 -0.2150
  796POPS   C3A12037  11.827   9.455   7.861  0.2581 -0.0560  0.0184
  796POPS   C4A12038  12.032   9.372   8.230  0.1493  0.2879  0.3506
  796POPS   C1B12039  11.720   9.775   7.042 -0.1294 -0.0132  0.1374
  796POPS   C2B12040  12.055   9.578   7.281 -0.1771 -0.3150 -0.2054
  796POPS   C3B12041  12.269   9.484   7.619 -0.2018 -0.0791  0.1250
  796POPS   C4B12042  12.344   9.680   8.000  0.0096  0.2089 -0.1036
  797POPS   CNO12043  13.961  11.355   5.463  0.0500 -0.0863  0.2321
  797POPS   PO412044  13.738  11.241   5.859 -0.1184  0.0239 -0.1370
  797POPS   GL112045  13.924  11.443   6.148  0.1638 -0.0633 -0.0931
  797POPS   GL212046  13.842  11.629   6.362 -0.1514  0.1902 -0.3723
  797POPS   C1A12047  14.153  11.263   6.528  0.1671 -0.3359 -0.0430
  797POPS   D2A12048  14.242  11.217   6.996  0.1265 -0.0895 -0.2503
  797POPS   C3A12049  14.023  10.887   7.291 -0.1542 -0.1508  0.1406
  797POPS   C4A12050  14.091  10.748   7.712  0.2821 -0.2457  0.0363
  797POPS   C1B12051  13.666  11.891   6.772 -0.2490 -0.6143 -0.1241
  797POPS   C2B12052  13.706  11.877   7.292  0.1023  0.0324 -0.2933
  797POPS   C3B12053  13.969  11.793   7.745  0.0988 -0.2454  0.2693
  797POPS   C4B12054  14.229  11.901   8.140 -0.0872 -0.2989 -0.2227
  798POPS   CNO12055   5.516   3.999   5.956 -0.0313  0.1875  0.1561
  798POPS   PO412056   5.231   3.796   6.328 -0.0699 -0.4247 -0.3944
  798POPS   GL112057   5.377   3.953   6.752 -0.1504 -0.1929 -0.0212
  798POPS   GL212058   5.729   3.902   6.893  0.3198  0.0098  0.1747
  798POPS   C1A12059   5.435   4.198   7.151  0.0258 -0.0573  0.0041
  798POPS   D2A12060   5.433   4.034   7.515  0.1815 -0.2178  0.1013
  798POPS   C3A12061   5.304   4.177   7.890 -0.1736 -0.1489  0.3392
  798POPS   C4A12062   5.104   4.244   8.354 -0.0467 -0.2144  0.2989
  798POPS   C1B12063   5.837   3.739   7.308  0.3959  0.1339 -0.1847
  798POPS   C2B12064   5.838   3.822   7.757  0.0161  0.1830 -0.0558
  798POPS   C3B12065   6.034   3.943   8.097 -0.0834 -0.0851  0.0276
  798POPS   C4B12066   6.054   4.119   8.464  0.0737 -0.2962  0.0234
  799POPS   CNO12067   9.759   1.961   6.092  0.2105  0.0470  0.0778
  799POPS   PO412068  10.178   1.755   5.980 -0.0920  0.2008  0.1003
  799POPS   GL112069  10.109   1.901   6.435  0.2052 -0.1694  0.0429
  799POPS   GL212070   9.997   2.222   6.538 -0.0239  0.2374  0.1907
  799POPS   C1A12071  10.231   1.827   6.853  0.0427  0.0109  0.2937
  799POPS   D2A12072  10.341   2.033   7.274 -0.1405 -0.2510  0.0857
  799POPS   C3A12073  10.335   1.842   7.702 -0.0614  0.0397  0.1982
  799POPS   C4A12074  10.450   1.613   8.075  0.4560 -0.1806  0.1256
  799POPS   C1B12075   9.804   2.153   6.920 -0.0088 -0.1040  0.0257
  799POPS   C2B12076   9.810   1.983   7.288 -0.0711  0.2226 -0.2443
  799POPS   C3B12077   9.772   1.774   7.670 -0.4067 -0.0411  0.1726
  799POPS   C4B12078   9.790   1.572   7.954 -0.0601  0.0668  0.0049
  800POPS   CNO12079  14.552   7.984   6.068 -0.0703 -0.1326 -0.0001
  800POPS   PO412080  14.429   8.483   5.969  0.0523  0.3105 -0.0039
  800POPS   GL112081  14.278   8.542   6.379 -0.0041  0.1473 -0.3311
  800POPS   GL212082  14.107   8.868   6.374  0.1494 -0.0112  0.0626
  800POPS   C1A12083  14.224   8.679   6.860  0.1816  0.0612  0.0489
  800POPS   D2A12084  14.253   9.101   7.129 -0.0089 -0.3459 -0.0354
  800POPS   C3A12085  14.392   9.437   6.984 -0.1478  0.3359 -0.3141
  800POPS   C4A12086  14.599   9.735   6.689  0.1572  0.1234  0.0484
  800POPS   C1B12087  14.205   9.262   6.501  0.0661  0.2108 -0.1004
  800POPS   C2B12088  14.160   9.673   6.515  0.2106 -0.1534  0.2038
  800POPS   C3B12089  14.147   9.912   6.845  0.1010  0.2113  0.1934
  800POPS   C4B12090  14.164   9.849   7.295 -0.2491 -0.0464 -0.0753
  801POPS   CNO12091  13.020   7.529   5.486  0.1280 -0.2960  0.1658
  801POPS   PO412092  13.137   7.419   5.913 -0.3220  0.0244  0.4098
  801POPS   GL112093  13.336   7.524   6.401  0.5010 -0.1244  0.0391
  801POPS   GL212094  13.304   7.782   6.495 -0.3716  0.0374 -0.1971
  801POPS   C1A12095  13.124   7.460   6.848  0.0139  0.0406  0.0184
  801POPS   D2A12096  13.120   7.491   7.312 -0.2039  0.1467 -0.2495
  801POPS   C3A12097  13.149   7.157   7.546 -0.1352 -0.0669  0.0435
  801POPS   C4A12098  13.339   6.968   7.879  0.0207  0.1377  0.0569
  801POPS   C1B12099  13.269   7.951   6.982 -0.0360 -0.0860  0.1488
  801POPS   C2B12100  13.240   7.946   7.434  0.0548  0.0441  0.1246
  801POPS   C3B12101  13.161   7.722   7.828 -0.1397 -0.1514 -0.5857
  801POPS   C4B12102  13.364   7.462   8.054  0.0043  0.0637 -0.2004
  802POPS   CNO12103  11.713  17.343   6.599  0.1232  0.3039 -0.0430
  802POPS   PO412104  12.165  17.135   6.542 -0.0847 -0.0508 -0.0886
  802POPS   GL112105  12.048  17.060   6.970  0.0402 -0.0368 -0.0686
  802POPS   GL212106  12.282  16.836   7.137  0.0281  0.0700  0.3601
  802POPS   C1A12107  11.705  17.073   7.268 -0.0377  0.0265 -0.2925
  802POPS   D2A12108  11.488  17.052   7.597  0.0236  0.0183  0.1231
  802POPS   C3A12109  11.190  16.658   7.594  0.0357  0.0168 -0.1833
  802POPS   C4A12110  11.303  16.274   7.392 -0.2748 -0.0044  0.0738
  802POPS   C1B12111  12.208  16.871   7.556 -0.2163 -0.1152 -0.0523
  802POPS   C2B12112  11.907  16.879   7.827  0.0629  0.0360  0.0196
  802POPS   C3B12113  11.461  16.935   8.071 -0.0764 -0.2704  0.0965
  802POPS   C4B12114  11.317  17.374   8.266 -0.3565  0.4526 -0.0782
  803YOPS   CNO12115   8.847   4.849   6.356  0.3544  0.4429  0.0922
  803YOPS   PO412116   9.264   4.775   6.484 -0.1917  0.1189  0.1289
  803YOPS   GL112117   9.512   4.875   6.828  0.0974 -0.1466  0.1542
  803YOPS   GL212118   9.325   5.120   6.935 -0.0037  0.1287 -0.1166
  803YOPS   C1A12119   9.542   4.854   7.278  0.0482 -0.0441  0.0709
  803YOPS   D2A12120   9.629   4.876   7.643 -0.2768  0.1218 -0.0374
  803YOPS   C3A12121   9.735   4.975   8.108  0.0031  0.0291 -0.0057
  803YOPS   C4A12122   9.687   5.295   8.473  0.0118  0.0901  0.0708
  803YOPS   C1B12123   9.545   5.336   7.198  0.1148  0.0108  0.0039
  803YOPS   C2B12124   9.704   5.714   7.487 -0.0773  0.1002  0.0761
  803YOPS   D3B12125   9.663   6.149   7.327 -0.1071 -0.2012  0.0969
  803YOPS   C4B12126   9.375   6.415   7.518  0.1503  0.0510  0.2824
  804YOPS   CNO12127  10.720   3.012   5.947  0.1207 -0.1569  0.1716
  804YOPS   PO412128  10.705   3.372   6.205 -0.1082 -0.0381 -0.4729
  804YOPS   GL112129  10.368   3.240   6.468 -0.2669 -0.1131 -0.2946
  804YOPS   GL212130  10.434   3.240   6.864 -0.1863 -0.0921  0.0005
  804YOPS   C1A12131   9.971   3.017   6.433 -0.3150 -0.0672 -0.1909
  804YOPS   D2A12132   9.642   3.043   6.648  0.0097 -0.2272  0.3476
  804YOPS   C3A12133   9.446   2.873   6.951  0.2995 -0.2366 -0.1345
  804YOPS   C4A12134   9.605   2.651   7.266 -0.1274  0.1465 -0.1976
  804YOPS   C1B12135  10.619   3.216   7.301 -0.0449  0.0373 -0.0681
  804YOPS   C2B12136  10.830   3.124   7.610  0.0934 -0.1633  0.2816
  804YOPS   D3B12137  10.999   3.302   8.076  0.2091 -0.2417  0.1228
  804YOPS   C4B12138  11.362   3.082   8.323 -0.0995  0.0070  0.2749
  805YOPS   CNO12139   9.682  17.766   5.014 -0.1881  0.2113 -0.1106
  805YOPS   PO412140   9.547  17.505   5.265  0.0053  0.0450 -0.0043
  805YOPS   GL112141   9.399  17.783   5.521  0.1142 -0.0705 -0.0187
  805YOPS   GL212142   9.077  17.769   5.796 -0.0303  0.0051  0.6809
  805YOPS   C1A12143   9.583  17.991   5.848  0.1493  0.0486  0.0751
  805YOPS   D2A12144   9.449  17.905   6.293  0.2378 -0.1067  0.0295
  805YOPS   C3A12145   9.320  17.815   6.696 -0.2359  0.0873 -0.3179
  805YOPS   C4A12146   9.086  17.471   6.692  0.2737 -0.0405 -0.1057
  805YOPS   C1B12147   9.258  17.477   6.100 -0.1535  0.0420 -0.1835
  805YOPS   C2B12148   9.501  17.443   6.384 -0.0167  0.2018  0.0580
  805YOPS   D3B12149   9.588  16.992   6.576 -0.0070 -0.0638  0.1036
  805YOPS   C4B12150   9.678  16.943   7.001 -0.3279  0.0497  0.1950
  806YOPS   CNO12151  14.176  15.827   6.188 -0.2209 -0.0311 -0.0220
  806YOPS   PO412152  14.527  15.652   6.395  0.0055  0.0085 -0.0749
  806YOPS   GL112153  14.659  15.485   6.669 -0.1501  0.2857 -0.0412
  806YOPS   GL212154  14.544  15.202   6.719  0.0783  0.2607 -0.2071
  806YOPS   C1A12155  14.650  15.318   7.171  0.3241  0.0458 -0.0128
  806YOPS   D2A12156  14.783  15.457   7.665  0.0206  0.0130  0.0418
  806YOPS   C3A12157  14.808  15.724   8.054 -0.0207  0.0813  0.0674
  806YOPS   C4A12158  15.125  15.811   8.266 -0.0942 -0.2194 -0.0952
  806YOPS   C1B12159  14.341  15.015   7.048 -0.0305 -0.0352 -0.0145
  806YOPS   C2B12160  14.317  14.795   7.379 -0.0416  0.2348 -0.0452
  806YOPS   D3B12161  14.133  14.665   7.767  0.2166 -0.1173  0.1685
  806YOPS   C4B12162  13.834  14.301   7.908 -0.0336  0.1289 -0.3419
  807YOPS   CNO12163  15.928   3.488   6.027 -0.1753  0.1518 -0.3489
  807YOPS   PO412164  16.272   3.453   6.312  0.1007 -0.2201 -0.0125
  807YOPS   GL112165  16.102   3.376   6.751 -0.0553  0.1114 -0.3444
  807YOPS   GL212166  15.940   3.154   6.767  0.0194 -0.1593 -0.0250
  807YOPS   C1A12167  16.129   3.324   7.202  0.0958  0.3197  0.0916
  807YOPS   D2A12168  16.200   3.357   7.700  0.1146 -0.1137  0.1056
  807YOPS   C3A12169  15.925   3.139   8.079 -0.0736 -0.0984 -0.1999
  807YOPS   C4A12170  16.198   2.941   8.350 -0.1428 -0.1098 -0.3157
  807YOPS   C1B12171  15.772   2.988   7.085  0.4088  0.0096 -0.0417
  807YOPS   C2B12172  15.861   3.023   7.517  0.0070 -0.1172 -0.0356
  807YOPS   D3B12173  15.750   2.665   7.904 -0.1027  0.1092  0.1294
  807YOPS   C4B12174  15.816   2.670   8.332 -0.1418 -0.0360 -0.0159
  808YOPS   CNO12175   0.734   7.998   6.250 -0.0457  0.2443 -0.2050
  808YOPS   PO412176   0.802   7.658   6.427 -0.0668  0.0707  0.2441
  808YOPS   GL112177   0.779   7.847   6.752 -0.1212  0.1283 -0.0680
  808YOPS   GL212178   0.821   8.164   6.702  0.0248 -0.1460 -0.0100
  808YOPS   C1A12179   0.955   7.739   7.235 -0.1461 -0.4257 -0.0395
  808YOPS   D2A12180   0.937   7.729   7.775  0.0119 -0.1205  0.0577
  808YOPS   C3A12181   0.826   7.699   8.226  0.2445  0.1782 -0.1887
  808YOPS   C4A12182   0.987   7.296   8.549 -0.1028 -0.3905 -0.0290
  808YOPS   C1B12183   0.982   8.242   7.184  0.0582 -0.1723 -0.2471
  808YOPS   C2B12184   0.981   8.529   7.418  0.1567 -0.2155  0.0939
  808YOPS   D3B12185   0.973   8.654   7.828  0.3110  0.1154  0.1823
  808YOPS   C4B12186   0.865   8.893   8.122 -0.1224  0.0392 -0.0819
  809YOPS   CNO12187   0.668   5.452   6.492  0.3625 -0.0119 -0.0622
  809YOPS   PO412188   1.048   5.627   6.361 -0.0431 -0.3115 -0.1795
  809YOPS   GL112189   1.035   5.589   6.785  0.0796 -0.0545 -0.0078
  809YOPS   GL212190   0.900   5.876   6.847 -0.1598  0.0640 -0.0131
  809YOPS   C1A12191   0.610   5.545   7.046 -0.0646 -0.2345 -0.0451
  809YOPS   D2A12192   0.466   5.498   7.370 -0.3313 -0.1078  0.1024
  809YOPS   C3A12193   0.211   5.642   7.719  0.0195  0.2301 -0.0944
  809YOPS   C4A12194  -0.050   5.360   7.941  0.2671 -0.0899  0.4090
  809YOPS   C1B12195   0.742   6.030   7.205 -0.0498 -0.2247 -0.1186
  809YOPS   C2B12196   0.547   6.004   7.609  0.1005  0.2391  0.2486
  809YOPS   D3B12197   0.544   5.918   8.079  0.2110 -0.3185  0.3823
  809YOPS   C4B12198   0.665   6.232   8.441  0.2158 -0.1089 -0.0587
  810YOPS   CNO12199  12.300   6.451   5.867 -0.1557  0.0400  0.0005
  810YOPS   PO412200  12.256   6.108   6.210 -0.1187 -0.1074  0.1866
  810YOPS   GL112201  12.224   5.915   6.633 -0.1239  0.0242 -0.0717
  810YOPS   GL212202  12.554   5.950   6.861  0.0575  0.1045 -0.1238
  810YOPS   C1A12203  12.168   5.756   7.021 -0.1402  0.2704 -0.1011
  810YOPS   D2A12204  12.110   5.718   7.486  0.0078 -0.3468  0.0508
  810YOPS   C3A12205  11.964   5.638   7.905 -0.1904  0.0030  0.2012
  810YOPS   C4A12206  12.059   5.471   8.288  0.2561 -0.3878 -0.4550
  810YOPS   C1B12207  12.654   5.941   7.267 -0.1568  0.2178 -0.0242
  810YOPS   C2B12208  12.553   5.924   7.775 -0.1517  0.0875  0.1486
  810YOPS   D3B12209  12.437   5.591   8.005 -0.0028  0.2741 -0.1857
  810YOPS   C4B12210  12.374   5.230   7.923  0.1478  0.0345 -0.0096
  811YOPS   CNO12211   2.461  14.163   5.908 -0.0152 -0.1784  0.0437
  811YOPS   PO412212   2.576  14.684   5.958 -0.1389 -0.0695 -0.0517
  811YOPS   GL112213   2.534  14.883   6.297  0.1660  0.6209 -0.0985
  811YOPS   GL212214   2.575  15.207   6.478 -0.3205  0.3451 -0.0667
  811YOPS   C1A12215   2.245  14.974   6.705 -0.2145  0.0637 -0.0021
  811YOPS   D2A12216   2.064  15.105   7.115  0.0624  0.0104  0.0361
  811YOPS   C3A12217   2.072  15.264   7.538  0.0494 -0.2423  0.0159
  811YOPS   C4A12218   1.606  15.249   7.720  0.0272 -0.2691 -0.0939
  811YOPS   C1B12219   2.678  15.246   6.910 -0.2972  0.0524 -0.2078
  811YOPS   C2B12220   2.476  15.517   7.216  0.0404  0.0601 -0.0860
  811YOPS   D3B12221   2.396  15.747   7.604 -0.0578  0.0291  0.0414
  811YOPS   C4B12222   2.621  16.092   7.920 -0.3240  0.0549  0.4388
  812YOPS   CNO12223   7.374  16.368   6.063  0.1716  0.1267 -0.3665
  812YOPS   PO412224   7.169  15.980   6.147 -0.0007  0.1150 -0.2650
  812YOPS   GL112225   7.050  15.819   6.554  0.1110 -0.1613  0.1521
  812YOPS   GL212226   6.871  15.514   6.565  0.1974 -0.3347  0.0537
  812YOPS   C1A12227   7.324  15.615   6.903  0.0426  0.0864  0.2201
  812YOPS   D2A12228   7.586  15.801   7.150  0.1056 -0.0447  0.1492
  812YOPS   C3A12229   7.829  15.918   7.529 -0.0874 -0.0272 -0.0261
  812YOPS   C4A12230   8.027  16.208   7.384 -0.2160  0.2007  0.0192
  812YOPS   C1B12231   6.577  15.728   6.837 -0.0821  0.0182  0.0584
  812YOPS   C2B12232   6.399  15.835   7.153  0.2735 -0.0345 -0.0993
  812YOPS   D3B12233   6.078  15.661   7.416 -0.0926 -0.0297 -0.1218
  812YOPS   C4B12234   6.012  15.524   7.828  0.4809 -0.1059  0.0072
  813YOPS   CNO12235  10.804  15.046   6.103  0.0040 -0.1183 -0.0662
  813YOPS   PO412236  10.472  14.711   5.953 -0.1150  0.0862 -0.0254
  813YOPS   GL112237  10.398  14.594   6.305  0.3652 -0.2761  0.0783
  813YOPS   GL212238  10.559  14.724   6.447  0.2523  0.0266  0.0596
  813YOPS   C1A12239  10.330  14.264   6.618  0.2105 -0.3579 -0.2056
  813YOPS   D2A12240  10.102  14.111   6.945 -0.0384 -0.1726  0.2448
  813YOPS   C3A12241   9.990  14.001   7.377  0.1590 -0.1717  0.0828
  813YOPS   C4A12242   9.830  13.519   7.342  0.2542  0.0368 -0.0965
  813YOPS   C1B12243  10.551  14.719   6.858 -0.0748 -0.0485 -0.1050
  813YOPS   C2B12244  10.460  14.647   7.245 -0.3648 -0.0365  0.0667
  813YOPS   D3B12245  10.567  14.602   7.627  0.0948 -0.1803 -0.2956
  813YOPS   C4B12246  10.239  14.762   7.844  0.1817 -0.0692  0.0973
  814YOPS   CNO12247   0.224   0.703   6.345 -0.0582  0.0073 -0.0048
  814YOPS   PO412248   0.612   0.498   6.426  0.2892  0.0850  0.1157
  814YOPS   GL112249   0.746   0.303   6.752  0.3630 -0.0730 -0.0216
  814YOPS   GL212250   0.742   0.027   6.745  0.0846 -0.1108  0.1088
  814YOPS   C1A12251   0.927   0.332   7.116  0.1184  0.0825 -0.1662
  814YOPS   D2A12252   1.308   0.123   7.354  0.3493  0.3449  0.3160
  814YOPS   C3A12253   1.706   0.206   7.422 -0.1231 -0.2622  0.0777
  814YOPS   C4A12254   1.998  -0.029   7.600 -0.0023  0.0890  0.1487
  814YOPS   C1B12255   0.744  -0.161   7.184  0.0284 -0.1282 -0.1955
  814YOPS   C2B12256   0.498  -0.359   7.466  0.2394 -0.0554 -0.3591
  814YOPS   D3B12257   0.406  -0.527   7.929 -0.2164  0.1547 -0.0659
  814YOPS   C4B12258   0.142  -0.680   8.387 -0.1673 -0.1072 -0.3278
  815YOPS   CNO12259   8.306   5.438   6.020  0.0863  0.2005  0.2360
  815YOPS   PO412260   8.001   5.816   6.029 -0.2210  0.0509  0.1713
  815YOPS   GL112261   7.963   6.037   6.440 -0.0810 -0.3152  0.0039
  815YOPS   GL212262   7.918   6.411   6.378 -0.2146 -0.0738 -0.1706
  815YOPS   C1A12263   8.230   5.945   6.876 -0.2257  0.1551 -0.3479
  815YOPS   D2A12264   8.215   5.907   7.356 -0.0409 -0.2612  0.0873
  815YOPS   C3A12265   8.248   6.017   7.765  0.1391 -0.2517 -0.0587
  815YOPS   C4A12266   8.201   6.470   7.983 -0.1009 -0.0302  0.0186
  815YOPS   C1B12267   7.848   6.243   6.848 -0.1076  0.1359  0.3266
  815YOPS   C2B12268   8.086   6.341   7.207 -0.0621  0.5261 -0.1881
  815YOPS   D3B12269   7.873   6.511   7.457 -0.0022 -0.0586 -0.0814
  815YOPS   C4B12270   7.569   6.390   7.267 -0.2004  0.2639 -0.0626
  816YOPS   CNO12271  11.080   0.837   6.024  0.2794 -0.0012  0.0283
  816YOPS   PO412272  11.405   1.012   6.145 -0.0721 -0.0742 -0.0587
  816YOPS   GL112273  11.325   1.034   6.584  0.3697 -0.4185  0.2108
  816YOPS   GL212274  11.071   0.840   6.661  0.0850  0.0619 -0.0495
  816YOPS   C1A12275  11.487   1.065   6.993 -0.2513  0.1906  0.3616
  816YOPS   D2A12276  11.769   1.025   7.224  0.0449 -0.1506  0.0518
  816YOPS   C3A12277  12.107   1.076   7.480 -0.0334  0.0605 -0.3607
  816YOPS   C4A12278  12.505   0.913   7.373 -0.1171  0.0583  0.0687
  816YOPS   C1B12279  10.908   0.848   7.051  0.1580 -0.1036  0.0928
  816YOPS   C2B12280  10.844   0.852   7.452 -0.0565 -0.0653  0.0985
  816YOPS   D3B12281  10.701   0.512   7.740 -0.3411  0.2921 -0.1697
  816YOPS   C4B12282  11.077   0.246   8.009  0.2427  0.4273  0.1647
  817YOPS   CNO12283  15.441   0.740   6.700  0.1487 -0.2012 -0.0443
  817YOPS   PO412284  15.470   1.069   6.457 -0.2099  0.0471  0.0952
  817YOPS   GL112285  15.184   1.169   6.796  0.4445 -0.0244 -0.2964
  817YOPS   GL212286  14.923   0.993   6.775 -0.1013 -0.0734  0.1696
  817YOPS   C1A12287  14.986   1.224   7.176 -0.0685  0.0039  0.0496
  817YOPS   D2A12288  14.938   1.169   7.657  0.1311  0.1567  0.2475
  817YOPS   C3A12289  14.782   1.104   8.056  0.0617 -0.2111 -0.1336
  817YOPS   C4A12290  14.389   0.944   8.007 -0.0049  0.0451 -0.2110
  817YOPS   C1B12291  14.759   0.631   7.013 -0.2071  0.1319 -0.3467
  817YOPS   C2B12292  14.921   0.374   7.438  0.1308 -0.0246  0.2065
  817YOPS   D3B12293  15.179   0.312   7.730 -0.1933 -0.1100 -0.2736
  817YOPS   C4B12294  14.821   0.241   8.082  0.0126 -0.0914  0.4168
  818YOPS   CNO12295  17.741   5.127   5.995 -0.4391 -0.1530 -0.0932
  818YOPS   PO412296  18.118   5.289   6.173 -0.1166 -0.0149 -0.0549
  818YOPS   GL112297  17.944   5.472   6.499 -0.1583 -0.0826  0.2539
  818YOPS   GL212298  18.055   5.336   6.763  0.1187  0.4976 -0.0531
  818YOPS   C1A12299  17.676   5.641   6.710 -0.0971 -0.0892  0.1055
  818YOPS   D2A12300  17.412   5.653   7.054  0.0969 -0.0072  0.3289
  818YOPS   C3A12301  17.083   5.463   7.355 -0.0291 -0.0797  0.0737
  818YOPS   C4A12302  17.175   5.647   7.894  0.3347  0.3259  0.5060
  818YOPS   C1B12303  17.835   5.448   7.176 -0.1054 -0.2848  0.0261
  818YOPS   C2B12304  17.593   5.597   7.524  0.0098 -0.1369  0.2665
  818YOPS   D3B12305  17.621   5.904   7.840 -0.1487 -0.2714  0.1449
  818YOPS   C4B12306  17.598   5.718   8.220 -0.1324 -0.0713 -0.3046
  819YOPS   CNO12307  11.400  17.633   5.641 -0.2410  0.0069 -0.2958
  819YOPS   PO412308  11.552  17.888   6.022 -0.1459 -0.0129 -0.0119
  819YOPS   GL112309  11.515  17.906   6.455 -0.1772 -0.0452  0.1085
  819YOPS   GL212310  11.321  17.648   6.517  0.1743 -0.1582  0.1181
  819YOPS   C1A12311  11.515  17.935   6.861 -0.3830 -0.0809  0.2052
  819YOPS   D2A12312  11.374  17.893   7.223  0.0600  0.1022 -0.0937
  819YOPS   C3A12313  11.425  17.931   7.676  0.0796  0.1754 -0.2658
  819YOPS   C4A12314  11.478  17.806   8.130  0.0870  0.1127  0.2014
  819YOPS   C1B12315  11.050  17.686   6.848  0.0156 -0.1913 -0.0535
  819YOPS   C2B12316  10.914  17.656   7.191  0.1098 -0.1201  0.1255
  819YOPS   D3B12317  10.909  17.871   7.441  0.2227  0.0912  0.0447
  819YOPS   C4B12318  11.135  18.251   7.492  0.1040 -0.2065 -0.2836
  820YOPS   CNO12319   8.643  14.576   6.130  0.1452 -0.0916 -0.2157
  820YOPS   PO412320   8.192  14.825   6.015  0.0583  0.1250 -0.4035
  820YOPS   GL112321   8.463  14.930   6.425  0.0911  0.2622  0.4297
  820YOPS   GL212322   8.236  14.969   6.740 -0.0618  0.3261 -0.3997
  820YOPS   C1A12323   8.717  15.069   6.753  0.1191 -0.0954 -0.2235
  820YOPS   D2A12324   9.073  15.331   6.903 -0.0258 -0.0982  0.1092
  820YOPS   C3A12325   9.234  15.583   7.153 -0.1665  0.1017  0.4089
  820YOPS   C4A12326   9.439  15.944   7.041 -0.1901 -0.2058  0.1886
  820YOPS   C1B12327   8.005  14.885   7.003 -0.0574  0.1212 -0.1434
  820YOPS   C2B12328   8.125  14.954   7.404  0.1214  0.2154 -0.2248
  820YOPS   D3B12329   8.243  14.638   7.766 -0.1141  0.0273  0.1704
  820YOPS   C4B12330   8.194  14.255   7.793  0.1511  0.2420  0.0090
  821YOPS   CNO12331   6.742   2.414   6.302  0.1572  0.0627 -0.0579
  821YOPS   PO412332   7.028   2.741   6.149 -0.0817 -0.2476  0.1060
  821YOPS   GL112333   6.950   2.858   6.555 -0.0766  0.0405 -0.1047
  821YOPS   GL212334   6.970   3.146   6.609 -0.2989 -0.3749  0.0532
  821YOPS   C1A12335   7.004   2.701   6.947  0.1360 -0.1076  0.0412
  821YOPS   D2A12336   7.098   2.945   7.217  0.2372  0.0120 -0.1729
  821YOPS   C3A12337   7.352   2.933   7.539 -0.1977  0.3403 -0.2582
  821YOPS   C4A12338   7.374   2.974   8.015  0.3769  0.0509 -0.1109
  821YOPS   C1B12339   7.076   3.387   6.889  0.0180  0.4475 -0.1093
  821YOPS   C2B12340   6.952   3.803   7.090  0.0692 -0.3174 -0.0885
  821YOPS   D3B12341   7.023   4.191   7.299 -0.0459  0.0681 -0.0235
  821YOPS   C4B12342   6.998   4.596   7.131 -0.1532  0.0159  0.1658
  822YOPS   CNO12343  11.765  12.681   5.791  0.2134  0.0337 -0.1054
  822YOPS   PO412344  11.694  12.486   6.108  0.0964 -0.2020  0.1179
  822YOPS   GL112345  11.780  12.730   6.494  0.0795  0.1630 -0.4359
  822YOPS   GL212346  11.699  13.042   6.552  0.1598  0.0739 -0.1294
  822YOPS   C1A12347  11.865  12.719   6.864 -0.1879  0.1253 -0.1252
  822YOPS   D2A12348  11.870  12.714   7.377  0.4203 -0.1083 -0.1120
  822YOPS   C3A12349  11.860  12.492   7.848 -0.4137 -0.1903 -0.2232
  822YOPS   C4A12350  11.798  12.673   8.281  0.2270  0.1542 -0.2732
  822YOPS   C1B12351  11.760  13.163   6.976 -0.0411 -0.0168 -0.0349
  822YOPS   C2B12352  11.741  13.177   7.433 -0.0903  0.0368  0.1556
  822YOPS   D3B12353  11.752  13.291   7.788 -0.0647  0.0323  0.0849
  822YOPS   C4B12354  11.607  13.202   8.187  0.1708 -0.1311  0.1748
  823YOPS   CNO12355   4.771  16.213   6.199 -0.1790  0.0208 -0.1571
  823YOPS   PO412356   5.218  16.201   6.051 -0.1155 -0.1513 -0.0819
  823YOPS   GL112357   5.308  16.136   6.509 -0.0369  0.0261 -0.2033
  823YOPS   GL212358   5.088  16.281   6.683  0.1971  0.2579 -0.2064
  823YOPS   C1A12359   5.529  16.167   6.895 -0.0895 -0.2610 -0.1602
  823YOPS   D2A12360   5.585  16.529   7.193 -0.2116  0.0397 -0.4577
  823YOPS   C3A12361   5.439  16.766   7.559 -0.1072  0.0004 -0.2143
  823YOPS   C4A12362   4.989  16.607   7.827 -0.3271 -0.2980  0.1850
  823YOPS   C1B12363   5.140  16.365   7.196  0.3434  0.0056 -0.0152
  823YOPS   C2B12364   5.329  16.239   7.487 -0.0478  0.0458  0.1460
  823YOPS   D3B12365   5.521  16.299   7.847  0.0764  0.0258  0.2185
  823YOPS   C4B12366   5.884  16.073   7.840  0.2432  0.0520  0.2517
  824YOPS   CNO12367  11.408   8.672   5.864 -0.2141  0.2228 -0.0341
  824YOPS   PO412368  11.542   8.814   6.282  0.2606 -0.0834  0.1615
  824YOPS   GL112369  11.670   9.030   6.677  0.1740  0.0219 -0.0398
  824YOPS   GL212370  11.424   9.188   6.921  0.0721  0.0988  0.0516
  824YOPS   C1A12371  11.863   9.441   6.716 -0.2242  0.0008  0.5540
  824YOPS   D2A12372  12.269   9.738   6.848  0.3469  0.1184 -0.2054
  824YOPS   C3A12373  12.564  10.015   7.081 -0.0521  0.5108  0.0197
  824YOPS   C4A12374  12.519   9.972   7.582  0.1238 -0.1333  0.2233
  824YOPS   C1B12375  11.247   8.908   7.319 -0.1600  0.0609 -0.1768
  824YOPS   C2B12376  11.243   8.642   7.675  0.2650  0.2857 -0.0915
  824YOPS   D3B12377  11.270   8.920   8.042 -0.2819 -0.0363  0.0029
  824YOPS   C4B12378  11.406   8.930   8.469 -0.1319 -0.2886  0.1216
  825YOPS   CNO12379   3.133   2.669   5.904 -0.3271 -0.0176 -0.1302
  825YOPS   PO412380   3.375   2.323   6.202 -0.0989  0.2988 -0.1008
  825YOPS   GL112381   3.697   2.163   6.474  0.0233 -0.2498  0.0475
  825YOPS   GL212382   3.893   2.405   6.348 -0.2406  0.3975 -0.1227
  825YOPS   C1A12383   3.643   2.190   6.906  0.1354 -0.0894 -0.0613
  825YOPS   D2A12384   3.290   2.215   7.182  0.0918  0.2677  0.1639
  825YOPS   C3A12385   3.273   2.200   7.576 -0.1456  0.2686  0.0300
  825YOPS   C4A12386   3.462   2.507   7.841 -0.0824 -0.0370 -0.1398
  825YOPS   C1B12387   4.075   2.349   6.782 -0.0760  0.0684 -0.0306
  825YOPS   C2B12388   4.073   2.472   7.244  0.2487 -0.1390  0.0274
  825YOPS   D3B12389   3.761   2.483   7.404 -0.0014 -0.1073 -0.1389
  825YOPS   C4B12390   3.830   2.802   7.785 -0.2305 -0.1082 -0.0521
  826YOPS   CNO12391   9.875   9.492   6.289  0.0671  0.3555  0.1781
  826YOPS   PO412392   9.615   9.588   6.522  0.0298 -0.2947  0.1137
  826YOPS   GL112393   9.593   9.880   6.807  0.1840 -0.1961 -0.0470
  826YOPS   GL212394   9.633   9.701   7.011  0.0390 -0.3002 -0.3155
  826YOPS   C1A12395   9.667  10.219   7.068  0.0413  0.0728 -0.1075
  826YOPS   D2A12396   9.603  10.676   7.421 -0.0492  0.1450  0.0128
  826YOPS   C3A12397   9.532  10.529   7.834  0.1161  0.0091  0.1148
  826YOPS   C4A12398   9.067  10.514   7.931  0.0321 -0.1958  0.1465
  826YOPS   C1B12399   9.873   9.869   7.354  0.5488 -0.0305  0.4310
  826YOPS   C2B12400   9.838  10.074   7.686 -0.2813  0.2905 -0.1963
  826YOPS   D3B12401  10.016  10.498   7.774  0.0889  0.1166  0.0562
  826YOPS   C4B12402   9.905  10.574   8.148  0.2461 -0.3490  0.1923
  827YOPS   CNO12403  16.597  14.018   6.298  0.1630 -0.2949 -0.0938
  827YOPS   PO412404  16.391  14.391   6.247  0.1372 -0.0888  0.1488
  827YOPS   GL112405  16.391  14.288   6.713 -0.1537  0.0169  0.4750
  827YOPS   GL212406  16.233  14.614   6.794  0.0497  0.0007 -0.1260
  827YOPS   C1A12407  16.181  14.047   7.042  0.0360 -0.3271  0.1931
  827YOPS   D2A12408  16.160  14.133   7.544 -0.0593  0.0327 -0.1793
  827YOPS   C3A12409  16.139  14.152   7.963 -0.2241 -0.1958 -0.0865
  827YOPS   C4A12410  16.206  13.850   8.294  0.1072  0.1181  0.2111
  827YOPS   C1B12411  16.155  14.587   7.207  0.0160 -0.0241 -0.4470
  827YOPS   C2B12412  16.284  14.635   7.635 -0.0154  0.0759 -0.0473
  827YOPS   D3B12413  16.435  14.502   8.164  0.0184  0.2157  0.0705
  827YOPS   C4B12414  16.550  14.708   8.459 -0.1099 -0.1000  0.2782
  828YOPS   CNO12415   6.853   4.572   6.186  0.3832 -0.3478 -0.3028
  828YOPS   PO412416   6.488   4.260   6.263 -0.0919 -0.0290  0.0440
  828YOPS   GL112417   6.701   4.134   6.586 -0.0605 -0.1006 -0.1631
  828YOPS   GL212418   6.971   4.199   6.730 -0.3047  0.2975 -0.0657
  828YOPS   C1A12419   6.593   4.231   6.988  0.0157  0.0888  0.0618
  828YOPS   D2A12420   6.575   4.378   7.435  0.1228 -0.0203  0.2435
  828YOPS   C3A12421   6.877   4.238   7.789 -0.0203  0.1119 -0.0232
  828YOPS   C4A12422   7.216   4.390   8.053 -0.0311  0.1113 -0.2265
  828YOPS   C1B12423   7.371   4.388   6.924  0.0695  0.0482  0.2269
  828YOPS   C2B12424   7.552   4.449   7.289  0.1744 -0.2330  0.1459
  828YOPS   D3B12425   7.267   4.469   7.596 -0.0545  0.0178  0.1376
  828YOPS   C4B12426   6.905   4.683   7.646  0.1575  0.0103 -0.2536
  829YOPS   CNO12427   6.740   3.822   6.101  0.5431  0.5255  0.0845
  829YOPS   PO412428   6.759   3.429   6.163 -0.3146  0.3322  0.0159
  829YOPS   GL112429   6.549   3.430   6.573 -0.0533 -0.0896  0.0085
  829YOPS   GL212430   6.200   3.352   6.603  0.2879 -0.1770  0.0837
  829YOPS   C1A12431   6.517   3.739   6.839 -0.1282 -0.1315  0.1865
  829YOPS   D2A12432   6.397   3.847   7.210  0.0267 -0.0826  0.0527
  829YOPS   C3A12433   6.244   3.679   7.556 -0.1333  0.1600 -0.1876
  829YOPS   C4A12434   6.400   4.048   7.790  0.0604  0.0368 -0.1351
  829YOPS   C1B12435   6.096   3.548   6.950 -0.1565 -0.1506  0.1282
  829YOPS   C2B12436   6.003   3.266   7.350 -0.1812 -0.1088  0.3041
  829YOPS   D3B12437   6.316   2.948   7.516 -0.1624 -0.1351  0.1873
  829YOPS   C4B12438   6.530   2.624   7.288 -0.0136 -0.0308  0.2773
  830YOPS   CNO12439  11.944  10.487   5.616 -0.0360 -0.1383 -0.2919
  830YOPS   PO412440  11.775  10.642   6.062  0.0904 -0.3164 -0.1826
  830YOPS   GL112441  11.792  10.622   6.543  0.1064 -0.0856 -0.1278
  830YOPS   GL212442  11.442  10.720   6.601  0.3485 -0.0625 -0.0625
  830YOPS   C1A12443  11.919  10.683   6.921 -0.4279  0.0869 -0.0138
  830YOPS   D2A12444  11.937  10.599   7.251 -0.2924  0.2116  0.1971
  830YOPS   C3A12445  11.886  10.562   7.651  0.1906 -0.0993 -0.0263
  830YOPS   C4A12446  11.947  10.395   7.979  0.0767 -0.5633  0.1943
  830YOPS   C1B12447  11.456  10.687   7.113  0.0605 -0.0108  0.3132
  830YOPS   C2B12448  11.637  10.965   7.405  0.0323  0.2503 -0.0732
  830YOPS   D3B12449  11.668  11.135   7.782  0.1031  0.2718 -0.1227
  830YOPS   C4B12450  11.870  10.918   8.096  0.0047 -0.1399 -0.1834
  831POPE   NH312451  13.708   6.022   6.281  0.2656  0.0448  0.0182
  831POPE   PO412452  14.164   6.035   6.190  0.0572  0.0457  0.1880
  831POPE   GL112453  14.454   6.057   6.568  0.0843 -0.0131 -0.0592
  831POPE   GL212454  14.673   6.326   6.690 -0.0105  0.1085 -0.4944
  831POPE   C1A12455  14.350   5.914   6.964 -0.5437 -0.1049 -0.1286
  831POPE   D2A12456  14.247   5.764   7.343  0.1797  0.2830  0.0618
  831POPE   C3A12457  14.140   5.896   7.710  0.0560 -0.1364 -0.4697
  831POPE   C4A12458  13.849   5.989   8.002 -0.2698 -0.5386 -0.3264
  831POPE   C1B12459  14.702   6.180   7.124  0.0046 -0.1291  0.1883
  831POPE   C2B12460  14.628   6.007   7.448 -0.0987 -0.0214 -0.0204
  831POPE   C3B12461  14.791   5.679   7.802  0.0080  0.0077  0.3577
  831POPE   C4B12462  14.886   5.539   8.289  0.1908  0.2505  0.3370
  832POPE   NH312463   6.877   2.198   5.860 -0.0941 -0.0740 -0.2841
  832POPE   PO412464   6.639   1.840   6.015  0.0065 -0.1403 -0.0125
  832POPE   GL112465   6.545   1.746   6.434  0.2474 -0.2412  0.1638
  832POPE   GL212466   6.677   1.427   6.353  0.1182 -0.0947 -0.0963
  832POPE   C1A12467   6.709   1.898   6.759  0.1069 -0.1823 -0.1066
  832POPE   D2A12468   6.726   2.178   7.130  0.0831 -0.2307 -0.0231
  832POPE   C3A12469   6.618   2.153   7.563 -0.0101  0.1898 -0.1441
  832POPE   C4A12470   6.203   2.097   7.762  0.1044  0.3280 -0.1423
  832POPE   C1B12471   6.515   1.447   6.864 -0.0954  0.0993 -0.0124
  832POPE   C2B12472   6.488   1.729   7.236 -0.1949 -0.0345  0.0660
  832POPE   C3B12473   6.508   1.541   7.610  0.0026 -0.3198  0.0140
  832POPE   C4B12474   6.655   1.249   8.002  0.1776 -0.0890  0.1809
  833POPE   NH312475   8.631   3.513   6.211 -0.0962 -0.0212  0.0522
  833POPE   PO412476   8.839   3.868   6.362  0.3550  0.0120 -0.2935
  833POPE   GL112477   8.941   3.820   6.711  0.0429  0.0670 -0.0487
  833POPE   GL212478   8.760   4.084   6.818  0.0034  0.1040  0.3581
  833POPE   C1A12479   9.101   3.844   7.148  0.2275 -0.0482  0.1781
  833POPE   D2A12480   9.256   3.831   7.548 -0.0618  0.1242  0.2938
  833POPE   C3A12481   8.971   3.815   7.925 -0.1504 -0.0203 -0.1783
  833POPE   C4A12482   8.812   3.683   8.353 -0.0075  0.1145  0.1758
  833POPE   C1B12483   8.770   4.221   7.209  0.1655 -0.3213 -0.0224
  833POPE   C2B12484   8.947   4.201   7.625  0.0892 -0.1500  0.3156
  833POPE   C3B12485   8.763   4.255   8.046 -0.0922 -0.0527 -0.0149
  833POPE   C4B12486   9.062   4.144   8.375 -0.0298 -0.1512 -0.0669
  834POPE   NH312487  10.920  14.559   6.107 -0.1953 -0.3859  0.0050
  834POPE   PO412488  11.295  14.845   6.107  0.1494  0.1857  0.2320
  834POPE   GL112489  11.210  15.114   6.419  0.1577 -0.0107  0.4364
  834POPE   GL212490  11.128  14.801   6.638  0.2766  0.2140  0.2600
  834POPE   C1A12491  11.201  15.251   6.998  0.1804 -0.0495 -0.1437
  834POPE   D2A12492  11.273  15.092   7.419 -0.1552  0.1687  0.2865
  834POPE   C3A12493  11.435  15.221   7.818 -0.1081 -0.1434  0.2460
  834POPE   C4A12494  11.414  15.574   8.129 -0.0758 -0.0548  0.1031
  834POPE   C1B12495  11.050  14.716   7.082 -0.1081 -0.1709 -0.3559
  834POPE   C2B12496  11.002  14.649   7.481 -0.1827 -0.0981 -0.2064
  834POPE   C3B12497  10.987  14.848   7.870 -0.1163 -0.1008  0.2143
  834POPE   C4B12498  11.043  15.192   8.173 -0.0849 -0.2265  0.0222
  835POPE   NH312499  12.375   5.050   6.326  0.0217  0.0556  0.1482
  835POPE   PO412500  11.987   4.830   6.179 -0.0729  0.0806  0.0015
  835POPE   GL112501  11.871   4.869   6.586  0.2884  0.2587 -0.0276
  835POPE   GL212502  12.121   4.717   6.817 -0.0532 -0.4007  0.1567
  835POPE   C1A12503  11.720   4.836   7.021 -0.0943 -0.1441  0.1648
  835POPE   D2A12504  11.681   4.991   7.462  0.0234 -0.1983 -0.0628
  835POPE   C3A12505  11.357   4.979   7.731  0.2325  0.0600  0.3286
  835POPE   C4A12506  11.323   5.027   8.233 -0.1537 -0.2689  0.2981
  835POPE   C1B12507  11.995   4.360   6.891  0.1201  0.1226  0.0864
  835POPE   C2B12508  11.631   4.141   7.027  0.0269 -0.0244  0.3206
  835POPE   C3B12509  11.252   3.884   6.982  0.3528  0.0226  0.1033
  835POPE   C4B12510  11.006   3.553   7.289 -0.1810 -0.0226  0.0579
  836POPE   NH312511   7.002   7.975   6.018  0.2171  0.0524 -0.1764
  836POPE   PO412512   6.807   7.624   6.004  0.1931 -0.0878 -0.4180
  836POPE   GL112513   6.704   7.847   6.417 -0.0860  0.2483 -0.1437
  836POPE   GL212514   6.484   8.030   6.411  0.0792  0.0206  0.1723
  836POPE   C1A12515   6.680   7.700   6.816  0.0490  0.3750 -0.0489
  836POPE   D2A12516   6.969   7.789   7.062 -0.1615 -0.3399 -0.0417
  836POPE   C3A12517   6.939   7.631   7.447 -0.0354  0.0656  0.2900
  836POPE   C4A12518   6.914   7.341   7.803 -0.1058  0.1103 -0.0632
  836POPE   C1B12519   6.785   8.206   6.736 -0.0281  0.0672 -0.1076
  836POPE   C2B12520   6.934   8.364   7.194 -0.0897  0.2214  0.0715
  836POPE   C3B12521   7.011   8.462   7.628  0.1781  0.1680 -0.1396
  836POPE   C4B12522   7.201   8.579   8.065  0.1285 -0.0067  0.0769
  837POPE   NH312523   6.314   4.824   6.107 -0.1215  0.0144 -0.1202
  837POPE   PO412524   6.028   4.507   6.305 -0.3232 -0.2250  0.1746
  837POPE   GL112525   5.628   4.295   6.441  0.1907 -0.1153 -0.1473
  837POPE   GL212526   5.704   4.487   6.758 -0.3010 -0.4360 -0.1600
  837POPE   C1A12527   5.214   4.488   6.711  0.0194 -0.2398 -0.1466
  837POPE   D2A12528   4.903   4.603   6.828 -0.0117 -0.2040  0.3413
  837POPE   C3A12529   4.548   4.480   6.722  0.0021  0.0394  0.0111
  837POPE   C4A12530   4.093   4.459   6.616 -0.1545 -0.1093  0.1012
  837POPE   C1B12531   5.723   4.610   7.107 -0.1921 -0.0219 -0.0368
  837POPE   C2B12532   5.591   4.611   7.437 -0.4704  0.1507  0.1082
  837POPE   C3B12533   5.355   4.628   7.636  0.4992 -0.0058 -0.2371
  837POPE   C4B12534   5.346   4.686   8.035 -0.2027  0.2112 -0.0294
  838POPE   NH312535  16.878   2.044   6.192 -0.0530  0.0956 -0.1490
  838POPE   PO412536  16.456   2.099   6.208 -0.1192  0.1181  0.0389
  838POPE   GL112537  16.423   1.878   6.667  0.4054 -0.1859  0.2335
  838POPE   GL212538  16.219   1.722   6.750  0.0353 -0.0169  0.3406
  838POPE   C1A12539  16.489   1.773   7.185  0.0182  0.2730 -0.1134
  838POPE   D2A12540  16.740   1.581   7.481  0.2476  0.0372 -0.0641
  838POPE   C3A12541  16.628   1.375   7.866  0.2491  0.1205  0.1857
  838POPE   C4A12542  16.363   1.021   7.974  0.2600  0.0788 -0.1103
  838POPE   C1B12543  16.038   1.649   7.059  0.0620 -0.0932 -0.2763
  838POPE   C2B12544  15.909   1.679   7.475  0.1880 -0.0615  0.5964
  838POPE   C3B12545  15.562   1.633   7.820  0.1999  0.0875 -0.0298
  838POPE   C4B12546  15.317   1.335   8.031  0.1711  0.0737 -0.1154
  839POPE   NH312547  10.896  12.025   5.829  0.0794 -0.1610  0.1280
  839POPE   PO412548  10.690  11.565   5.689  0.1320  0.0973  0.2634
  839POPE   GL112549  10.524  11.585   6.053  0.3406 -0.1401  0.1235
  839POPE   GL212550  10.644  11.901   6.210 -0.0030  0.2063 -0.0329
  839POPE   C1A12551  10.355  11.646   6.502 -0.1882  0.1776 -0.0191
  839POPE   D2A12552  10.282  11.701   6.963  0.1797  0.1698  0.0279
  839POPE   C3A12553  10.465  11.409   7.359  0.3700  0.2507 -0.2418
  839POPE   C4A12554  10.667  11.156   7.647  0.0581 -0.0117  0.2393
  839POPE   C1B12555  10.757  11.883   6.663 -0.1441  0.0404 -0.0255
  839POPE   C2B12556  10.708  11.942   7.158 -0.0141 -0.0157  0.1048
  839POPE   C3B12557  10.433  11.886   7.473  0.0503 -0.2582  0.0046
  839POPE   C4B12558  10.403  11.924   7.840 -0.0892  0.2274  0.1031
  840POPE   NH312559   5.401  14.469   6.110  0.1623  0.0485  0.2879
  840POPE   PO412560   5.032  14.173   6.041  0.0589  0.4244 -0.0670
  840POPE   GL112561   5.065  14.362   6.530  0.0301  0.1774 -0.0492
  840POPE   GL212562   4.696  14.531   6.527 -0.0243 -0.0066  0.0944
  840POPE   C1A12563   5.176  14.370   7.038 -0.0762  0.1648  0.0577
  840POPE   D2A12564   5.274  14.688   7.299  0.1540  0.0488 -0.0358
  840POPE   C3A12565   5.578  14.680   7.488  0.0349 -0.2121 -0.1258
  840POPE   C4A12566   5.707  14.657   7.899  0.0453 -0.2693 -0.1201
  840POPE   C1B12567   4.543  14.203   6.646  0.4289 -0.2170 -0.3363
  840POPE   C2B12568   4.583  14.020   7.068 -0.5738 -0.2794  0.2662
  840POPE   C3B12569   4.648  13.716   7.378 -0.1186 -0.2061 -0.0951
  840POPE   C4B12570   4.748  13.536   7.731  0.1690  0.1317 -0.1031
  841POPE   NH312571   9.165  13.376   5.928  0.2084 -0.0699 -0.1452
  841POPE   PO412572   9.648  13.641   6.132 -0.1083  0.3457 -0.2996
  841POPE   GL112573   9.596  13.204   6.269  0.1892  0.2179 -0.0615
  841POPE   GL212574   9.848  13.227   6.484 -0.0646  0.0147 -0.0828
  841POPE   C1A12575   9.631  12.779   6.387 -0.3677 -0.0819 -0.1470
  841POPE   D2A12576   9.280  12.497   6.502  0.0635 -0.1181  0.1066
  841POPE   C3A12577   9.224  12.555   6.956  0.0202 -0.2488 -0.3039
  841POPE   C4A12578   9.237  12.780   7.342 -0.0203 -0.2095 -0.0476
  841POPE   C1B12579  10.101  12.894   6.618  0.0873  0.0112  0.0344
  841POPE   C2B12580  10.277  12.765   7.081 -0.1727 -0.0088  0.1526
  841POPE   C3B12581  10.406  12.605   7.530  0.0245  0.5518  0.0967
  841POPE   C4B12582  10.051  12.248   7.647  0.1487  0.1321 -0.1780
  842POPE   NH312583   4.428   1.685   5.258 -0.0337  0.0440  0.1559
  842POPE   PO412584   4.158   1.912   5.572  0.0916  0.2070 -0.0958
  842POPE   GL112585   4.150   2.058   6.028  0.0722 -0.1347  0.1505
  842POPE   GL212586   4.445   2.346   6.239 -0.1775  0.1970  0.2968
  842POPE   C1A12587   4.148   1.968   6.484  0.0351  0.3560  0.3746
  842POPE   D2A12588   3.897   1.799   6.745 -0.0748 -0.0008  0.0042
  842POPE   C3A12589   3.746   1.717   7.109  0.0019 -0.0558  0.0358
  842POPE   C4A12590   3.776   2.003   7.358  0.1826  0.2278 -0.1314
  842POPE   C1B12591   4.632   2.270   6.651 -0.1782  0.0848  0.0351
  842POPE   C2B12592   4.798   2.046   7.116  0.0154 -0.2891  0.0267
  842POPE   C3B12593   4.943   2.009   7.523 -0.0484 -0.3522  0.2061
  842POPE   C4B12594   4.896   2.457   7.780 -0.1406 -0.3515  0.0403
  843POPE   NH312595  10.682  10.109   6.240 -0.3245  0.0919  0.2080
  843POPE   PO412596  10.312   9.875   6.288  0.0452 -0.3590 -0.0215
  843POPE   GL112597  10.125   9.765   6.707 -0.2982 -0.1014  0.1514
  843POPE   GL212598  10.031   9.440   6.834 -0.1075 -0.3043 -0.1149
  843POPE   C1A12599  10.320   9.683   7.178 -0.0699 -0.0029  0.0695
  843POPE   D2A12600  10.499   9.358   7.460  0.1244  0.0491  0.0908
  843POPE   C3A12601  10.530   9.309   7.919  0.1654  0.0687 -0.0426
  843POPE   C4A12602  10.857   9.209   8.330  0.0797 -0.0077  0.1386
  843POPE   C1B12603   9.996   9.398   7.371  0.0842  0.1820  0.1831
  843POPE   C2B12604   9.886   9.531   7.698  0.1623  0.0981 -0.0348
  843POPE   C3B12605  10.129   9.624   8.084  0.3566  0.3721  0.3847
  843POPE   C4B12606  10.355   9.449   8.374 -0.1301  0.2119  0.2066
  844POPE   NH312607  12.690   4.240   6.342 -0.1207  0.0255 -0.2563
  844POPE   PO412608  12.609   4.666   6.050  0.3737 -0.1137 -0.0684
  844POPE   GL112609  12.751   4.722   6.492  0.0116 -0.1599  0.2929
  844POPE   GL212610  13.053   4.747   6.602 -0.2782  0.3465 -0.2055
  844POPE   C1A12611  12.666   4.952   6.908  0.1500 -0.2174  0.2300
  844POPE   D2A12612  12.680   4.938   7.332  0.0706 -0.5006 -0.0245
  844POPE   C3A12613  12.454   4.674   7.453 -0.3458  0.0970 -0.0787
  844POPE   C4A12614  12.051   4.519   7.354 -0.0263 -0.0288  0.1323
  844POPE   C1B12615  12.965   4.613   7.069 -0.1253  0.0985 -0.1750
  844POPE   C2B12616  12.972   4.591   7.412 -0.0187 -0.2524 -0.2272
  844POPE   C3B12617  13.020   4.334   7.753  0.0361 -0.2737  0.0913
  844POPE   C4B12618  13.000   3.912   7.732  0.2690 -0.1848  0.0553
  845POPE   NH312619  14.861  10.359   5.855 -0.2989  0.0874  0.0317
  845POPE   PO412620  15.250  10.621   6.000  0.2147 -0.0731  0.0153
  845POPE   GL112621  15.268  10.722   6.464  0.0264  0.0323  0.1040
  845POPE   GL212622  15.385  10.490   6.701  0.1035 -0.1312 -0.0859
  845POPE   C1A12623  15.309  10.990   6.816 -0.1423 -0.0242  0.0414
  845POPE   D2A12624  15.310  11.167   7.244 -0.0650  0.1055 -0.0337
  845POPE   C3A12625  15.158  11.517   7.254  0.0971 -0.1504  0.1656
  845POPE   C4A12626  15.041  11.841   7.445  0.2848 -0.0763  0.1114
  845POPE   C1B12627  15.378  10.205   7.045  0.0332 -0.3355  0.2682
  845POPE   C2B12628  15.211  10.226   7.585 -0.2977  0.2438 -0.1491
  845POPE   C3B12629  14.833  10.112   7.834  0.2032 -0.3517  0.1279
  845POPE   C4B12630  14.729   9.924   8.210 -0.0912  0.0883  0.0046
  846POPE   NH312631  10.631  13.656   6.259 -0.1999  0.3250 -0.1457
  846POPE   PO412632  10.191  13.582   6.269  0.0789 -0.0815 -0.1096
  846POPE   GL112633  10.384  13.701   6.662 -0.3868  0.3031 -0.2827
  846POPE   GL212634  10.615  13.579   6.775  0.1541  0.1638 -0.0877
  846POPE   C1A12635  10.328  13.676   7.126 -0.0373 -0.3713  0.2588
  846POPE   D2A12636  10.303  13.580   7.637  0.1948 -0.1467  0.1480
  846POPE   C3A12637  10.180  13.709   7.903  0.2394  0.0631 -0.0684
  846POPE   C4A12638  10.370  13.863   8.242  0.1100  0.2295 -0.1115
  846POPE   C1B12639  10.414  13.234   6.945  0.0174 -0.0062 -0.2282
  846POPE   C2B12640  10.181  13.185   7.283 -0.1507  0.3210  0.2280
  846POPE   C3B12641   9.932  12.801   7.575 -0.1626 -0.2809 -0.3793
  846POPE   C4B12642   9.554  12.882   7.754  0.1394  0.2766 -0.0005
  847POPE   NH312643   7.062  16.714   6.108  0.0839  0.1266 -0.2200
  847POPE   PO412644   7.397  16.832   5.851  0.1008 -0.0095  0.0816
  847POPE   GL112645   7.515  16.800   6.291 -0.1279 -0.0766 -0.0441
  847POPE   GL212646   7.844  16.888   6.483 -0.1097 -0.1435  0.1762
  847POPE   C1A12647   7.548  16.568   6.683 -0.0731 -0.0254 -0.3600
  847POPE   D2A12648   7.693  16.466   7.066  0.2507 -0.2690  0.1390
  847POPE   C3A12649   7.561  16.435   7.510  0.1396 -0.2378  0.1517
  847POPE   C4A12650   7.394  16.499   7.866  0.0872  0.0013 -0.0656
  847POPE   C1B12651   8.004  16.798   6.910  0.2909 -0.1757 -0.2396
  847POPE   C2B12652   7.935  16.779   7.316 -0.1270  0.0519 -0.1719
  847POPE   C3B12653   7.855  16.879   7.730 -0.2488 -0.0895 -0.3119
  847POPE   C4B12654   7.824  17.238   8.100  0.0105  0.4628 -0.2152
  848POPE   NH312655  10.250   7.592   6.332 -0.0932 -0.0262 -0.2474
  848POPE   PO412656  10.221   8.052   6.252  0.2433  0.2249 -0.0287
  848POPE   GL112657  10.459   8.041   6.595 -0.0733 -0.0527 -0.0788
  848POPE   GL212658  10.625   7.748   6.673  0.0046 -0.0396 -0.1567
  848POPE   C1A12659  10.626   8.180   7.035 -0.2245 -0.1101  0.0319
  848POPE   D2A12660  10.338   8.443   7.236  0.0502 -0.1935  0.1179
  848POPE   C3A12661  10.352   8.392   7.662  0.0466  0.0601 -0.1920
  848POPE   C4A12662  10.087   8.178   7.964  0.1573 -0.2180  0.0203
  848POPE   C1B12663  10.835   7.716   7.025 -0.0306  0.0520 -0.1120
  848POPE   C2B12664  10.962   7.446   7.479  0.0629 -0.3241  0.2951
  848POPE   C3B12665  11.089   7.382   7.871  0.1828  0.1008  0.1184
  848POPE   C4B12666  11.189   7.332   8.316  0.2012  0.2137  0.0884
  849POPE   NH312667  16.036   7.225   6.016 -0.1280 -0.0091  0.2209
  849POPE   PO412668  15.628   7.183   6.021 -0.1629  0.1253  0.1319
  849POPE   GL112669  15.619   7.333   6.483 -0.1608  0.2266  0.5171
  849POPE   GL212670  15.488   7.533   6.597 -0.0866 -0.0436  0.1482
  849POPE   C1A12671  15.945   7.498   6.803  0.0114  0.6304  0.3185
  849POPE   D2A12672  15.904   7.690   7.265  0.1064  0.1789 -0.0608
  849POPE   C3A12673  15.858   7.625   7.719  0.1056 -0.1290  0.0005
  849POPE   C4A12674  15.565   7.439   7.942 -0.1353 -0.0184  0.0189
  849POPE   C1B12675  15.476   7.570   7.033 -0.1513 -0.0284  0.4074
  849POPE   C2B12676  15.368   7.556   7.395 -0.2168 -0.0680 -0.1253
  849POPE   C3B12677  15.255   7.760   7.832 -0.2930  0.0327  0.0990
  849POPE   C4B12678  14.941   7.945   8.112  0.1523 -0.0992  0.0945
  850POPE   NH312679  10.211  15.101   6.134 -0.0145  0.3503  0.0405
  850POPE   PO412680   9.860  14.933   6.114  0.1520  0.1172 -0.1520
  850POPE   GL112681   9.910  14.806   6.542  0.0593 -0.4081 -0.3769
  850POPE   GL212682  10.100  15.012   6.601 -0.1492 -0.3603 -0.0296
  850POPE   C1A12683  10.039  14.662   7.035 -0.0465  0.2107 -0.2778
  850POPE   D2A12684  10.030  14.467   7.502  0.1432 -0.2238  0.0571
  850POPE   C3A12685   9.841  14.298   7.870  0.1096 -0.2136 -0.2893
  850POPE   C4A12686   9.409  14.181   7.937  0.0023  0.3259 -0.0454
  850POPE   C1B12687  10.212  15.119   6.914  0.2434 -0.1594 -0.1023
  850POPE   C2B12688  10.212  15.485   7.133  0.2763 -0.3089 -0.1625
  850POPE   C3B12689  10.452  15.834   7.350  0.0635 -0.1152 -0.2691
  850POPE   C4B12690  10.600  15.825   7.727  0.1838 -0.0841 -0.0282
  851POPE   NH312691  11.504  13.876   6.298 -0.2002 -0.0813 -0.0517
  851POPE   PO412692  11.058  13.978   6.193 -0.3839  0.0111 -0.0479
  851POPE   GL112693  11.189  13.801   6.627 -0.0014 -0.0722  0.0229
  851POPE   GL212694  11.395  13.477   6.622  0.2427 -0.2742  0.1036
  851POPE   C1A12695  11.032  13.801   7.164  0.1771  0.0216  0.0478
  851POPE   D2A12696  10.982  13.790   7.589  0.1414  0.1296  0.1076
  851POPE   C3A12697  10.714  13.718   7.874 -0.2097  0.0231  0.1213
  851POPE   C4A12698  10.480  13.378   8.054  0.1887  0.1892 -0.3827
  851POPE   C1B12699  11.412  13.475   7.138  0.0283 -0.1634  0.3424
  851POPE   C2B12700  11.531  13.737   7.465  0.1957 -0.2258  0.0301
  851POPE   C3B12701  11.430  13.747   7.925 -0.1303 -0.1261  0.0828
  851POPE   C4B12702  11.108  13.879   8.174 -0.1967  0.2141 -0.0785
  852POPE   NH312703  12.551  17.589   6.511 -0.0056  0.0175  0.1350
  852POPE   PO412704  12.841  17.146   6.534 -0.0396  0.0189 -0.0615
  852POPE   GL112705  13.126  17.156   6.849 -0.0534  0.0169 -0.0481
  852POPE   GL212706  13.033  16.801   7.071  0.3160 -0.0670 -0.2277
  852POPE   C1A12707  13.245  17.285   7.195  0.0886 -0.1818  0.0922
  852POPE   D2A12708  13.076  17.423   7.630 -0.0990 -0.2512  0.0522
  852POPE   C3A12709  13.169  17.238   8.076  0.0955  0.2602  0.0679
  852POPE   C4A12710  13.473  17.148   8.417  0.0614  0.1543 -0.2500
  852POPE   C1B12711  12.783  17.056   7.382 -0.0395 -0.0431  0.1416
  852POPE   C2B12712  12.705  17.203   7.859 -0.1157 -0.1815 -0.2305
  852POPE   C3B12713  12.607  17.351   8.188  0.0620  0.0043 -0.2474
  852POPE   C4B12714  12.290  17.462   8.591  0.0352  0.0810 -0.0273
  853POPE   NH312715  15.631  16.298   6.371 -0.2313  0.1565 -0.1048
  853POPE   PO412716  15.268  16.321   6.290 -0.2017 -0.0193 -0.2026
  853POPE   GL112717  15.223  16.340   6.692  0.0752  0.0447 -0.0803
  853POPE   GL212718  15.383  16.139   6.797  0.2227  0.2323  0.1441
  853POPE   C1A12719  15.003  16.362   7.032 -0.0004  0.1526 -0.0780
  853POPE   D2A12720  15.070  16.224   7.357  0.2512  0.0924  0.2291
  853POPE   C3A12721  15.390  16.349   7.531  0.0466 -0.2306  0.3838
  853POPE   C4A12722  15.791  16.545   7.460 -0.0031  0.1042 -0.0595
  853POPE   C1B12723  15.655  16.030   7.099  0.0962  0.1466  0.1356
  853POPE   C2B12724  15.847  16.003   7.536  0.1932 -0.1019 -0.0161
  853POPE   C3B12725  15.802  16.251   7.875 -0.2305  0.1321  0.0765
  853POPE   C4B12726  15.577  16.621   8.012 -0.1530  0.1178  0.0072
  854POPE   NH312727   2.753  16.730   5.948 -0.0966  0.4583 -0.2279
  854POPE   PO412728   2.420  16.390   6.001 -0.5476  0.1989  0.2892
  854POPE   GL112729   2.691  16.387   6.377  0.0577  0.0077  0.1469
  854POPE   GL212730   2.439  16.640   6.459  0.1587 -0.1303  0.1638
  854POPE   C1A12731   2.754  16.391   6.797 -0.0883 -0.0344  0.2191
  854POPE   D2A12732   2.620  16.567   7.081 -0.2308 -0.0199 -0.1616
  854POPE   C3A12733   2.724  16.419   7.524 -0.1791  0.0710 -0.0150
  854POPE   C4A12734   3.122  16.430   7.756 -0.0660 -0.0130 -0.1433
  854POPE   C1B12735   2.142  16.636   6.788  0.0315  0.1574  0.1260
  854POPE   C2B12736   1.937  16.624   7.160  0.0048 -0.2348 -0.1583
  854POPE   C3B12737   1.762  16.778   7.534 -0.0071  0.0340 -0.1088
  854POPE   C4B12738   1.696  17.047   7.846  0.1112  0.1423  0.1390
  855POPE   NH312739   9.444  14.639   6.303  0.2295 -0.1218  0.1238
  855POPE   PO412740   9.289  15.097   6.203  0.0665 -0.1285  0.0213
  855POPE   GL112741   9.428  15.147   6.542  0.0380  0.1447  0.0879
  855POPE   GL212742   9.724  15.359   6.470 -0.1263  0.0371 -0.0252
  855POPE   C1A12743   9.646  15.037   6.908  0.1092 -0.0345 -0.4419
  855POPE   D2A12744   9.735  14.951   7.333  0.1487 -0.0144  0.1585
  855POPE   C3A12745  10.126  15.028   7.416  0.2758  0.0683 -0.0818
  855POPE   C4A12746  10.215  15.536   7.648 -0.3504  0.1587  0.0413
  855POPE   C1B12747   9.776  15.618   6.848 -0.0682  0.0796  0.2329
  855POPE   C2B12748   9.732  15.422   7.341 -0.0998 -0.1000 -0.1567
  855POPE   C3B12749   9.798  15.259   7.796  0.2440 -0.0730  0.1869
  855POPE   C4B12750  10.121  15.243   8.127 -0.0903  0.0294  0.0205
  856POPE   NH312751  15.945   9.539   6.018 -0.1985 -0.0041  0.1400
  856POPE   PO412752  15.601   9.304   6.035  0.1032 -0.0065 -0.0512
  856POPE   GL112753  15.589   9.168   6.408 -0.0770  0.0617 -0.2625
  856POPE   GL212754  15.626   9.390   6.613  0.2066  0.1659 -0.0277
  856POPE   C1A12755  15.261   9.044   6.794  0.1645 -0.2264 -0.0703
  856POPE   D2A12756  15.382   9.061   7.141 -0.0889 -0.2572 -0.5680
  856POPE   C3A12757  15.266   8.992   7.508 -0.0584  0.0258 -0.0428
  856POPE   C4A12758  15.376   8.757   7.996  0.0417 -0.5090 -0.0449
  856POPE   C1B12759  15.526   9.561   7.088 -0.0897  0.1681 -0.0038
  856POPE   C2B12760  15.480   9.810   7.489 -0.2294  0.0175 -0.5421
  856POPE   C3B12761  15.225   9.744   7.815 -0.0325  0.0116 -0.0072
  856POPE   C4B12762  15.183   9.674   8.190  0.2675 -0.1887 -0.0674
  857POPE   NH312763   1.097   7.198   6.419  0.0535 -0.0540  0.0643
  857POPE   PO412764   1.513   7.296   6.470 -0.2646 -0.2128  0.0761
  857POPE   GL112765   1.349   7.361   6.841  0.1233  0.0030  0.3872
  857POPE   GL212766   1.083   7.485   6.827  0.1508 -0.1855 -0.0451
  857POPE   C1A12767   1.484   7.401   7.252  0.2338  0.2031 -0.0462
  857POPE   D2A12768   1.405   7.659   7.500  0.2673 -0.2323 -0.2026
  857POPE   C3A12769   1.403   7.716   7.941 -0.2206  0.2514  0.2142
  857POPE   C4A12770   1.384   7.613   8.359 -0.1819  0.0022  0.1768
  857POPE   C1B12771   0.993   7.242   7.155 -0.1056 -0.1281  0.0996
  857POPE   C2B12772   1.067   7.168   7.618 -0.3879 -0.0582  0.1468
  857POPE   C3B12773   0.978   7.219   8.059  0.2458  0.0818 -0.0082
  857POPE   C4B12774   1.317   7.121   8.195  0.1037  0.3606 -0.0675
  858POPE   NH312775  13.545  12.380   6.338 -0.4144  0.3800 -0.2791
  858POPE   PO412776  13.725  12.084   6.052 -0.0066  0.0207  0.0616
  858POPE   GL112777  13.921  12.098   6.433 -0.1251  0.3251  0.0501
  858POPE   GL212778  14.080  12.391   6.487 -0.1260 -0.2374  0.1611
  858POPE   C1A12779  14.220  11.928   6.608  0.1510  0.1532  0.1105
  858POPE   D2A12780  14.090  11.679   6.882  0.3060  0.2473 -0.1284
  858POPE   C3A12781  14.082  11.539   7.322 -0.1660 -0.2409  0.0403
  858POPE   C4A12782  14.056  11.278   7.679 -0.2072 -0.0364 -0.1091
  858POPE   C1B12783  13.987  12.238   6.953 -0.1185 -0.0048  0.0989
  858POPE   C2B12784  14.176  12.059   7.266 -0.0215  0.0027  0.1462
  858POPE   C3B12785  14.290  12.143   7.703  0.0841 -0.3233 -0.1783
  858POPE   C4B12786  14.153  12.571   7.919  0.0819 -0.0908  0.0667
  859YOPE   NH312787  15.177  15.877   6.405  0.1336  0.2566 -0.1353
  859YOPE   PO412788  14.882  16.038   6.509  0.1895 -0.1201 -0.1102
  859YOPE   GL112789  14.667  15.951   6.884  0.0462 -0.3619 -0.1349
  859YOPE   GL212790  14.442  16.270   6.966 -0.1780 -0.0013  0.1088
  859YOPE   C1A12791  14.544  15.760   7.290 -0.0712  0.0098  0.3122
  859YOPE   D2A12792  14.653  15.955   7.674 -0.0133  0.2326 -0.0911
  859YOPE   C3A12793  14.955  16.132   7.875  0.2029 -0.1099 -0.0116
  859YOPE   C4A12794  15.294  16.212   8.181  0.0234 -0.1850  0.0019
  859YOPE   C1B12795  14.580  16.316   7.366 -0.1384 -0.2346 -0.1369
  859YOPE   C2B12796  14.570  16.422   7.773 -0.1103 -0.0809  0.1219
  859YOPE   D3B12797  14.730  16.576   8.191 -0.0988 -0.0660  0.0694
  859YOPE   C4B12798  14.766  17.075   8.305 -0.1865  0.2823 -0.2611
  860YOPE   NH312799  17.489  15.970   6.201  0.1423  0.3087  0.0319
  860YOPE   PO412800  17.171  15.669   6.163 -0.1195  0.1601 -0.3423
  860YOPE   GL112801  17.387  15.567   6.492 -0.0482  0.2523 -0.0421
  860YOPE   GL212802  17.281  15.858   6.674  0.1397 -0.0648  0.1039
  860YOPE   C1A12803  17.650  15.537   6.847 -0.0245  0.0056 -0.0003
  860YOPE   D2A12804  17.953  15.337   7.172  0.0924 -0.0152 -0.1223
  860YOPE   C3A12805  18.081  15.328   7.547 -0.1909 -0.1632 -0.0725
  860YOPE   C4A12806  18.187  15.382   7.915  0.1919  0.1696  0.0338
  860YOPE   C1B12807  17.119  15.878   7.060 -0.2734  0.1679 -0.2641
  860YOPE   C2B12808  16.821  16.077   7.193  0.3731  0.1499 -0.1512
  860YOPE   D3B12809  16.678  15.927   7.625  0.2927  0.2220  0.1831
  860YOPE   C4B12810  16.544  15.905   8.007 -0.0487 -0.0855  0.1031
  861YOPE   NH312811  11.820  11.096   6.277 -0.3046 -0.2280  0.0107
  861YOPE   PO412812  11.980  11.407   6.436 -0.1860 -0.2082 -0.1734
  861YOPE   GL112813  12.164  11.537   6.771 -0.0226  0.0855 -0.2991
  861YOPE   GL212814  12.528  11.638   6.810  0.0157 -0.0794 -0.2736
  861YOPE   C1A12815  12.291  11.550   7.252 -0.2698 -0.0256 -0.0482
  861YOPE   D2A12816  12.333  11.599   7.635 -0.0512 -0.0506  0.2423
  861YOPE   C3A12817  12.597  11.377   7.757 -0.0429 -0.1820  0.0964
  861YOPE   C4A12818  12.735  10.988   7.676  0.0102 -0.0483  0.0436
  861YOPE   C1B12819  12.824  11.436   7.099 -0.0235 -0.1990 -0.0996
  861YOPE   C2B12820  12.977  11.366   7.449  0.1161  0.0900  0.1607
  861YOPE   D3B12821  13.126  11.239   7.817 -0.2689  0.1963  0.1671
  861YOPE   C4B12822  12.874  11.177   8.198 -0.0495  0.0355  0.1087
  862YOPE   NH312823  12.462   3.607   6.348  0.1242  0.0933 -0.0344
  862YOPE   PO412824  12.762   3.249   6.146 -0.3388  0.0535 -0.0371
  862YOPE   GL112825  12.510   3.148   6.504 -0.0795  0.0555 -0.1798
  862YOPE   GL212826  12.736   3.291   6.727 -0.0244  0.2072  0.0022
  862YOPE   C1A12827  12.402   2.729   6.609  0.0153 -0.0347 -0.0940
  862YOPE   D2A12828  12.251   2.375   6.760 -0.1050 -0.1395  0.1441
  862YOPE   C3A12829  12.173   2.204   7.125  0.3964  0.0249  0.1818
  862YOPE   C4A12830  12.261   1.833   7.457  0.0856 -0.0115  0.1718
  862YOPE   C1B12831  12.891   3.127   7.062 -0.2562 -0.1127 -0.0501
  862YOPE   C2B12832  12.768   3.245   7.535  0.1009  0.4132 -0.2350
  862YOPE   D3B12833  12.634   3.558   7.820 -0.1242  0.2120  0.0490
  862YOPE   C4B12834  12.854   3.675   8.173  0.0796  0.0952 -0.1420
  863YOPE   NH312835   4.979   3.204   5.711 -0.1199 -0.2867  0.1204
  863YOPE   PO412836   4.929   3.356   6.149  0.1594  0.1740  0.2592
  863YOPE   GL112837   4.887   3.101   6.469 -0.0109  0.2060  0.2263
  863YOPE   GL212838   5.158   3.077   6.784 -0.1387  0.0173  0.3302
  863YOPE   C1A12839   4.645   3.104   6.832 -0.2268 -0.0742  0.0654
  863YOPE   D2A12840   4.439   3.093   7.142 -0.0337  0.2283  0.1505
  863YOPE   C3A12841   4.647   2.933   7.451  0.0696 -0.2142 -0.1229
  863YOPE   C4A12842   4.779   2.933   7.850  0.1917  0.0629  0.0766
  863YOPE   C1B12843   5.066   3.219   7.163 -0.0261  0.2030  0.1740
  863YOPE   C2B12844   5.127   3.168   7.559  0.1971  0.0420 -0.0879
  863YOPE   D3B12845   5.461   3.098   7.990 -0.1776  0.0332 -0.0057
  863YOPE   C4B12846   5.532   2.888   8.331  0.0225 -0.1388 -0.2907
  864YOPE   NH312847   7.415   7.102   5.888 -0.1432  0.2272 -0.2278
  864YOPE   PO412848   7.659   6.749   6.061  0.0376  0.2221  0.0742
  864YOPE   GL112849   7.415   6.480   6.449 -0.0374  0.0044 -0.2372
  864YOPE   GL212850   7.493   6.164   6.544 -0.0918 -0.0562  0.2520
  864YOPE   C1A12851   7.100   6.450   6.741  0.0032 -0.0061  0.0119
  864YOPE   D2A12852   6.984   6.632   7.208  0.0332  0.0747  0.1777
  864YOPE   C3A12853   7.201   6.529   7.535  0.0890  0.3451 -0.1810
  864YOPE   C4A12854   6.888   6.613   7.797  0.2276  0.1071 -0.1700
  864YOPE   C1B12855   7.355   6.086   6.964  0.4624 -0.2752  0.4589
  864YOPE   C2B12856   7.184   6.043   7.277 -0.0348  0.3714  0.0945
  864YOPE   D3B12857   7.308   6.077   7.636 -0.2418  0.2681 -0.0004
  864YOPE   C4B12858   7.586   6.418   7.860  0.3497  0.0696 -0.1052
  865YOPE   NH312859  16.568  11.079   5.976 -0.0275  0.0053 -0.2094
  865YOPE   PO412860  16.217  11.120   6.145  0.2872  0.0056 -0.4667
  865YOPE   GL112861  16.002  11.167   6.535 -0.0501  0.2085  0.1489
  865YOPE   GL212862  15.800  11.021   6.760  0.1814 -0.1499  0.2011
  865YOPE   C1A12863  16.169  11.371   6.841 -0.3438  0.1676  0.0169
  865YOPE   D2A12864  16.175  11.515   7.257 -0.0659  0.1221 -0.1200
  865YOPE   C3A12865  16.366  11.353   7.664 -0.0402  0.2102 -0.0502
  865YOPE   C4A12866  16.474  11.283   8.136 -0.2719  0.0112  0.0233
  865YOPE   C1B12867  15.834  11.052   7.077 -0.3069  0.0504 -0.1836
  865YOPE   C2B12868  15.937  11.107   7.471 -0.2500 -0.0535  0.0349
  865YOPE   D3B12869  15.897  11.220   7.941 -0.2576  0.0939  0.0277
  865YOPE   C4B12870  15.502  11.172   8.210 -0.0774  0.1830 -0.0639
  866YOPE   NH312871  17.102   9.657   6.318  0.0047 -0.0858 -0.3300
  866YOPE   PO412872  16.985   9.324   6.263 -0.2196  0.0033 -0.2062
  866YOPE   GL112873  17.336   9.279   6.549  0.1426  0.0250 -0.2894
  866YOPE   GL212874  17.179   9.535   6.817 -0.2860  0.2065  0.1028
  866YOPE   C1A12875  17.571   9.152   6.906 -0.1088  0.0384  0.0869
  866YOPE   D2A12876  18.004   9.052   7.273  0.0618  0.0970 -0.1808
  866YOPE   C3A12877  18.072   9.029   7.712 -0.3244  0.0290 -0.1988
  866YOPE   C4A12878  17.781   8.853   8.042 -0.1255  0.0212  0.0779
  866YOPE   C1B12879  17.356   9.728   7.174  0.1611 -0.1535  0.3400
  866YOPE   C2B12880  17.226   9.636   7.559  0.0920 -0.1368  0.0052
  866YOPE   D3B12881  16.966   9.657   7.921  0.1991 -0.3042 -0.0171
  866YOPE   C4B12882  17.044   9.629   8.305  0.2698 -0.0553  0.0384
  867YOPE   NH312883  17.222  17.668   6.543 -0.3643  0.1167 -0.2500
  867YOPE   PO412884  16.643  17.761   6.463  0.1319 -0.0253 -0.0224
  867YOPE   GL112885  16.406  17.510   6.737  0.3609 -0.2231 -0.0444
  867YOPE   GL212886  16.219  17.128   6.615 -0.1888  0.1456  0.3049
  867YOPE   C1A12887  16.202  17.474   7.142 -0.0966 -0.0230  0.3050
  867YOPE   D2A12888  16.004  17.565   7.444  0.0456  0.0513 -0.0421
  867YOPE   C3A12889  16.062  17.712   7.802 -0.0060  0.1146 -0.1567
  867YOPE   C4A12890  16.138  18.020   8.088 -0.4762 -0.0030 -0.1517
  867YOPE   C1B12891  15.998  17.003   7.015 -0.1170 -0.0073  0.3070
  867YOPE   C2B12892  15.886  16.999   7.479 -0.3916 -0.2974 -0.1871
  867YOPE   D3B12893  15.886  17.109   7.942 -0.0943  0.0846  0.1754
  867YOPE   C4B12894  16.095  17.382   8.283  0.1997  0.0126  0.1072
  868YOPE   NH312895  13.658   5.229   6.467 -0.0948  0.0546 -0.1336
  868YOPE   PO412896  13.370   5.646   6.420 -0.3870 -0.1855 -0.0115
  868YOPE   GL112897  13.533   5.751   6.727 -0.0392  0.2896 -0.0556
  868YOPE   GL212898  13.499   6.122   6.746  0.1851  0.1288 -0.1944
  868YOPE   C1A12899  13.366   5.793   7.114  0.2757 -0.2884 -0.0578
  868YOPE   D2A12900  13.228   5.772   7.554  0.2145  0.1168  0.1155
  868YOPE   C3A12901  13.432   5.734   7.888 -0.2732  0.1417 -0.0777
  868YOPE   C4A12902  13.383   5.598   8.303 -0.2227  0.1539  0.1404
  868YOPE   C1B12903  13.537   6.308   7.129 -0.1674 -0.2191  0.2474
  868YOPE   C2B12904  13.807   6.694   7.227  0.0813  0.2037 -0.0400
  868YOPE   D3B12905  13.783   7.014   7.519 -0.4459  0.2433  0.1086
  868YOPE   C4B12906  13.598   7.365   7.547 -0.3103  0.1796 -0.0557
  869YOPE   NH312907   7.839  14.582   6.268 -0.0138 -0.0375  0.0268
  869YOPE   PO412908   7.761  15.045   6.341  0.1251 -0.1349  0.1248
  869YOPE   GL112909   7.568  14.937   6.695  0.2522 -0.2613  0.1394
  869YOPE   GL212910   7.458  14.579   6.844  0.0308  0.0995  0.2498
  869YOPE   C1A12911   7.223  15.151   6.868 -0.0926  0.2451  0.0460
  869YOPE   D2A12912   6.990  14.828   7.121  0.0843  0.0635 -0.0170
  869YOPE   C3A12913   6.747  14.995   7.485  0.0500  0.0393  0.0316
  869YOPE   C4A12914   6.743  15.275   7.744  0.1350 -0.1124 -0.2069
  869YOPE   C1B12915   7.526  14.692   7.217  0.0154 -0.3764  0.1584
  869YOPE   C2B12916   7.731  14.685   7.633 -0.0182 -0.1569  0.2211
  869YOPE   D3B12917   7.736  14.586   8.061  0.2390 -0.1424 -0.0402
  869YOPE   C4B12918   7.695  14.666   8.460 -0.0577  0.1681 -0.1920
  870YOPE   NH312919   3.608  12.248   6.027 -0.1695  0.0292 -0.0186
  870YOPE   PO412920   3.751  12.656   6.001  0.0547 -0.3228 -0.0775
  870YOPE   GL112921   4.043  12.588   6.420 -0.0341 -0.1781 -0.2816
  870YOPE   GL212922   4.456  12.481   6.394 -0.2708 -0.0123  0.0013
  870YOPE   C1A12923   4.080  12.702   6.840  0.0103  0.2152  0.0490
  870YOPE   D2A12924   3.796  12.707   7.103  0.0416  0.3267  0.2175
  870YOPE   C3A12925   3.958  12.719   7.461  0.2693 -0.0832  0.1469
  870YOPE   C4A12926   4.088  12.460   7.910  0.2955  0.2956  0.0379
  870YOPE   C1B12927   4.617  12.547   6.780 -0.0045 -0.0641  0.0054
  870YOPE   C2B12928   4.846  12.606   7.241 -0.0675  0.0221 -0.2360
  870YOPE   D3B12929   5.167  12.559   7.506  0.2601 -0.0336  0.0129
  870YOPE   C4B12930   5.415  12.839   7.748 -0.4767 -0.1645 -0.1224
  871YOPE   NH312931  15.546  10.302   6.268  0.0915  0.1470  0.3171
  871YOPE   PO412932  15.231  10.009   5.975  0.1713  0.0259 -0.1994
  871YOPE   GL112933  15.070  10.158   6.377 -0.2132 -0.2194  0.2542
  871YOPE   GL212934  14.841  10.433   6.349  0.0343 -0.0468  0.1219
  871YOPE   C1A12935  14.981  10.190   6.773  0.1343 -0.0457  0.4777
  871YOPE   D2A12936  14.895  10.272   7.200  0.1145  0.0539 -0.1402
  871YOPE   C3A12937  14.584  10.062   7.386  0.0614  0.1997  0.2064
  871YOPE   C4A12938  14.523   9.553   7.415 -0.2560  0.4451 -0.0680
  871YOPE   C1B12939  14.873  10.669   6.765  0.2251 -0.0111 -0.1727
  871YOPE   C2B12940  15.002  10.752   7.178 -0.1535  0.0747 -0.1641
  871YOPE   D3B12941  14.948  10.691   7.597 -0.1037 -0.0872 -0.1940
  871YOPE   C4B12942  14.702  10.593   7.786  0.0596 -0.3128  0.1377
  872YOPE   NH312943  16.325   8.219   5.748  0.0354  0.1637 -0.0047
  872YOPE   PO412944  16.122   7.759   5.946  0.2938 -0.0772  0.0865
  872YOPE   GL112945  15.848   7.925   6.334  0.1379  0.0770 -0.2176
  872YOPE   GL212946  16.084   8.041   6.413 -0.0051 -0.0625  0.1909
  872YOPE   C1A12947  15.794   7.958   6.747 -0.0416  0.0066  0.1181
  872YOPE   D2A12948  15.567   8.038   7.081 -0.0051 -0.1338  0.3188
  872YOPE   C3A12949  15.551   8.066   7.569  0.0539 -0.1257 -0.3552
  872YOPE   C4A12950  15.651   8.084   7.927  0.1070  0.1360 -0.0526
  872YOPE   C1B12951  16.274   7.990   6.740 -0.0243  0.0758  0.0396
  872YOPE   C2B12952  16.328   7.965   7.112  0.0008  0.1616 -0.0127
  872YOPE   D3B12953  16.263   7.936   7.526 -0.0169 -0.1186 -0.3655
  872YOPE   C4B12954  16.138   7.899   8.015 -0.0020  0.0714 -0.1553
  873YOPE   NH312955   4.881   1.387   5.829  0.3003  0.0202 -0.0201
  873YOPE   PO412956   4.647   1.770   5.823 -0.1199 -0.0588 -0.1729
  873YOPE   GL112957   4.672   1.854   6.284 -0.1928  0.0520  0.0602
  873YOPE   GL212958   5.030   1.843   6.314 -0.0500  0.1835  0.1415
  873YOPE   C1A12959   4.550   1.752   6.759 -0.2812 -0.1420  0.1708
  873YOPE   D2A12960   4.329   2.001   7.034  0.1700 -0.5058  0.2196
  873YOPE   C3A12961   4.404   1.999   7.518 -0.1056  0.0544  0.3483
  873YOPE   C4A12962   4.615   2.098   7.946  0.3552 -0.3773 -0.2039
  873YOPE   C1B12963   5.053   1.987   6.673  0.2467 -0.1261  0.1771
  873YOPE   C2B12964   5.266   2.073   7.067  0.3157 -0.2904 -0.2946
  873YOPE   D3B12965   5.393   2.165   7.545  0.2164 -0.1119 -0.0802
  873YOPE   C4B12966   5.875   2.429   7.585 -0.0254  0.0408 -0.0841
  874YOPE   NH312967   7.913   7.596   6.162  0.2278  0.1629 -0.3656
  874YOPE   PO412968   8.035   7.066   6.144  0.2122 -0.1384 -0.0124
  874YOPE   GL112969   8.310   7.277   6.448 -0.0117  0.1805  0.1489
  874YOPE   GL212970   8.066   7.421   6.616  0.0769  0.1214 -0.0369
  874YOPE   C1A12971   8.354   7.075   6.834  0.1605 -0.3504  0.2523
  874YOPE   D2A12972   8.225   6.913   7.271 -0.0121 -0.4536 -0.3628
  874YOPE   C3A12973   8.429   7.125   7.640  0.0330 -0.0563 -0.3898
  874YOPE   C4A12974   8.319   7.038   8.049 -0.3038 -0.0738 -0.1387
  874YOPE   C1B12975   7.750   7.304   6.803 -0.1207 -0.1403  0.1308
  874YOPE   C2B12976   7.812   7.263   7.192 -0.0875 -0.0079 -0.2081
  874YOPE   D3B12977   7.669   6.925   7.419 -0.0518 -0.3826 -0.1657
  874YOPE   C4B12978   7.901   6.835   7.820 -0.0193  0.1286  0.1342
  875YOPE   NH312979   1.982   5.617   6.110  0.4613 -0.0730 -0.0622
  875YOPE   PO412980   1.956   5.896   6.375  0.0341 -0.0485 -0.0628
  875YOPE   GL112981   2.284   5.790   6.676 -0.0711  0.0718 -0.0853
  875YOPE   GL212982   2.620   5.838   6.714  0.2870 -0.0638 -0.1147
  875YOPE   C1A12983   2.380   5.440   6.851 -0.1320 -0.1181 -0.2320
  875YOPE   D2A12984   2.650   5.291   7.189  0.3074 -0.4453 -0.2252
  875YOPE   C3A12985   2.690   5.243   7.603  0.1284  0.1153 -0.0373
  875YOPE   C4A12986   2.489   5.138   8.010  0.2083  0.0333 -0.1445
  875YOPE   C1B12987   2.703   5.781   7.106 -0.0403  0.0095 -0.2055
  875YOPE   C2B12988   2.520   5.748   7.412  0.0791  0.3277 -0.0530
  875YOPE   D3B12989   2.393   5.693   7.887 -0.2400 -0.0751 -0.0654
  875YOPE   C4B12990   2.316   5.519   8.306  0.2072 -0.2470  0.1338
  876YOPE   NH312991   1.662   2.612   6.101  0.1153  0.0798 -0.2560
  876YOPE   PO412992   1.644   2.983   6.222  0.1824 -0.0867 -0.1348
  876YOPE   GL112993   1.683   3.268   6.600 -0.3244  0.0735 -0.0556
  876YOPE   GL212994   1.543   3.143   6.741 -0.0844  0.1826 -0.0768
  876YOPE   C1A12995   1.635   3.647   6.808  0.1154  0.0004  0.1222
  876YOPE   D2A12996   1.586   3.874   7.181  0.0362  0.4220 -0.3765
  876YOPE   C3A12997   1.746   4.256   7.019 -0.1729  0.0676  0.1234
  876YOPE   C4A12998   2.002   4.560   7.130  0.1801 -0.0518 -0.1868
  876YOPE   C1B12999   1.572   3.135   7.115  0.0757  0.1949 -0.1557
  876YOPE   C2B13000   1.606   3.468   7.438  0.0950 -0.2902  0.1022
  876YOPE   D3B13001   1.734   3.476   7.875  0.0109 -0.0305 -0.0878
  876YOPE   C4B13002   1.961   3.790   8.158  0.0201  0.2088 -0.0604
  877YOPE   NH313003   8.613  14.054   6.030  0.3855 -0.0871 -0.1054
  877YOPE   PO413004   8.691  13.593   5.885  0.2074  0.1655 -0.0325
  877YOPE   GL113005   8.614  13.618   6.317  0.0634 -0.3459 -0.2555
  877YOPE   GL213006   8.835  13.386   6.316  0.2222  0.0938 -0.3136
  877YOPE   C1A13007   8.412  13.478   6.690  0.2563 -0.0217  0.0590
  877YOPE   D2A13008   8.166  13.164   6.862 -0.4722 -0.1314 -0.1586
  877YOPE   C3A13009   8.246  12.897   7.278  0.1354  0.2449  0.0437
  877YOPE   C4A13010   8.221  12.693   7.711  0.2659 -0.2404  0.2760
  877YOPE   C1B13011   8.872  13.368   6.619  0.1831 -0.1145 -0.1506
  877YOPE   C2B13012   8.801  13.203   6.925 -0.1344 -0.2486 -0.4978
  877YOPE   D3B13013   8.691  13.135   7.281  0.1693 -0.2605 -0.0181
  877YOPE   C4B13014   8.594  13.159   7.642 -0.0600  0.1093 -0.0657
  878YOPE   NH313015   3.633   7.143   6.092  0.0071  0.1631  0.0248
  878YOPE   PO413016   3.756   6.794   6.276 -0.0905  0.0705 -0.3717
  878YOPE   GL113017   3.713   6.453   6.623  0.3261 -0.1403  0.0848
  878YOPE   GL213018   3.567   6.262   6.868  0.0987  0.1822 -0.1905
  878YOPE   C1A13019   4.087   6.495   6.975 -0.3058  0.3403 -0.1577
  878YOPE   D2A13020   4.357   6.322   7.086 -0.0660 -0.2443 -0.1329
  878YOPE   C3A13021   4.469   6.092   7.554  0.0873 -0.1065 -0.2805
  878YOPE   C4A13022   4.432   6.075   7.897  0.2138 -0.2535 -0.1425
  878YOPE   C1B13023   3.722   6.218   7.372  0.0147  0.1177 -0.1440
  878YOPE   C2B13024   3.888   6.065   7.814  0.0987 -0.0222 -0.1175
  878YOPE   D3B13025   3.736   6.022   8.110 -0.0051 -0.0086 -0.1227
  878YOPE   C4B13026   3.573   5.849   8.403  0.0885 -0.1500 -0.2467
  879YOPE   NH313027   7.320  17.226   6.205  0.1107  0.3200 -0.4241
  879YOPE   PO413028   7.074  17.597   6.168 -0.1227 -0.1811 -0.0161
  879YOPE   GL113029   7.140  17.849   6.493  0.2015 -0.0291 -0.0370
  879YOPE   GL213030   7.398  18.007   6.565 -0.2526  0.2517  0.2580
  879YOPE   C1A13031   7.080  17.779   6.898 -0.2337 -0.2493  0.1944
  879YOPE   D2A13032   7.305  17.811   7.308  0.0167 -0.0368  0.1474
  879YOPE   C3A13033   7.216  18.183   7.588 -0.0309  0.0459  0.3046
  879YOPE   C4A13034   7.436  18.545   7.811  0.2190 -0.0404 -0.0338
  879YOPE   C1B13035   7.457  18.154   6.966  0.0750  0.3697 -0.1336
  879YOPE   C2B13036   7.649  18.177   7.310  0.0010 -0.0870 -0.1505
  879YOPE   D3B13037   7.680  17.941   7.601 -0.1175  0.1729 -0.2496
  879YOPE   C4B13038   7.822  17.762   7.951 -0.1022  0.2098 -0.2759
  880YOPE   NH313039   3.453  11.291   5.936 -0.1875 -0.0733 -0.0789
  880YOPE   PO413040   3.149  11.069   5.752  0.1116  0.2009 -0.0670
  880YOPE   GL113041   3.033  11.124   6.222  0.0948  0.2073  0.6387
  880YOPE   GL213042   2.742  11.060   6.399  0.0162  0.0110  0.1117
  880YOPE   C1A13043   3.132  11.160   6.725  0.1381  0.0543 -0.3768
  880YOPE   D2A13044   3.139  11.570   7.004 -0.1430 -0.1928 -0.3501
  880YOPE   C3A13045   3.135  11.603   7.447 -0.2192 -0.3266  0.0121
  880YOPE   C4A13046   3.064  11.459   7.828  0.2162 -0.1916  0.1725
  880YOPE   C1B13047   2.711  11.502   6.761 -0.0960 -0.1098  0.0415
  880YOPE   C2B13048   2.653  11.447   7.144  0.4016  0.0555  0.1485
  880YOPE   D3B13049   2.592  11.398   7.578  0.0166 -0.0231  0.1947
  880YOPE   C4B13050   2.580  11.326   7.939 -0.0783 -0.0010  0.1324
  881YOPE   NH313051   7.165  10.983   6.283  0.1569  0.1652  0.0937
  881YOPE   PO413052   7.109  10.547   6.231  0.0448  0.2227  0.1241
  881YOPE   GL113053   7.189  10.452   6.565  0.1840  0.0244  0.1443
  881YOPE   GL213054   6.913  10.245   6.741 -0.1256 -0.3101  0.1989
  881YOPE   C1A13055   7.292  10.439   7.055  0.1883 -0.1527  0.1128
  881YOPE   D2A13056   7.090  10.325   7.450 -0.4843 -0.1986 -0.1439
  881YOPE   C3A13057   7.129  10.457   7.852 -0.1008  0.4219  0.2020
  881YOPE   C4A13058   6.824  10.397   8.081  0.0107 -0.2828 -0.0694
  881YOPE   C1B13059   6.688  10.246   7.158 -0.2202 -0.1625 -0.1178
  881YOPE   C2B13060   6.597  10.304   7.554  0.1270 -0.0018  0.0036
  881YOPE   D3B13061   6.297  10.149   7.848 -0.2457 -0.3988  0.2756
  881YOPE   C4B13062   5.892  10.059   7.879 -0.2146  0.1802  0.2255
  882YOPE   NH313063  12.573  16.824   6.757 -0.1351 -0.0304  0.0976
  882YOPE   PO413064  12.970  16.458   6.665 -0.1714 -0.2941 -0.0395
  882YOPE   GL113065  12.701  16.292   6.866  0.0308  0.0653 -0.2429
  882YOPE   GL213066  12.421  16.394   6.946 -0.3055  0.0627  0.0204
  882YOPE   C1A13067  12.614  16.100   7.292 -0.0728 -0.0345 -0.0328
  882YOPE   D2A13068  12.415  16.000   7.635  0.2547  0.1857 -0.1322
  882YOPE   C3A13069  12.758  15.942   8.081  0.1162 -0.3696 -0.3264
  882YOPE   C4A13070  12.646  15.864   8.506 -0.2887 -0.2845  0.3707
  882YOPE   C1B13071  12.649  16.554   7.358 -0.1538 -0.1387 -0.2522
  882YOPE   C2B13072  12.542  16.507   7.782  0.0600  0.1366 -0.1667
  882YOPE   D3B13073  12.363  16.823   8.072 -0.2077 -0.0780  0.1205
  882YOPE   C4B13074  12.311  16.815   8.479  0.0384 -0.0572 -0.1712
  883YOPE   NH313075   4.693   0.893   5.618  0.1207  0.0736  0.1464
  883YOPE   PO413076   4.418   1.312   5.623 -0.2017 -0.0450  0.2628
  883YOPE   GL113077   4.460   1.354   6.139 -0.2628  0.1729  0.1774
  883YOPE   GL213078   4.221   1.510   6.438  0.4200 -0.1587 -0.1822
  883YOPE   C1A13079   4.739   1.415   6.495  0.1492  0.0902  0.1051
  883YOPE   D2A13080   4.817   1.251   6.747 -0.1183 -0.0947  0.2615
  883YOPE   C3A13081   4.646   1.271   7.074  0.2575  0.1044 -0.2169
  883YOPE   C4A13082   4.697   1.489   7.492  0.0728  0.0481 -0.0325
  883YOPE   C1B13083   4.162   1.434   6.936  0.0620  0.3853  0.1256
  883YOPE   C2B13084   4.168   1.452   7.291  0.0793 -0.0525  0.1390
  883YOPE   D3B13085   3.991   1.656   7.658 -0.1714  0.0111  0.1383
  883YOPE   C4B13086   3.637   1.897   7.860 -0.3844 -0.6087  0.2643
  884YOPE   NH313087  12.731   1.461   6.131 -0.1481  0.0366  0.3334
  884YOPE   PO413088  12.814   1.784   6.407  0.0015  0.0188  0.1929
  884YOPE   GL113089  12.842   1.861   6.768  0.0792 -0.0727 -0.1330
  884YOPE   GL213090  13.139   2.063   6.833 -0.0747 -0.1270 -0.1050
  884YOPE   C1A13091  12.684   1.925   7.077  0.1242 -0.1631 -0.3032
  884YOPE   D2A13092  12.776   1.839   7.493  0.1248 -0.1054  0.2957
  884YOPE   C3A13093  12.450   1.844   7.914  0.4673  0.2452  0.3343
  884YOPE   C4A13094  12.552   1.887   8.327 -0.0253 -0.0094  0.1430
  884YOPE   C1B13095  13.096   2.166   7.217  0.2021  0.0041  0.0424
  884YOPE   C2B13096  12.973   2.391   7.610  0.0439 -0.1012 -0.2542
  884YOPE   D3B13097  12.662   2.644   7.850 -0.0704 -0.1666 -0.0838
  884YOPE   C4B13098  12.606   2.946   8.201  0.2243 -0.2518  0.0000
  885YOPE   NH313099   3.597  13.940   6.167 -0.0329 -0.1901  0.0303
  885YOPE   PO413100   3.623  13.445   6.055  0.0053  0.2472 -0.0615
  885YOPE   GL113101   3.589  13.112   6.271 -0.2897  0.0184 -0.2615
  885YOPE   GL213102   3.757  13.107   6.389  0.1224 -0.0559 -0.0698
  885YOPE   C1A13103   3.539  13.028   6.803 -0.0671  0.1028  0.2188
  885YOPE   D2A13104   3.367  13.147   7.161 -0.3541 -0.0476 -0.0133
  885YOPE   C3A13105   3.382  12.803   7.368 -0.2860  0.0601 -0.1675
  885YOPE   C4A13106   3.557  12.477   7.738 -0.2216  0.1118 -0.3583
  885YOPE   C1B13107   4.045  13.194   6.675  0.0451 -0.3599 -0.0855
  885YOPE   C2B13108   3.912  13.164   7.126 -0.1787 -0.4542 -0.2963
  885YOPE   D3B13109   3.725  13.177   7.508 -0.3044  0.0016  0.0209
  885YOPE   C4B13110   3.747  13.347   7.908  0.0884 -0.1187 -0.0451
  886YOPE   NH313111   3.254   6.841   6.157  0.1523 -0.0812 -0.0167
  886YOPE   PO413112   2.944   6.684   6.242  0.2494 -0.3266  0.0728
  886YOPE   GL113113   3.019   6.852   6.634 -0.2162 -0.1833  0.1273
  886YOPE   GL213114   3.131   6.628   6.793 -0.1733 -0.0599  0.0012
  886YOPE   C1A13115   2.752   7.073   6.926 -0.1759 -0.1441 -0.0450
  886YOPE   D2A13116   2.389   7.324   7.134 -0.2263  0.0757 -0.1776
  886YOPE   C3A13117   2.725   7.420   7.537  0.1161 -0.4093  0.0058
  886YOPE   C4A13118   2.709   7.442   7.964  0.0045 -0.0562  0.1536
  886YOPE   C1B13119   3.203   6.659   7.277 -0.1780  0.1792  0.1387
  886YOPE   C2B13120   3.176   6.589   7.701  0.0820  0.1541  0.2753
  886YOPE   D3B13121   2.723   6.619   7.872  0.2856 -0.0733  0.0535
  886YOPE   C4B13122   2.289   6.616   7.698 -0.0539  0.0019  0.1710
  887YOPE   NH313123   8.226  15.297   6.213 -0.1185  0.1645  0.3032
  887YOPE   PO413124   7.984  15.682   6.343  0.1182 -0.0350  0.1471
  887YOPE   GL113125   8.352  15.961   6.508  0.1005 -0.0326  0.2856
  887YOPE   GL213126   8.510  15.653   6.505  0.0237 -0.0261  0.0392
  887YOPE   C1A13127   8.505  16.038   6.920 -0.5328  0.2093 -0.3372
  887YOPE   D2A13128   8.845  16.176   7.118 -0.0128 -0.2382 -0.2039
  887YOPE   C3A13129   8.916  16.023   7.539 -0.0567  0.2803  0.0163
  887YOPE   C4A13130   9.019  15.943   7.957  0.1518 -0.1018  0.0978
  887YOPE   C1B13131   8.459  15.465   6.877  0.1906  0.0424  0.3496
  887YOPE   C2B13132   8.295  15.329   7.154  0.0126 -0.0626 -0.1272
  887YOPE   D3B13133   8.170  15.407   7.602  0.1284 -0.3621  0.2128
  887YOPE   C4B13134   8.164  15.706   7.956  0.1582 -0.3473 -0.0193
  888YOPE   NH313135   0.729   6.046   6.414 -0.0174 -0.1341 -0.2554
  888YOPE   PO413136   0.349   6.386   6.320  0.0452 -0.1887 -0.0031
  888YOPE   GL113137   0.440   6.366   6.730 -0.1595 -0.2501 -0.0622
  888YOPE   GL213138   0.766   6.423   6.719  0.3710  0.0949  0.0978
  888YOPE   C1A13139   0.474   6.456   7.278  0.2051 -0.4903  0.0276
  888YOPE   D2A13140   0.309   6.575   7.600 -0.0022  0.0273 -0.0565
  888YOPE   C3A13141   0.142   6.351   7.889 -0.1648  0.1521  0.2063
  888YOPE   C4A13142   0.168   6.196   8.309 -0.0375 -0.0414  0.0529
  888YOPE   C1B13143   0.950   6.529   7.086 -0.0175 -0.2061  0.0347
  888YOPE   C2B13144   0.988   6.640   7.517 -0.0926  0.1968  0.0544
  888YOPE   D3B13145   1.081   6.717   7.883  0.1219 -0.1619  0.0798
  888YOPE   C4B13146   1.300   6.440   8.077  0.3828 -0.1490 -0.0941
  889YOPE   NH313147   9.174   9.853   6.422  0.1680 -0.0707  0.0624
  889YOPE   PO413148   8.867  10.174   6.250  0.1277 -0.1863 -0.3973
  889YOPE   GL113149   8.984  10.328   6.616 -0.0213 -0.2516 -0.0658
  889YOPE   GL213150   8.797  10.054   6.736 -0.1368  0.2021  0.1226
  889YOPE   C1A13151   9.204  10.224   6.981 -0.0239  0.0835  0.1493
  889YOPE   D2A13152   9.162  10.376   7.406 -0.0218  0.2729 -0.0746
  889YOPE   C3A13153   9.154  10.093   7.719  0.1642 -0.3338 -0.4751
  889YOPE   C4A13154   9.594   9.930   8.080  0.0787 -0.1284  0.0615
  889YOPE   C1B13155   8.716  10.238   7.149  0.1783  0.0661 -0.0902
  889YOPE   C2B13156   8.629  10.369   7.552  0.1420 -0.0683  0.0464
  889YOPE   D3B13157   8.656  10.744   7.714 -0.0259  0.0297 -0.1096
  889YOPE   C4B13158   8.482  10.926   8.061 -0.0522  0.1439 -0.0430
  890YOPE   NH313159   5.031  16.594   6.295  0.1458 -0.1569  0.3588
  890YOPE   PO413160   5.231  17.022   6.287  0.0050  0.2460  0.0463
  890YOPE   GL113161   5.321  16.887   6.648  0.3280 -0.1045  0.0185
  890YOPE   GL213162   5.019  16.790   6.788  0.1580 -0.0443 -0.0209
  890YOPE   C1A13163   5.386  16.979   7.039 -0.0714  0.0340 -0.2469
  890YOPE   D2A13164   5.345  17.376   7.208 -0.1916  0.0441 -0.0744
  890YOPE   C3A13165   5.769  17.548   7.223  0.0494 -0.2662 -0.1251
  890YOPE   C4A13166   6.056  17.533   7.518  0.3039  0.2505  0.1350
  890YOPE   C1B13167   4.885  17.030   7.163  0.1409 -0.1418  0.1673
  890YOPE   C2B13168   5.024  17.077   7.512  0.1296 -0.0398  0.2057
  890YOPE   D3B13169   5.098  17.078   7.906 -0.0027  0.2284  0.2793
  890YOPE   C4B13170   5.444  16.825   8.054  0.0747  0.1459  0.1456
  891YOPE   NH313171   2.109   1.945   6.160  0.1269  0.2280 -0.1722
  891YOPE   PO413172   1.989   2.295   5.982 -0.2498 -0.0083 -0.2304
  891YOPE   GL113173   1.985   2.460   6.452 -0.1867  0.0994  0.3156
  891YOPE   GL213174   1.901   2.729   6.573  0.0123  0.1874 -0.1567
  891YOPE   C1A13175   1.903   2.206   6.803 -0.0378  0.2490 -0.1500
  891YOPE   D2A13176   1.571   1.939   6.821 -0.3464 -0.2589  0.0289
  891YOPE   C3A13177   1.239   1.696   6.972  0.2220  0.1906 -0.0381
  891YOPE   C4A13178   0.940   1.478   7.158  0.0392  0.3288 -0.0269
  891YOPE   C1B13179   2.384   2.734   6.775  0.1680  0.1151 -0.1123
  891YOPE   C2B13180   2.569   2.874   7.135  0.3295  0.1812 -0.2730
  891YOPE   D3B13181   2.857   2.994   7.326  0.1979 -0.0318 -0.1947
  891YOPE   C4B13182   3.085   3.347   7.492  0.0521  0.0243  0.0221
  892YOPE   NH313183  10.116   5.881   6.156  0.0249  0.0163  0.0486
  892YOPE   PO413184   9.983   6.202   6.481 -0.1438 -0.0935 -0.1338
  892YOPE   GL113185   9.963   6.248   6.895  0.2718  0.2136 -0.0023
  892YOPE   GL213186  10.000   6.458   7.046  0.1885 -0.0628 -0.1068
  892YOPE   C1A13187  10.101   5.973   7.205 -0.1965  0.1420 -0.1910
  892YOPE   D2A13188  10.122   5.962   7.626 -0.2263 -0.2038 -0.1712
  892YOPE   C3A13189  10.036   5.721   7.926  0.1620 -0.1866  0.1641
  892YOPE   C4A13190  10.008   5.632   8.371  0.4250 -0.1085  0.0745
  892YOPE   C1B13191  10.004   6.437   7.525 -0.0463 -0.0777 -0.1944
  892YOPE   C2B13192   9.822   6.296   7.819 -0.0303  0.1443 -0.0931
  892YOPE   D3B13193   9.374   6.378   8.075 -0.3881  0.2010 -0.1514
  892YOPE   C4B13194   9.144   6.659   8.293 -0.1278 -0.2356 -0.0388
  893YOPE   NH313195  12.760   0.627   6.457 -0.2419  0.0396  0.1355
  893YOPE   PO413196  13.214   0.774   6.504  0.2837  0.4161  0.0274
  893YOPE   GL113197  13.096   0.949   6.841  0.0201  0.2023  0.3220
  893YOPE   GL213198  12.723   0.837   6.939 -0.0136 -0.0401 -0.2465
  893YOPE   C1A13199  13.056   1.055   7.301  0.0452 -0.0984 -0.3512
  893YOPE   D2A13200  12.883   1.055   7.694 -0.0877 -0.1372  0.1325
  893YOPE   C3A13201  12.437   0.968   7.875 -0.1129  0.1886 -0.1599
  893YOPE   C4A13202  12.092   0.711   7.889  0.1325 -0.0672 -0.2939
  893YOPE   C1B13203  12.873   0.625   7.225 -0.0766  0.4061 -0.1035
  893YOPE   C2B13204  12.872   0.545   7.647  0.0171 -0.3148 -0.1304
  893YOPE   D3B13205  12.958   0.641   8.075  0.0598  0.0939 -0.1543
  893YOPE   C4B13206  13.175   0.560   8.451 -0.0038 -0.1235 -0.1094
  894YOPE   NH313207   5.311  11.006   6.086 -0.0539 -0.0267  0.0463
  894YOPE   PO413208   5.216  10.570   5.999  0.0301 -0.0554 -0.0172
  894YOPE   GL113209   5.254  10.533   6.362 -0.1285  0.1834 -0.1218
  894YOPE   GL213210   5.059  10.276   6.553 -0.1673 -0.0841  0.0652
  894YOPE   C1A13211   5.365  10.596   6.834  0.1031 -0.0318  0.2162
  894YOPE   D2A13212   5.309  10.645   7.336  0.2325  0.4623 -0.2227
  894YOPE   C3A13213   5.160  10.957   7.722  0.0534  0.1508 -0.0748
  894YOPE   C4A13214   5.113  11.157   8.047  0.0066  0.0013 -0.0907
  894YOPE   C1B13215   5.029  10.230   6.999  0.3085  0.1796  0.0488
  894YOPE   C2B13216   4.941  10.112   7.455 -0.0842 -0.1982  0.1971
  894YOPE   D3B13217   4.652  10.005   7.799  0.2435 -0.0461  0.0922
  894YOPE   C4B13218   4.531  10.259   8.169  0.3662 -0.1034  0.0317
  895YOPE   NH313219   7.110   1.508   6.057 -0.1844 -0.1317 -0.0383
  895YOPE   PO413220   7.251   1.820   5.826  0.3564  0.1111 -0.2593
  895YOPE   GL113221   7.529   1.857   6.182  0.2761  0.2258  0.0528
  895YOPE   GL213222   7.755   2.051   6.216 -0.0307  0.3816  0.0631
  895YOPE   C1A13223   7.496   1.934   6.611  0.1896  0.2708 -0.2700
  895YOPE   D2A13224   7.506   2.057   7.066  0.0767  0.0430 -0.2415
  895YOPE   C3A13225   7.250   2.302   7.194 -0.2892  0.2759 -0.0073
  895YOPE   C4A13226   7.029   2.518   7.528 -0.2864 -0.1136 -0.4198
  895YOPE   C1B13227   8.034   1.964   6.583 -0.1784  0.1270  0.1152
  895YOPE   C2B13228   7.873   1.683   7.050  0.4298 -0.0068 -0.0110
  895YOPE   D3B13229   7.695   1.566   7.433  0.0367 -0.0829  0.2255
  895YOPE   C4B13230   7.820   1.318   7.720  0.1150  0.1144 -0.1980
  896YOPE   NH313231   2.181   6.763   6.307 -0.2112 -0.1260 -0.0673
  896YOPE   PO413232   1.823   6.879   6.485  0.5095  0.0581  0.2842
  896YOPE   GL113233   1.955   6.985   6.835 -0.0737 -0.1997  0.1785
  896YOPE   GL213234   2.267   7.025   6.771 -0.0777 -0.0660 -0.1090
  896YOPE   C1A13235   1.948   7.078   7.191 -0.3403  0.2280 -0.0110
  896YOPE   D2A13236   2.032   7.025   7.634  0.2197  0.0502 -0.0447
  896YOPE   C3A13237   2.438   7.055   7.808 -0.2560  0.0716  0.4554
  896YOPE   C4A13238   2.653   6.971   8.165  0.0138  0.1925 -0.1113
  896YOPE   C1B13239   2.370   6.863   7.278 -0.2280 -0.2266 -0.2256
  896YOPE   C2B13240   2.782   6.924   7.449  0.0653  0.0371  0.0982
  896YOPE   D3B13241   2.935   7.056   7.790  0.1896 -0.3747  0.1117
  896YOPE   C4B13242   3.112   7.095   8.169 -0.1590 -0.2864  0.1074
  897YOPE   NH313243   7.534   8.376   6.101 -0.1140  0.2309 -0.1164
  897YOPE   PO413244   7.734   8.727   6.024 -0.1401 -0.1535  0.1356
  897YOPE   GL113245   7.727   8.636   6.531  0.1586 -0.1698 -0.0246
  897YOPE   GL213246   8.009   8.554   6.453 -0.2105 -0.3162 -0.1702
  897YOPE   C1A13247   7.536   8.585   6.945 -0.1872  0.2570 -0.2757
  897YOPE   D2A13248   7.435   8.598   7.333  0.0299  0.1770  0.0210
  897YOPE   C3A13249   7.274   8.915   7.662  0.1020  0.0601 -0.3401
  897YOPE   C4A13250   6.905   8.904   7.847  0.0913 -0.0660  0.1176
  897YOPE   C1B13251   8.086   8.689   6.879 -0.1426  0.3065 -0.0279
  897YOPE   C2B13252   8.180   8.539   7.217  0.0571  0.2106 -0.2063
  897YOPE   D3B13253   8.240   8.437   7.675 -0.2921 -0.2126  0.1373
  897YOPE   C4B13254   8.107   8.303   8.005 -0.1917 -0.1261 -0.1165
  898YOPE   NH313255   4.048  14.197   6.221  0.0420  0.0643 -0.0521
  898YOPE   PO413256   3.588  14.413   6.218 -0.0263  0.2734 -0.2715
  898YOPE   GL113257   3.649  14.190   6.623  0.3081 -0.1194  0.1103
  898YOPE   GL213258   3.321  14.096   6.820 -0.2496 -0.1425  0.3219
  898YOPE   C1A13259   3.715  14.251   7.085 -0.0143 -0.0514  0.0283
  898YOPE   D2A13260   3.675  14.298   7.499 -0.1179 -0.0484 -0.0506
  898YOPE   C3A13261   4.032  14.325   7.790  0.2144 -0.2002 -0.0587
  898YOPE   C4A13262   4.236  14.207   8.140 -0.0717  0.4442  0.3088
  898YOPE   C1B13263   3.176  14.074   7.123  0.1558 -0.0788  0.1529
  898YOPE   C2B13264   3.175  14.051   7.477 -0.2852  0.1672  0.0201
  898YOPE   D3B13265   2.894  14.062   7.787  0.1225 -0.3595  0.0104
  898YOPE   C4B13266   2.943  13.817   8.115 -0.1786 -0.0250  0.1859
  899YOPE   NH313267  10.702   3.813   6.005 -0.0595  0.1012  0.2777
  899YOPE   PO413268  11.169   3.889   6.037  0.0885 -0.2623  0.1628
  899YOPE   GL113269  11.172   3.646   6.532 -0.2086 -0.0585  0.0020
  899YOPE   GL213270  10.810   3.546   6.702  0.1674 -0.0614 -0.0577
  899YOPE   C1A13271  11.208   3.299   6.904 -0.3889  0.0193 -0.0192
  899YOPE   D2A13272  11.371   3.131   7.294  0.0139 -0.1795 -0.0647
  899YOPE   C3A13273  11.256   3.399   7.661  0.0819 -0.0912 -0.2703
  899YOPE   C4A13274  11.070   3.704   7.750 -0.0624 -0.3826  0.0582
  899YOPE   C1B13275  10.620   3.738   6.931  0.0483 -0.1657 -0.0780
  899YOPE   C2B13276  10.594   3.686   7.533 -0.0398 -0.1069 -0.0835
  899YOPE   D3B13277  10.576   3.711   7.948 -0.1918  0.0496  0.2705
  899YOPE   C4B13278  10.626   3.858   8.251  0.1459 -0.0315  0.1993
  900YOPE   NH313279  17.618  13.967   5.879 -0.0325  0.3267  0.0548
  900YOPE   PO413280  17.385  13.631   5.819  0.2631 -0.1163 -0.0536
  900YOPE   GL113281  17.688  13.526   6.192  0.0008 -0.1796 -0.1821
  900YOPE   GL213282  18.006  13.351   6.160  0.2903 -0.0125 -0.0871
  900YOPE   C1A13283  17.815  13.508   6.629 -0.1426 -0.0419 -0.0460
  900YOPE   D2A13284  17.883  13.669   6.956 -0.0130 -0.0988  0.0058
  900YOPE   C3A13285  17.851  13.521   7.302  0.0566 -0.2203 -0.1136
  900YOPE   C4A13286  17.683  13.386   7.723 -0.0210  0.1801 -0.0635
  900YOPE   C1B13287  18.239  13.158   6.563  0.2134 -0.1055  0.1714
  900YOPE   C2B13288  18.152  13.175   7.070  0.1250  0.0088  0.2415
  900YOPE   D3B13289  17.952  13.062   7.374  0.3163  0.0628  0.1483
  900YOPE   C4B13290  17.992  13.003   7.758 -0.1524 -0.0925 -0.2717
  901YOPE   NH313291   7.560  12.799   6.211  0.1992  0.2498  0.0187
  901YOPE   PO413292   7.764  12.356   6.258 -0.0051  0.0433 -0.0256
  901YOPE   GL113293   7.842  12.276   6.652 -0.2197 -0.0610  0.1154
  901YOPE   GL213294   8.106  12.078   6.667 -0.0517 -0.1227  0.0749
  901YOPE   C1A13295   7.940  12.326   7.041 -0.0261  0.2181  0.0986
  901YOPE   D2A13296   8.246  12.377   7.323  0.1915 -0.0790 -0.0520
  901YOPE   C3A13297   8.321  12.201   7.628 -0.0784  0.4425 -0.1396
  901YOPE   C4A13298   8.389  11.960   7.967 -0.0666 -0.1358  0.1248
  901YOPE   C1B13299   8.403  12.319   6.819  0.0647 -0.0907 -0.1056
  901YOPE   C2B13300   8.813  12.241   6.988  0.1466 -0.2008  0.0707
  901YOPE   D3B13301   9.078  12.356   7.409  0.0879  0.0636  0.0677
  901YOPE   C4B13302   8.846  12.198   7.801  0.2060  0.0676  0.3869
  902YOPE   NH313303   7.717  16.465   5.664 -0.3599 -0.1912 -0.2206
  902YOPE   PO413304   7.866  16.422   6.063 -0.0493 -0.1400 -0.1405
  902YOPE   GL113305   7.892  16.255   6.435 -0.0184 -0.2719  0.0367
  902YOPE   GL213306   8.239  16.443   6.623  0.0897  0.4280  0.3186
  902YOPE   C1A13307   7.991  16.113   6.857 -0.1111 -0.2458  0.1298
  902YOPE   D2A13308   8.106  15.798   7.114 -0.1268  0.2274 -0.2645
  902YOPE   C3A13309   8.348  15.843   7.409 -0.1036 -0.0646 -0.0195
  902YOPE   C4A13310   8.416  16.115   7.752 -0.0338  0.1067 -0.4130
  902YOPE   C1B13311   8.340  16.477   7.063  0.0597 -0.1817  0.0524
  902YOPE   C2B13312   8.547  16.438   7.451  0.0465  0.0131 -0.3423
  902YOPE   D3B13313   8.961  16.670   7.621  0.0060 -0.0235  0.1582
  902YOPE   C4B13314   9.078  16.992   7.839 -0.0118  0.2937  0.2221
  903YOPE   NH313315  15.701   8.793   6.061 -0.1560  0.1958 -0.0125
  903YOPE   PO413316  16.118   9.002   6.138 -0.1287  0.0276 -0.1199
  903YOPE   GL113317  16.014   8.906   6.533 -0.3044 -0.1877 -0.0381
  903YOPE   GL213318  16.292   8.996   6.758 -0.0673  0.1132 -0.0366
  903YOPE   C1A13319  15.828   8.979   6.876  0.1038  0.0375  0.1980
  903YOPE   D2A13320  15.869   8.977   7.280 -0.2335  0.1497  0.0468
  903YOPE   C3A13321  15.611   9.307   7.549 -0.2979  0.1425 -0.1811
  903YOPE   C4A13322  15.371   9.268   8.022  0.0177 -0.3918 -0.2331
  903YOPE   C1B13323  16.403   9.005   7.209 -0.0908 -0.0837 -0.1860
  903YOPE   C2B13324  16.519   9.106   7.629  0.1468  0.0615  0.2183
  903YOPE   D3B13325  16.344   9.136   8.074 -0.1626 -0.4018 -0.2037
  903YOPE   C4B13326  16.181   9.454   8.365 -0.1478 -0.0901  0.0290
  904YOPE   NH313327  14.370  17.601   6.309 -0.0610 -0.2803  0.0020
  904YOPE   PO413328  14.177  18.033   6.225 -0.1687  0.0198  0.2981
  904YOPE   GL113329  14.169  18.167   6.739 -0.0492  0.1239  0.2819
  904YOPE   GL213330  14.105  18.574   6.826  0.0369  0.1281  0.0604
  904YOPE   C1A13331  14.284  18.177   7.141  0.0856  0.1775  0.3565
  904YOPE   D2A13332  14.420  18.209   7.585  0.0498 -0.0894  0.0141
  904YOPE   C3A13333  14.343  18.196   7.941  0.0196 -0.1726 -0.0332
  904YOPE   C4A13334  14.434  17.941   8.360  0.1958 -0.1413 -0.0742
  904YOPE   C1B13335  13.959  18.692   7.226 -0.1125 -0.0776  0.0424
  904YOPE   C2B13336  13.762  18.614   7.637 -0.0247  0.1843  0.0619
  904YOPE   D3B13337  13.935  18.519   8.114  0.0193 -0.3365 -0.1976
  904YOPE   C4B13338  13.995  18.436   8.444 -0.0458 -0.0191  0.4389
  905YOPE   NH313339  14.444   7.803   5.588  0.1120 -0.3295 -0.0065
  905YOPE   PO413340  14.201   7.547   5.886  0.0041 -0.1352  0.2178
  905YOPE   GL113341  14.386   7.578   6.288 -0.1472 -0.0863 -0.2780
  905YOPE   GL213342  14.597   7.338   6.431  0.2128 -0.2081 -0.1473
  905YOPE   C1A13343  14.329   7.832   6.549  0.1082 -0.0959  0.0440
  905YOPE   D2A13344  14.541   7.812   6.999  0.0444  0.0600 -0.2074
  905YOPE   C3A13345  14.344   7.777   7.449  0.0178  0.2955  0.0260
  905YOPE   C4A13346  14.102   7.966   7.728 -0.0104 -0.0604 -0.1461
  905YOPE   C1B13347  14.579   7.292   6.864  0.2511  0.0689  0.0095
  905YOPE   C2B13348  14.627   7.415   7.245 -0.0580  0.1181 -0.0040
  905YOPE   D3B13349  14.581   7.294   7.744  0.1019 -0.0253 -0.2745
  905YOPE   C4B13350  14.740   7.352   8.173 -0.1969 -0.4380  0.0720
  906YOPE   NH313351   8.116   4.322   6.061  0.1547 -0.0926 -0.0049
  906YOPE   PO413352   8.294   4.722   6.396 -0.2067  0.3567  0.1448
  906YOPE   GL113353   8.458   4.721   6.809 -0.1312  0.4670  0.0296
  906YOPE   GL213354   8.309   5.034   6.846  0.0071  0.1043 -0.3572
  906YOPE   C1A13355   8.430   4.604   7.221 -0.0584  0.4381  0.1746
  906YOPE   D2A13356   8.506   4.451   7.586 -0.0460 -0.0402 -0.4397
  906YOPE   C3A13357   8.259   4.339   7.809 -0.1755  0.0082 -0.3383
  906YOPE   C4A13358   8.283   4.240   8.164  0.0499  0.0527  0.1106
  906YOPE   C1B13359   8.493   5.101   7.271 -0.3542  0.0634 -0.2029
  906YOPE   C2B13360   8.560   5.085   7.672 -0.0397  0.1787 -0.2158
  906YOPE   D3B13361   8.773   5.179   7.939  0.1849  0.4239 -0.1957
  906YOPE   C4B13362   9.246   5.095   8.125  0.1805 -0.0926 -0.2432
  907YOPE   NH313363  13.372  16.023   6.410 -0.0504 -0.0570 -0.0231
  907YOPE   PO413364  13.281  15.596   6.345 -0.1101 -0.4717 -0.0845
  907YOPE   GL113365  13.323  15.346   6.682  0.0033  0.3820 -0.0970
  907YOPE   GL213366  13.107  15.361   6.907 -0.1441 -0.2946 -0.0469
  907YOPE   C1A13367  13.594  15.409   7.010 -0.0713  0.1338 -0.1367
  907YOPE   D2A13368  13.987  15.597   7.231 -0.0640 -0.0165  0.2679
  907YOPE   C3A13369  14.250  15.399   7.526  0.0190  0.1386  0.3157
  907YOPE   C4A13370  14.487  15.066   7.735  0.1670  0.0774  0.0216
  907YOPE   C1B13371  13.210  15.379   7.315 -0.2798 -0.0429  0.0256
  907YOPE   C2B13372  13.251  15.344   7.657  0.1426 -0.2049 -0.1175
  907YOPE   D3B13373  13.447  15.202   7.968  0.3575  0.2622  0.2845
  907YOPE   C4B13374  13.630  15.188   8.442  0.0833  0.0350 -0.2413
  908YOPE   NH313375   0.961   6.449   6.160  0.0539  0.0043  0.0399
  908YOPE   PO413376   0.752   6.767   6.348  0.0244  0.2753 -0.2146
  908YOPE   GL113377   0.530   6.869   6.739  0.1713 -0.0671 -0.0105
  908YOPE   GL213378   0.862   6.972   6.834  0.3192 -0.2382  0.1282
  908YOPE   C1A13379   0.181   7.026   7.033 -0.0683 -0.2638 -0.3526
  908YOPE   D2A13380  -0.020   7.342   7.173 -0.0294 -0.0743 -0.1904
  908YOPE   C3A13381  -0.296   7.324   7.430 -0.0739 -0.0090  0.1160
  908YOPE   C4A13382  -0.363   7.136   7.819  0.0015 -0.1241  0.0202
  908YOPE   C1B13383   0.598   6.929   7.299 -0.0114 -0.1397  0.1550
  908YOPE   C2B13384   0.607   6.922   7.716  0.0829 -0.1361  0.0266
  908YOPE   D3B13385   0.255   6.934   7.995  0.0614  0.0395  0.1531
  908YOPE   C4B13386  -0.186   6.820   8.185 -0.1128 -0.1452 -0.0571
  909YOPE   NH313387   4.411  13.418   5.988 -0.0821 -0.0518 -0.2160
  909YOPE   PO413388   4.599  13.832   5.990 -0.2098 -0.1364  0.2609
  909YOPE   GL113389   4.369  13.752   6.347 -0.1535 -0.1153  0.1473
  909YOPE   GL213390   4.009  13.713   6.450  0.0651 -0.0835  0.1294
  909YOPE   C1A13391   4.325  13.543   6.788 -0.3089 -0.1443  0.0782
  909YOPE   D2A13392   4.214  13.569   7.174  0.1618 -0.0771 -0.0342
  909YOPE   C3A13393   4.275  13.302   7.477  0.0112  0.2943  0.0635
  909YOPE   C4A13394   4.103  12.964   7.863  0.0082  0.0053 -0.0418
  909YOPE   C1B13395   4.091  13.966   6.857 -0.2271  0.5535 -0.0994
  909YOPE   C2B13396   4.159  14.033   7.375  0.1494 -0.2752 -0.1751
  909YOPE   D3B13397   4.121  13.693   7.658 -0.3195  0.2829  0.1376
  909YOPE   C4B13398   4.221  13.426   7.963  0.1207  0.1865  0.0212
  910YOPE   NH313399  11.585   7.977   6.174  0.0433 -0.2365  0.0151
  910YOPE   PO413400  11.888   7.608   6.202  0.3768 -0.0869  0.2049
  910YOPE   GL113401  11.750   7.699   6.649  0.1667 -0.1604 -0.3473
  910YOPE   GL213402  11.632   8.044   6.687  0.2380 -0.0554  0.1562
  910YOPE   C1A13403  11.715   7.534   7.042 -0.0953 -0.1839  0.1179
  910YOPE   D2A13404  11.555   7.642   7.461  0.0077 -0.0611  0.0010
  910YOPE   C3A13405  11.761   7.829   7.747 -0.4174  0.0605 -0.0374
  910YOPE   C4A13406  11.742   7.971   8.247 -0.6470 -0.1254  0.0863
  910YOPE   C1B13407  11.790   8.050   7.088 -0.3956 -0.1537  0.3952
  910YOPE   C2B13408  12.002   8.201   7.537 -0.1544  0.0261  0.2952
  910YOPE   D3B13409  12.302   8.096   7.951  0.1873  0.1678  0.2440
  910YOPE   C4B13410  12.534   8.078   8.410 -0.1498  0.4110 -0.2411
  911YOPE   NH313411   9.817  10.044   6.298 -0.1115 -0.1265  0.3477
  911YOPE   PO413412   9.411  10.229   6.249  0.0594 -0.0184 -0.2573
  911YOPE   GL113413   9.531  10.367   6.626  0.0934 -0.0856 -0.2373
  911YOPE   GL213414   9.828  10.476   6.722  0.0373  0.0431 -0.0270
  911YOPE   C1A13415   9.339  10.702   6.958 -0.1340 -0.1162 -0.3156
  911YOPE   D2A13416   8.979  10.912   6.782 -0.0710 -0.2866 -0.0104
  911YOPE   C3A13417   8.772  11.262   6.906 -0.1486  0.0894  0.0507
  911YOPE   C4A13418   8.770  11.466   7.222  0.3947  0.0195  0.2990
  911YOPE   C1B13419  10.056  10.598   7.099  0.2963 -0.0977 -0.0472
  911YOPE   C2B13420  10.163  10.892   7.500  0.1624 -0.0041 -0.0734
  911YOPE   D3B13421  10.301  10.911   7.900 -0.1096 -0.1568  0.1013
  911YOPE   C4B13422  10.225  11.110   8.272 -0.0391  0.3648  0.2556
  912YOPE   NH313423   0.234  11.831   5.911 -0.1719 -0.0483 -0.2029
  912YOPE   PO413424   0.256  11.514   6.239  0.1191  0.0854  0.2135
  912YOPE   GL113425   0.313  11.227   6.617 -0.1568  0.0047 -0.2592
  912YOPE   GL213426   0.145  10.887   6.596  0.1129 -0.1158 -0.0054
  912YOPE   C1A13427   0.296  11.343   6.974  0.3536 -0.2663  0.1797
  912YOPE   D2A13428   0.073  11.575   7.268  0.1333 -0.1093  0.0729
  912YOPE   C3A13429  -0.038  11.411   7.673 -0.0188  0.1023  0.0387
  912YOPE   C4A13430  -0.086  11.447   8.136  0.3061  0.1273  0.0678
  912YOPE   C1B13431   0.306  10.854   7.012 -0.0001  0.1335  0.3013
  912YOPE   C2B13432   0.185  10.866   7.489 -0.0151 -0.2269  0.2048
  912YOPE   D3B13433  -0.020  10.942   7.910 -0.0719 -0.0523 -0.2955
  912YOPE   C4B13434  -0.305  10.992   8.165  0.2224 -0.0856 -0.1354
  913YOPE   NH313435   1.454  16.559   5.935  0.0913 -0.0502  0.0907
  913YOPE   PO413436   1.492  16.212   5.842 -0.0030 -0.0121 -0.0898
  913YOPE   GL113437   1.659  16.309   6.278  0.1440 -0.0133 -0.0823
  913YOPE   GL213438   1.919  16.551   6.335 -0.1831  0.0276  0.1200
  913YOPE   C1A13439   1.723  16.362   6.767  0.1973 -0.2282 -0.1100
  913YOPE   D2A13440   1.887  16.139   7.071  0.0639 -0.3166  0.1608
  913YOPE   C3A13441   1.996  15.699   7.150 -0.2817 -0.3564  0.0539
  913YOPE   C4A13442   2.156  15.491   6.804  0.1479 -0.0452  0.2655
  913YOPE   C1B13443   2.180  16.184   6.516  0.2677 -0.0835 -0.0160
  913YOPE   C2B13444   2.324  16.171   6.887  0.0290  0.2266  0.1118
  913YOPE   D3B13445   2.290  16.283   7.353 -0.2633 -0.0403  0.1369
  913YOPE   C4B13446   2.162  16.495   7.786 -0.2287  0.4091 -0.2877
  914YOPE   NH313447   6.914  14.805   6.079  0.2574 -0.1455  0.0009
  914YOPE   PO413448   6.526  14.720   5.984 -0.3827  0.1356 -0.1889
  914YOPE   GL113449   6.537  14.758   6.435 -0.1194  0.2660  0.1618
  914YOPE   GL213450   6.799  14.786   6.552 -0.1974  0.3090 -0.1712
  914YOPE   C1A13451   6.492  14.806   6.921 -0.0490  0.0584  0.0296
  914YOPE   D2A13452   6.220  14.844   7.259 -0.0233  0.3128  0.1430
  914YOPE   C3A13453   6.140  14.441   7.496 -0.5510 -0.2658  0.2261
  914YOPE   C4A13454   6.084  14.126   7.791 -0.1096 -0.1839  0.1354
  914YOPE   C1B13455   6.744  14.387   6.879 -0.0770 -0.4548  0.1703
  914YOPE   C2B13456   6.635  14.106   7.229 -0.1551  0.0821  0.0595
  914YOPE   D3B13457   6.538  13.975   7.668 -0.0862  0.0073 -0.1618
  914YOPE   C4B13458   6.447  14.064   8.105  0.1617 -0.1237 -0.1937
  915YOPE   NH313459  13.532  16.418   6.638 -0.3492  0.1530 -0.2185
  915YOPE   PO413460  13.780  16.697   6.334 -0.3229 -0.0179 -0.3329
  915YOPE   GL113461  13.816  16.958   6.683 -0.1751 -0.0088 -0.3083
  915YOPE   GL213462  13.581  16.814   6.901  0.0170 -0.4262  0.0371
  915YOPE   C1A13463  13.870  17.248   7.086 -0.0344  0.2614 -0.1315
  915YOPE   D2A13464  13.806  17.322   7.515  0.0289 -0.0878  0.4211
  915YOPE   C3A13465  13.567  17.131   7.767  0.0634  0.2412 -0.1289
  915YOPE   C4A13466  13.513  16.775   8.024 -0.0779  0.1366  0.1009
  915YOPE   C1B13467  13.524  16.828   7.397 -0.0589 -0.0995  0.1172
  915YOPE   C2B13468  13.201  16.898   7.631  0.3191 -0.1096  0.1220
  915YOPE   D3B13469  13.022  16.764   8.014  0.0582 -0.0300  0.1893
  915YOPE   C4B13470  12.820  16.941   8.319 -0.1996 -0.1731 -0.1841
  916YOPE   NH313471   4.471   8.629   6.393 -0.0502 -0.1333 -0.0765
  916YOPE   PO413472   4.893   8.868   6.436  0.0808  0.0918  0.1022
  916YOPE   GL113473   4.922   8.981   6.869  0.0776  0.0073 -0.0303
  916YOPE   GL213474   4.855   9.295   6.992 -0.0382 -0.1055 -0.0615
  916YOPE   C1A13475   5.136   9.090   7.323 -0.1838 -0.2890  0.1137
  916YOPE   D2A13476   5.100   9.075   7.655 -0.0849 -0.0893 -0.0426
  916YOPE   C3A13477   5.106   8.795   8.078  0.1378 -0.0616  0.1836
  916YOPE   C4A13478   5.132   8.443   8.356  0.4027  0.3298 -0.2097
  916YOPE   C1B13479   4.672   9.258   7.486  0.0890  0.0058 -0.1488
  916YOPE   C2B13480   4.516   9.514   7.856  0.0697 -0.0527  0.1907
  916YOPE   D3B13481   4.324   9.806   8.188 -0.0574  0.3027  0.0293
  916YOPE   C4B13482   4.004  10.015   8.407 -0.2740 -0.1126  0.2411
  917YOPE   NH313483   1.217  14.192   5.969 -0.1842  0.0326  0.1557
  917YOPE   PO413484   1.506  14.502   6.042  0.0021 -0.2427  0.0816
  917YOPE   GL113485   1.287  14.343   6.435  0.0574 -0.0007  0.4692
  917YOPE   GL213486   1.525  14.421   6.558  0.1148 -0.0732 -0.2052
  917YOPE   C1A13487   1.120  14.452   6.813 -0.3131 -0.2361  0.1801
  917YOPE   D2A13488   0.764  14.598   7.038  0.0224 -0.1307 -0.3221
  917YOPE   C3A13489   0.821  14.634   7.407  0.3466  0.0619  0.1166
  917YOPE   C4A13490   0.702  15.081   7.570  0.0949  0.0592  0.0771
  917YOPE   C1B13491   1.586  14.208   6.950 -0.1017  0.1966 -0.1525
  917YOPE   C2B13492   1.255  14.369   7.252 -0.3905 -0.2924 -0.0074
  917YOPE   D3B13493   1.138  14.394   7.670  0.3863  0.2447 -0.1152
  917YOPE   C4B13494   0.704  14.472   7.905  0.2341  0.0590  0.3142
  918YOPE   NH313495   5.044   4.200   6.066 -0.2576 -0.0278 -0.2335
  918YOPE   PO413496   4.637   4.212   5.977  0.2436 -0.0368 -0.0752
  918YOPE   GL113497   4.402   4.253   6.304  0.0115 -0.1342  0.0089
  918YOPE   GL213498   4.184   4.011   6.319 -0.0201  0.2171  0.2868
  918YOPE   C1A13499   4.344   4.044   6.813 -0.0397  0.2449  0.0369
  918YOPE   D2A13500   4.427   3.860   7.124 -0.0174 -0.3663  0.3011
  918YOPE   C3A13501   4.700   3.533   7.266 -0.0721 -0.2313  0.0356
  918YOPE   C4A13502   4.637   3.416   7.675 -0.0766  0.0371  0.0056
  918YOPE   C1B13503   3.856   4.035   6.641 -0.3334 -0.1595 -0.1759
  918YOPE   C2B13504   3.990   4.162   7.136  0.0856 -0.0864 -0.2493
  918YOPE   D3B13505   4.275   4.430   7.167 -0.1053  0.2694  0.2964
  918YOPE   C4B13506   4.279   4.834   6.993  0.1734  0.2477 -0.1715
  919YOPE   NH313507   7.582   5.697   6.296 -0.3507  0.0115  0.3552
  919YOPE   PO413508   7.230   5.881   6.184  0.2869  0.4289 -0.0850
  919YOPE   GL113509   7.022   5.982   6.564  0.1044 -0.0383 -0.0742
  919YOPE   GL213510   6.718   5.893   6.563 -0.0230 -0.3505  0.3936
  919YOPE   C1A13511   6.968   5.740   6.959 -0.1263 -0.0997 -0.1287
  919YOPE   D2A13512   6.788   5.749   7.305 -0.2011 -0.2412 -0.2946
  919YOPE   C3A13513   6.919   5.563   7.703  0.1906  0.5204  0.1857
  919YOPE   C4A13514   7.108   5.787   8.063  0.1108 -0.0320 -0.3200
  919YOPE   C1B13515   6.526   5.899   6.909 -0.2415  0.0002  0.2314
  919YOPE   C2B13516   6.277   5.931   7.213 -0.0687 -0.0915  0.0386
  919YOPE   D3B13517   6.370   5.850   7.636  0.3078  0.1943 -0.3374
  919YOPE   C4B13518   6.027   5.835   8.016 -0.0861  0.0920 -0.1300
  920YOPE   NH313519   6.902  11.509   6.250  0.2660 -0.3731  0.0189
  920YOPE   PO413520   7.324  11.468   6.385  0.1559 -0.4456 -0.0940
  920YOPE   GL113521   7.195  11.167   6.706 -0.0017 -0.0942 -0.0747
  920YOPE   GL213522   7.315  10.875   6.790  0.0500  0.1367  0.1801
  920YOPE   C1A13523   6.951  11.196   7.137 -0.0561  0.1444 -0.1463
  920YOPE   D2A13524   6.951  11.244   7.604  0.1092 -0.1508 -0.2040
  920YOPE   C3A13525   6.679  11.338   8.006 -0.2885  0.1786 -0.2305
  920YOPE   C4A13526   6.377  11.198   8.281 -0.0507 -0.2412  0.0771
  920YOPE   C1B13527   7.309  10.964   7.293 -0.2887  0.3442 -0.0283
  920YOPE   C2B13528   7.408  11.016   7.651  0.2105  0.1327 -0.1347
  920YOPE   D3B13529   7.634  10.970   8.095  0.2333  0.1216 -0.0008
  920YOPE   C4B13530   8.041  11.077   8.303 -0.0729 -0.0303  0.1074
  921YOPE   NH313531   0.217  15.446   6.058  0.0437 -0.1137  0.2823
  921YOPE   PO413532   0.140  15.855   6.224  0.0269 -0.1129 -0.0832
  921YOPE   GL113533  -0.092  16.087   6.613  0.0164  0.0461 -0.3271
  921YOPE   GL213534  -0.364  16.369   6.640 -0.3064 -0.0218  0.1315
  921YOPE   C1A13535  -0.215  16.052   7.029 -0.0877 -0.0272  0.1685
  921YOPE   D2A13536  -0.313  15.705   7.271 -0.0817 -0.2513 -0.2387
  921YOPE   C3A13537  -0.119  15.723   7.576  0.1274  0.0407 -0.2881
  921YOPE   C4A13538  -0.129  15.541   7.960  0.0308  0.0541  0.0299
  921YOPE   C1B13539  -0.398  16.694   6.799  0.0854 -0.0166 -0.2028
  921YOPE   C2B13540  -0.368  16.801   7.263 -0.2920  0.0981  0.2154
  921YOPE   D3B13541  -0.631  16.676   7.597 -0.1157 -0.0964 -0.1390
  921YOPE   C4B13542  -0.728  16.537   8.004 -0.1534  0.0544 -0.3365
  922YOPE   NH313543  15.438   7.984   5.750  0.4575 -0.0628 -0.1816
  922YOPE   PO413544  14.942   7.881   5.717  0.1143 -0.2433 -0.3702
  922YOPE   GL113545  15.053   7.951   6.198 -0.2101  0.2559  0.0753
  922YOPE   GL213546  14.942   7.638   6.386 -0.0654  0.1489 -0.0127
  922YOPE   C1A13547  14.776   8.187   6.522  0.2863  0.0555 -0.1114
  922YOPE   D2A13548  14.593   8.338   6.955 -0.1559 -0.2472 -0.1643
  922YOPE   C3A13549  14.610   8.196   7.343  0.0085 -0.1767  0.1173
  922YOPE   C4A13550  14.706   8.163   7.684  0.0863 -0.2374 -0.3669
  922YOPE   C1B13551  15.028   7.633   6.796 -0.0578 -0.0984  0.0375
  922YOPE   C2B13552  14.995   7.715   7.181  0.3623  0.0331 -0.0191
  922YOPE   D3B13553  14.822   7.687   7.579  0.2198 -0.1883 -0.0302
  922YOPE   C4B13554  14.526   7.767   7.930 -0.0123  0.1173  0.1589
  923YOPE   NH313555  13.685   0.088   6.464 -0.3350  0.0387 -0.5739
  923YOPE   PO413556  13.840  -0.294   6.221  0.0525  0.1316  0.0895
  923YOPE   GL113557  13.895  -0.318   6.700 -0.0796  0.1522  0.0755
  923YOPE   GL213558  13.648  -0.175   6.894  0.2474 -0.1611  0.2894
  923YOPE   C1A13559  14.047  -0.104   7.145  0.0275 -0.0513  0.3554
  923YOPE   D2A13560  14.236  -0.192   7.585  0.1109 -0.0816  0.0045
  923YOPE   C3A13561  14.128  -0.616   7.850  0.0023  0.2626 -0.0902
  923YOPE   C4A13562  14.450  -0.968   7.914 -0.2666  0.1807  0.0508
  923YOPE   C1B13563  13.598  -0.139   7.353  0.0121  0.3673 -0.3226
  923YOPE   C2B13564  13.513  -0.249   7.850 -0.0169  0.0992 -0.0307
  923YOPE   D3B13565  13.355  -0.202   8.272 -0.2266  0.3182 -0.2767
  923YOPE   C4B13566  13.170   0.099   8.539  0.0095 -0.1506  0.1720
  924YOPE   NH313567   8.176  16.799   5.902  0.2944  0.2426 -0.1310
  924YOPE   PO413568   8.363  16.411   6.126  0.1842 -0.2261 -0.0539
  924YOPE   GL113569   8.386  16.850   6.339  0.0541 -0.0848  0.3474
  924YOPE   GL213570   8.608  17.056   6.235  0.1348 -0.2443 -0.2857
  924YOPE   C1A13571   8.448  16.988   6.743 -0.3601  0.1941  0.0120
  924YOPE   D2A13572   8.348  17.082   7.215 -0.4209 -0.0775  0.2182
  924YOPE   C3A13573   8.370  16.873   7.539  0.0830  0.1864  0.1105
  924YOPE   C4A13574   8.115  16.503   7.770 -0.0059  0.0217  0.0413
  924YOPE   C1B13575   8.972  17.037   6.557 -0.2571  0.0180 -0.2609
  924YOPE   C2B13576   9.100  17.033   6.952  0.1433 -0.3079 -0.1803
  924YOPE   D3B13577   9.260  17.203   7.360  0.1627 -0.0519  0.0034
  924YOPE   C4B13578   9.630  17.262   7.436 -0.0546 -0.2963 -0.0051
  925POPC   NC313579   2.099   7.832   6.239 -0.2156  0.0534  0.2630
  925POPC   PO413580   2.506   7.925   6.397  0.0486  0.1440  0.4824
  925POPC   GL113581   2.464   8.022   6.800  0.0239 -0.2458 -0.0628
  925POPC   GL213582   2.254   7.865   6.871 -0.1048  0.0154 -0.1132
  925POPC   C1A13583   2.721   8.258   7.181 -0.1442  0.0066  0.1816
  925POPC   D2A13584   2.691   8.357   7.645 -0.1585 -0.1818 -0.1859
  925POPC   C3A13585   2.431   8.436   7.958  0.0920 -0.0938  0.0668
  925POPC   C4A13586   2.402   8.727   8.297 -0.1166  0.0036 -0.1054
  925POPC   C1B13587   2.449   7.797   7.300 -0.0181  0.1542 -0.1219
  925POPC   C2B13588   2.550   7.843   7.720 -0.2235  0.0747 -0.1451
  925POPC   C3B13589   2.724   7.971   8.101  0.0726 -0.0888 -0.0184
  925POPC   C4B13590   2.772   8.103   8.515  0.0073 -0.1060 -0.2064
  926POPC   NC313591  14.386   9.626   5.869  0.4085 -0.3212  0.3198
  926POPC   PO413592  14.452  10.064   5.754 -0.0969 -0.3288 -0.1206
  926POPC   GL113593  14.323  10.225   6.143 -0.1445  0.2433 -0.0049
  926POPC   GL213594  14.430  10.541   6.143  0.0217  0.1483  0.1216
  926POPC   C1A13595  14.432  10.216   6.489 -0.0998  0.2872 -0.3253
  926POPC   D2A13596  14.442  10.285   6.956  0.2410 -0.0240  0.1210
  926POPC   C3A13597  14.406  10.689   7.025 -0.0595 -0.1862 -0.1880
  926POPC   C4A13598  14.532  10.956   7.402  0.0508  0.0334 -0.0485
  926POPC   C1B13599  14.245  10.683   6.516 -0.3759 -0.3240  0.0376
  926POPC   C2B13600  13.931  10.767   6.792  0.0056  0.1127 -0.3315
  926POPC   C3B13601  13.625  10.665   6.624  0.1438 -0.0169  0.2499
  926POPC   C4B13602  13.216  10.836   6.454  0.1706  0.0890 -0.1695
  927POPC   NC313603  15.153   9.514   6.119 -0.1928 -0.0335  0.2224
  927POPC   PO413604  14.841   9.245   6.067  0.0476  0.0006 -0.1577
  927POPC   GL113605  14.685   8.970   6.392  0.2440  0.1002  0.0839
  927POPC   GL213606  14.763   8.688   6.322 -0.0695  0.0542  0.0035
  927POPC   C1A13607  14.654   9.086   6.818 -0.0456 -0.0927  0.2877
  927POPC   D2A13608  14.751   9.079   7.267  0.3337 -0.1689  0.0958
  927POPC   C3A13609  14.490   9.133   7.658  0.1915 -0.2087 -0.0970
  927POPC   C4A13610  14.571   9.522   7.931  0.2023  0.0854 -0.0317
  927POPC   C1B13611  14.943   8.665   6.639  0.1998 -0.2184 -0.1784
  927POPC   C2B13612  15.006   8.662   7.127 -0.0507  0.2448  0.3214
  927POPC   C3B13613  14.880   8.597   7.500  0.1313  0.0061  0.0428
  927POPC   C4B13614  14.807   8.687   7.888  0.1375 -0.2023  0.3690
  928POPC   NC313615   6.088   9.409   6.297  0.3363  0.1348 -0.0425
  928POPC   PO413616   5.647   9.612   6.339  0.1070 -0.0350 -0.4185
  928POPC   GL113617   5.702   9.412   6.759  0.3884 -0.0735 -0.0570
  928POPC   GL213618   5.403   9.159   6.874 -0.0437 -0.1097 -0.1549
  928POPC   C1A13619   6.024   9.288   7.017 -0.0761 -0.2724 -0.2233
  928POPC   D2A13620   6.454   9.185   7.226 -0.0039 -0.1762 -0.0097
  928POPC   C3A13621   6.437   9.057   7.654  0.1041  0.0747  0.2107
  928POPC   C4A13622   6.416   8.875   8.094  0.0935 -0.0859 -0.0887
  928POPC   C1B13623   5.620   9.216   7.294  0.0281  0.2243  0.0426
  928POPC   C2B13624   5.568   9.276   7.780  0.0751  0.5333  0.1514
  928POPC   C3B13625   5.450   9.159   8.146  0.1099  0.0906  0.0525
  928POPC   C4B13626   5.480   8.791   8.498  0.1967 -0.0420  0.1667
  929POPC   NC313627  13.531  14.955   5.756 -0.1209  0.1369  0.2628
  929POPC   PO413628  13.678  14.685   6.038  0.0339 -0.0979  0.1789
  929POPC   GL113629  13.690  14.669   6.497  0.0064  0.0150 -0.1600
  929POPC   GL213630  13.815  14.981   6.768  0.1105  0.0999 -0.1229
  929POPC   C1A13631  13.456  14.435   6.810 -0.2471  0.1171  0.0313
  929POPC   D2A13632  13.377  14.078   6.895 -0.1990  0.1063 -0.0069
  929POPC   C3A13633  13.566  13.919   7.239 -0.0438 -0.1556 -0.1655
  929POPC   C4A13634  13.741  13.855   7.622 -0.1578  0.0588 -0.2923
  929POPC   C1B13635  13.860  15.005   7.248 -0.1103 -0.1547 -0.2252
  929POPC   C2B13636  13.743  15.261   7.605  0.0681 -0.0691  0.0412
  929POPC   C3B13637  14.005  15.192   7.940 -0.0870 -0.2055 -0.2534
  929POPC   C4B13638  14.071  15.004   8.405 -0.0441 -0.0760  0.2313
  930POPC   NC313639   8.953   0.852   5.790  0.1312 -0.2991  0.1560
  930POPC   PO413640   9.365   1.150   5.654  0.3617  0.0538  0.0705
  930POPC   GL113641   9.425   1.165   6.044 -0.1829  0.0995 -0.2293
  930POPC   GL213642   9.707   1.017   6.054 -0.0743  0.1880  0.3129
  930POPC   C1A13643   9.342   1.341   6.462  0.0954 -0.0871  0.1380
  930POPC   D2A13644   9.380   1.722   6.567  0.0509 -0.0694 -0.2420
  930POPC   C3A13645   9.389   1.851   6.929 -0.0815 -0.1601 -0.0773
  930POPC   C4A13646   9.311   1.791   7.346  0.3008  0.0145  0.0077
  930POPC   C1B13647   9.417   0.838   6.386  0.0928  0.2548 -0.1330
  930POPC   C2B13648   9.429   0.925   6.811  0.1145  0.0992 -0.1566
  930POPC   C3B13649   9.433   0.795   7.215  0.0511  0.2315 -0.4026
  930POPC   C4B13650   9.404   0.886   7.760  0.2463 -0.0395  0.1868
  931POPC   NC313651  13.775   1.899   6.212  0.0654 -0.0150  0.3776
  931POPC   PO413652  13.552   2.301   6.413  0.0299  0.2829 -0.1404
  931POPC   GL113653  13.624   2.141   6.738  0.2368 -0.1522 -0.2280
  931POPC   GL213654  13.701   2.336   7.005 -0.0150 -0.3820 -0.1103
  931POPC   C1A13655  13.626   1.728   6.943 -0.1614 -0.0520 -0.1519
  931POPC   D2A13656  13.531   1.303   7.321 -0.1113  0.1721  0.0960
  931POPC   C3A13657  13.399   1.158   7.770 -0.2387  0.3175 -0.0243
  931POPC   C4A13658  13.175   1.142   8.072 -0.2017  0.4678 -0.1268
  931POPC   C1B13659  13.631   2.065   7.383 -0.0205 -0.0520 -0.3382
  931POPC   C2B13660  13.293   1.993   7.705  0.0573 -0.1532 -0.0783
  931POPC   C3B13661  12.978   2.157   8.016 -0.0893  0.0391 -0.0998
  931POPC   C4B13662  12.760   2.401   8.294  0.3375  0.1861 -0.1629
  932POPC   NC313663  11.753   4.379   6.327  0.0525 -0.0255 -0.1306
  932POPC   PO413664  12.121   3.994   6.300 -0.2203  0.1745 -0.0187
  932POPC   GL113665  12.238   3.992   6.668 -0.1089  0.0721 -0.1574
  932POPC   GL213666  12.622   3.858   6.756  0.1670  0.1006  0.0300
  932POPC   C1A13667  12.087   3.803   7.002 -0.2131 -0.3057 -0.0557
  932POPC   D2A13668  12.022   3.977   7.395  0.1571  0.2421  0.1192
  932POPC   C3A13669  11.608   3.953   7.556 -0.2824  0.1943 -0.2282
  932POPC   C4A13670  11.181   4.144   7.551 -0.1546 -0.3827  0.1672
  932POPC   C1B13671  12.681   3.574   7.136  0.1787 -0.3405  0.0681
  932POPC   C2B13672  12.365   3.516   7.409  0.0586 -0.1757 -0.1135
  932POPC   C3B13673  12.098   3.605   7.760  0.1739  0.0706 -0.0385
  932POPC   C4B13674  11.773   3.531   7.840 -0.1760  0.1718 -0.1726
  933POPC   NC313675   0.177   4.572   6.244 -0.1641 -0.0524  0.1466
  933POPC   PO413676  -0.266   4.493   6.299  0.0238  0.0246 -0.1664
  933POPC   GL113677  -0.070   4.491   6.674  0.1362 -0.0322  0.1737
  933POPC   GL213678   0.089   4.278   6.684 -0.1416 -0.1410 -0.0784
  933POPC   C1A13679  -0.007   4.648   7.160 -0.2695 -0.2145  0.4104
  933POPC   D2A13680   0.149   4.995   7.144  0.4742  0.0877  0.0358
  933POPC   C3A13681   0.182   5.126   7.541 -0.1403  0.0001 -0.0868
  933POPC   C4A13682   0.444   5.226   7.915  0.0341 -0.1702  0.1666
  933POPC   C1B13683   0.235   4.241   7.060  0.1710 -0.3505  0.0608
  933POPC   C2B13684   0.366   3.984   7.356  0.2416 -0.0776  0.2501
  933POPC   C3B13685   0.257   3.879   7.782  0.2892  0.1730  0.1363
  933POPC   C4B13686  -0.028   3.691   8.062  0.0654 -0.1362  0.2320
  934POPC   NC313687  11.562   3.889   6.388 -0.1144  0.3194  0.0439
  934POPC   PO413688  11.267   4.344   6.386 -0.2616 -0.4437 -0.3112
  934POPC   GL113689  11.234   4.344   6.762  0.1371  0.0065 -0.4949
  934POPC   GL213690  10.873   4.239   6.917 -0.0078  0.0638  0.1529
  934POPC   C1A13691  11.352   4.485   7.189 -0.3443 -0.0128 -0.0497
  934POPC   D2A13692  11.601   4.473   7.551 -0.1359 -0.1077 -0.2125
  934POPC   C3A13693  11.971   4.257   7.805  0.1181 -0.3155  0.0492
  934POPC   C4A13694  12.054   4.043   8.012 -0.2352  0.4180  0.0237
  934POPC   C1B13695  10.744   4.110   7.358 -0.1485 -0.1248  0.3961
  934POPC   C2B13696  10.658   4.110   7.721 -0.2427 -0.1899 -0.0123
  934POPC   C3B13697  10.913   4.223   8.004  0.2882 -0.1665 -0.0786
  934POPC   C4B13698  11.047   4.030   8.368  0.0983 -0.1551 -0.2431
  935POPC   NC313699  11.948   0.275   6.294  0.0354  0.0527 -0.2161
  935POPC   PO413700  12.364   0.227   6.538 -0.0162 -0.1070  0.3617
  935POPC   GL113701  12.358  -0.044   6.954 -0.2812  0.0969 -0.0372
  935POPC   GL213702  12.096  -0.221   6.826  0.0307  0.0757  0.0579
  935POPC   C1A13703  12.140   0.016   7.423  0.0268 -0.1032  0.2102
  935POPC   D2A13704  11.941   0.002   7.829 -0.0128  0.2097 -0.0802
  935POPC   C3A13705  11.884   0.307   8.067  0.1254 -0.0862 -0.1423
  935POPC   C4A13706  11.800   0.337   8.557  0.0154  0.2889 -0.1177
  935POPC   C1B13707  11.843  -0.217   7.101 -0.2169  0.1808  0.1836
  935POPC   C2B13708  11.697  -0.289   7.494  0.0640 -0.3119 -0.0115
  935POPC   C3B13709  11.683  -0.507   7.966  0.2033 -0.0722 -0.1331
  935POPC   C4B13710  11.908  -0.230   8.335 -0.2241  0.2058  0.0001
  936POPC   NC313711   4.775  12.611   5.612 -0.1397 -0.0381  0.1352
  936POPC   PO413712   4.716  12.722   6.061 -0.3366 -0.0693 -0.0212
  936POPC   GL113713   4.846  12.989   6.441  0.2285  0.3909  0.2491
  936POPC   GL213714   4.569  13.141   6.411  0.0974 -0.1950  0.0445
  936POPC   C1A13715   5.009  12.814   6.806 -0.3274  0.0471  0.2250
  936POPC   D2A13716   5.285  12.860   7.124 -0.0256 -0.0826  0.0549
  936POPC   C3A13717   5.593  12.523   7.227  0.1789 -0.1304  0.0151
  936POPC   C4A13718   5.677  12.316   7.657  0.2676  0.1137  0.2129
  936POPC   C1B13719   4.486  13.004   6.832  0.2690  0.3953 -0.0195
  936POPC   C2B13720   4.371  12.849   7.174 -0.0958 -0.0530 -0.0812
  936POPC   C3B13721   4.528  12.762   7.637 -0.0508  0.2326 -0.0136
  936POPC   C4B13722   4.800  12.588   7.875 -0.4304  0.0396 -0.1929
  937POPC   NC313723  14.492   5.189   6.054  0.1336  0.2609 -0.0116
  937POPC   PO413724  14.839   5.332   6.215  0.0091  0.0090 -0.0096
  937POPC   GL113725  15.083   5.609   6.585 -0.2399  0.0217  0.0685
  937POPC   GL213726  14.872   5.860   6.797  0.1099  0.0658  0.1890
  937POPC   C1A13727  15.235   5.646   7.015  0.0843 -0.1013 -0.1378
  937POPC   D2A13728  15.163   5.887   7.377 -0.1338  0.0613  0.3877
  937POPC   C3A13729  15.343   5.549   7.593 -0.1112  0.0389  0.1383
  937POPC   C4A13730  15.521   5.120   7.687 -0.0728  0.3889 -0.0431
  937POPC   C1B13731  14.748   5.528   7.100  0.0683  0.0134  0.1226
  937POPC   C2B13732  14.923   5.290   7.523  0.2364  0.0203  0.1580
  937POPC   C3B13733  15.050   5.268   7.938  0.1490  0.0528  0.2397
  937POPC   C4B13734  15.273   5.185   8.193  0.3445  0.1446 -0.0269
  938POPC   NC313735  11.378   6.210   6.153 -0.3406  0.1351 -0.1378
  938POPC   PO413736  11.521   5.783   6.146 -0.0489  0.3189  0.0330
  938POPC   GL113737  11.496   5.641   6.537 -0.0050 -0.1007  0.1046
  938POPC   GL213738  11.606   5.331   6.717 -0.0561  0.3410 -0.0328
  938POPC   C1A13739  11.718   5.778   6.841  0.2534 -0.1300  0.2415
  938POPC   D2A13740  11.720   5.881   7.304 -0.2749 -0.1374  0.0877
  938POPC   C3A13741  11.756   6.369   7.544  0.2370  0.1901 -0.1815
  938POPC   C4A13742  11.711   6.614   8.020  0.0049 -0.1857 -0.0233
  938POPC   C1B13743  11.595   5.334   7.042 -0.2078  0.2404 -0.2325
  938POPC   C2B13744  11.598   5.462   7.543  0.0854 -0.0184 -0.0976
  938POPC   C3B13745  11.739   5.228   7.927  0.2244 -0.0416 -0.0403
  938POPC   C4B13746  11.748   4.751   8.015  0.0598 -0.2041  0.0233
  939POPC   NC313747   7.978  11.125   6.309  0.3233  0.0361  0.0207
  939POPC   PO413748   7.678  11.104   6.452  0.0466  0.3181 -0.0584
  939POPC   GL113749   7.737  11.098   6.865  0.2249  0.1581  0.0946
  939POPC   GL213750   7.839  10.804   6.909 -0.3348  0.1109 -0.2816
  939POPC   C1A13751   7.735  11.200   7.329  0.0103  0.2562  0.1330
  939POPC   D2A13752   7.796  11.272   7.761 -0.0087  0.1215  0.0884
  939POPC   C3A13753   8.185  11.364   7.870  0.2236 -0.1372  0.0681
  939POPC   C4A13754   8.520  11.465   8.028  0.1986  0.0039 -0.3151
  939POPC   C1B13755   7.714  10.662   7.295 -0.0317  0.2425 -0.0501
  939POPC   C2B13756   7.562  10.508   7.585 -0.0127  0.1298  0.2672
  939POPC   C3B13757   7.687  10.341   7.939  0.3185  0.1930 -0.2536
  939POPC   C4B13758   7.796   9.921   8.145 -0.1874  0.1053 -0.0617
  940POPC   NC313759   4.277  17.155   6.003 -0.0281  0.0778  0.1718
  940POPC   PO413760   4.563  17.481   6.163 -0.1052  0.2200  0.1649
  940POPC   GL113761   4.191  17.334   6.476 -0.1487 -0.0044 -0.0875
  940POPC   GL213762   4.258  17.594   6.708  0.0348 -0.2641 -0.0124
  940POPC   C1A13763   3.965  17.170   6.806  0.0031  0.2813 -0.0019
  940POPC   D2A13764   3.886  17.242   7.177  0.0087  0.0845  0.2762
  940POPC   C3A13765   3.955  17.021   7.539  0.1448  0.1508  0.2001
  940POPC   C4A13766   4.004  16.785   7.861 -0.1617  0.2274 -0.1247
  940POPC   C1B13767   4.219  17.685   7.146 -0.0211  0.1696 -0.0901
  940POPC   C2B13768   4.475  17.689   7.600  0.0364 -0.1646 -0.2087
  940POPC   C3B13769   4.410  17.816   7.959  0.1193 -0.1747 -0.0742
  940POPC   C4B13770   4.287  18.229   8.157 -0.1329  0.2774 -0.0639
  941POPC   NC313771  17.658  14.845   5.847 -0.0548 -0.0478 -0.1776
  941POPC   PO413772  17.772  14.433   5.811  0.1028 -0.0174  0.0430
  941POPC   GL113773  17.822  14.283   6.241 -0.1243 -0.0104 -0.0128
  941POPC   GL213774  18.175  14.492   6.366  0.2398 -0.0020 -0.1809
  941POPC   C1A13775  17.648  13.942   6.517  0.2758  0.2070  0.0087
  941POPC   D2A13776  17.319  13.809   6.795  0.0648  0.1184 -0.0046
  941POPC   C3A13777  17.439  13.761   7.216 -0.0306  0.0879  0.1980
  941POPC   C4A13778  17.428  13.804   7.574  0.3394  0.1368 -0.1258
  941POPC   C1B13779  18.176  14.607   6.788  0.0643  0.1641 -0.0150
  941POPC   C2B13780  18.213  14.881   7.278 -0.3474  0.1084  0.0787
  941POPC   C3B13781  18.134  14.751   7.705 -0.3856  0.2179  0.4636
  941POPC   C4B13782  18.272  14.774   8.160 -0.1881 -0.2728 -0.0575
  942POPC   NC313783  17.223   0.746   6.383 -0.0467  0.0646  0.0596
  942POPC   PO413784  17.075   0.278   6.410 -0.0385  0.0551  0.2675
  942POPC   GL113785  17.274   0.358   6.722 -0.0559  0.1124  0.1163
  942POPC   GL213786  17.137   0.222   6.905 -0.1038 -0.2120 -0.1459
  942POPC   C1A13787  17.552   0.441   7.095 -0.2000 -0.0368  0.0933
  942POPC   D2A13788  17.737   0.453   7.434  0.1337 -0.2499 -0.1638
  942POPC   C3A13789  17.452   0.460   7.922  0.1675 -0.0265 -0.1251
  942POPC   C4A13790  17.380   0.208   8.296  0.1306 -0.1040 -0.2008
  942POPC   C1B13791  17.266   0.185   7.374  0.0287 -0.0030  0.0183
  942POPC   C2B13792  17.522   0.027   7.678  0.1404 -0.1015  0.3056
  942POPC   C3B13793  17.757  -0.021   8.004 -0.1695  0.0238 -0.2913
  942POPC   C4B13794  17.906  -0.176   8.399 -0.1852 -0.0018 -0.1470
  943POPC   NC313795   0.667   9.460   6.311 -0.1324 -0.1160 -0.0854
  943POPC   PO413796   1.051   9.264   6.559  0.0992 -0.1939  0.1068
  943POPC   GL113797   0.689   9.296   6.827  0.0751  0.3227  0.1091
  943POPC   GL213798   0.522   9.496   6.762  0.1966 -0.1398 -0.0404
  943POPC   C1A13799   0.577   9.407   7.278  0.2291 -0.0373  0.1540
  943POPC   D2A13800   0.215   9.499   7.552 -0.1419  0.0001  0.0099
  943POPC   C3A13801   0.145   9.425   8.033 -0.1157  0.1868  0.0860
  943POPC   C4A13802   0.029   9.297   8.431  0.1858 -0.0690  0.1954
  943POPC   C1B13803   0.057   9.532   7.092 -0.0136 -0.0966 -0.1055
  943POPC   C2B13804  -0.232   9.401   7.412 -0.4490 -0.0365  0.2413
  943POPC   C3B13805  -0.303   9.368   7.847  0.0192 -0.1359 -0.1371
  943POPC   C4B13806  -0.357   9.812   8.069  0.0424 -0.1100 -0.0447
  944POPC   NC313807   6.082   5.924   5.913  0.1707 -0.2817  0.1650
  944POPC   PO413808   5.710   5.831   6.060 -0.2422 -0.0129 -0.3752
  944POPC   GL113809   5.607   5.722   6.445  0.4389  0.1374  0.3234
  944POPC   GL213810   5.366   5.914   6.513  0.0914  0.2743 -0.1060
  944POPC   C1A13811   5.580   5.456   6.750  0.0109 -0.1048 -0.0084
  944POPC   D2A13812   5.658   5.219   7.161  0.1167  0.0781 -0.3635
  944POPC   C3A13813   5.376   5.092   7.447  0.1504  0.0553 -0.1238
  944POPC   C4A13814   5.019   5.013   7.775 -0.0312 -0.0555  0.3974
  944POPC   C1B13815   5.470   5.964   6.937 -0.0224  0.1197  0.4497
  944POPC   C2B13816   5.440   6.049   7.345  0.1807  0.2994 -0.0397
  944POPC   C3B13817   5.474   5.855   7.743 -0.0500  0.1901 -0.3731
  944POPC   C4B13818   5.511   5.753   8.135  0.2300  0.2401 -0.2264
  945POPC   NC313819  12.856  13.265   5.911  0.1877 -0.0506 -0.2301
  945POPC   PO413820  12.944  13.123   6.223  0.1486 -0.1856  0.0861
  945POPC   GL113821  12.926  13.001   6.636  0.5070 -0.1538 -0.2187
  945POPC   GL213822  13.099  12.711   6.752 -0.1618 -0.0834 -0.2086
  945POPC   C1A13823  12.792  13.036   7.034 -0.2747  0.0028  0.1006
  945POPC   D2A13824  12.940  13.067   7.390  0.2159  0.2499 -0.2302
  945POPC   C3A13825  12.689  13.113   7.784 -0.1954  0.0536  0.0456
  945POPC   C4A13826  12.417  13.372   7.986 -0.0460  0.1236  0.0710
  945POPC   C1B13827  13.313  12.916   7.017  0.0231 -0.0780  0.0905
  945POPC   C2B13828  13.547  12.944   7.371 -0.0353 -0.1652 -0.1001
  945POPC   C3B13829  13.866  13.051   7.568 -0.1904  0.0315 -0.4023
  945POPC   C4B13830  14.134  13.399   7.555  0.0556  0.3362 -0.0082
  946POPC   NC313831   9.396  11.142   5.497  0.2686 -0.0475  0.0656
  946POPC   PO413832   9.339  10.994   5.938  0.3066 -0.1501 -0.1003
  946POPC   GL113833   9.499  11.113   6.421 -0.1510  0.0700  0.1255
  946POPC   GL213834   9.677  10.919   6.615  0.2243  0.0780  0.2534
  946POPC   C1A13835   9.360  11.367   6.797  0.0977  0.0344 -0.0797
  946POPC   D2A13836   9.260  11.381   7.215 -0.2898  0.0794 -0.1474
  946POPC   C3A13837   9.443  11.551   7.471 -0.0756  0.0827 -0.0494
  946POPC   C4A13838   9.539  11.513   7.846 -0.3778  0.1090  0.0958
  946POPC   C1B13839   9.656  11.086   7.145 -0.3944 -0.1162  0.3234
  946POPC   C2B13840   9.739  11.172   7.582 -0.3610  0.0492  0.3551
  946POPC   C3B13841   9.778  11.103   7.992 -0.1304 -0.1056 -0.2592
  946POPC   C4B13842   9.786  10.945   8.503 -0.4093 -0.0123  0.1088
  947POPC   NC313843   3.243  15.913   6.280  0.0048 -0.0565 -0.0644
  947POPC   PO413844   3.614  16.181   6.172  0.2204  0.3056 -0.2504
  947POPC   GL113845   3.865  16.320   6.557 -0.2658  0.1544 -0.1788
  947POPC   GL213846   4.122  16.096   6.640 -0.0693 -0.2379 -0.0934
  947POPC   C1A13847   3.797  16.317   6.938 -0.0919  0.0003  0.1225
  947POPC   D2A13848   3.561  16.255   7.239 -0.1368  0.1875  0.0657
  947POPC   C3A13849   3.167  16.457   7.228  0.2125 -0.0238  0.2789
  947POPC   C4A13850   2.999  16.913   7.097  0.1204  0.0249  0.0155
  947POPC   C1B13851   4.257  16.213   7.073 -0.4020 -0.0235 -0.0506
  947POPC   C2B13852   4.378  16.116   7.483 -0.0309 -0.1899  0.1948
  947POPC   C3B13853   4.833  16.117   7.613 -0.0996 -0.0747 -0.1965
  947POPC   C4B13854   5.107  16.151   7.999  0.1320 -0.2631 -0.3409
  948POPC   NC313855   5.871   0.180   5.740 -0.3274 -0.2313 -0.1027
  948POPC   PO413856   6.235   0.231   6.122  0.0673  0.2583  0.0677
  948POPC   GL113857   5.957   0.007   6.492 -0.0680 -0.3706  0.0043
  948POPC   GL213858   6.195  -0.234   6.505 -0.0957 -0.0104  0.3492
  948POPC   C1A13859   5.673  -0.263   6.734 -0.0876  0.2003  0.1808
  948POPC   D2A13860   5.315  -0.496   6.644 -0.2339 -0.2729  0.1894
  948POPC   C3A13861   4.990  -0.486   6.864  0.0335  0.0430 -0.0132
  948POPC   C4A13862   4.814  -0.325   7.253 -0.0975  0.0493 -0.2751
  948POPC   C1B13863   6.132  -0.266   6.871  0.1096  0.0600  0.1581
  948POPC   C2B13864   6.493  -0.258   7.093  0.0267 -0.0023 -0.1310
  948POPC   C3B13865   6.763  -0.059   7.392 -0.2969 -0.1139 -0.0108
  948POPC   C4B13866   6.990  -0.048   7.771  0.1721  0.0884  0.1024
  949POPC   NC313867   0.295  10.071   5.588  0.0009 -0.3239 -0.2008
  949POPC   PO413868   0.496   9.943   5.951 -0.4124  0.1671 -0.0378
  949POPC   GL113869   0.410  10.098   6.396 -0.0098 -0.0834 -0.4461
  949POPC   GL213870   0.307  10.390   6.263 -0.3768 -0.1193 -0.1299
  949POPC   C1A13871   0.259   9.948   6.799  0.1339  0.0556 -0.2784
  949POPC   D2A13872   0.412   9.884   7.320  0.0534 -0.2796  0.2059
  949POPC   C3A13873   0.571  10.033   7.705 -0.2110 -0.0319  0.2379
  949POPC   C4A13874   0.596  10.258   7.975 -0.1783 -0.0942 -0.0353
  949POPC   C1B13875   0.341  10.459   6.695 -0.0696  0.3471 -0.0673
  949POPC   C2B13876   0.333  10.379   7.138 -0.0238 -0.1896  0.1129
  949POPC   C3B13877   0.226  10.317   7.549 -0.2557 -0.1821 -0.0272
  949POPC   C4B13878   0.167  10.500   7.949  0.0230  0.0792  0.0729
  950POPC   NC313879  15.022   0.537   6.403  0.3770  0.0399 -0.2376
  950POPC   PO413880  14.651   0.212   6.485  0.3083  0.2914  0.1381
  950POPC   GL113881  14.629  -0.017   6.818 -0.4269  0.4295  0.0825
  950POPC   GL213882  14.423  -0.255   6.789 -0.0786 -0.0842  0.0016
  950POPC   C1A13883  14.631  -0.024   7.229 -0.2862 -0.2274  0.2994
  950POPC   D2A13884  14.719  -0.038   7.663  0.1267 -0.0762  0.0429
  950POPC   C3A13885  14.597  -0.294   8.042 -0.1572 -0.0180  0.0867
  950POPC   C4A13886  14.332  -0.558   8.264 -0.0310 -0.4355 -0.0681
  950POPC   C1B13887  14.313  -0.546   7.180 -0.0844  0.1306 -0.1129
  950POPC   C2B13888  14.626  -0.570   7.573 -0.0329 -0.1089  0.1016
  950POPC   C3B13889  14.964  -0.674   7.818  0.0832 -0.2109  0.0510
  950POPC   C4B13890  15.396  -0.814   7.773  0.2439  0.0672 -0.0180
  951POPC   NC313891  14.839   3.853   5.934 -0.1767  0.1940  0.1668
  951POPC   PO413892  15.295   3.935   6.040  0.2669 -0.0074  0.3070
  951POPC   GL113893  15.256   4.085   6.438 -0.0139 -0.0695 -0.1793
  951POPC   GL213894  15.334   4.459   6.397 -0.0770 -0.0410 -0.1416
  951POPC   C1A13895  15.090   4.251   6.858  0.1063 -0.0353 -0.0355
  951POPC   D2A13896  15.244   4.657   7.093 -0.0891 -0.1879  0.2772
  951POPC   C3A13897  15.180   4.783   7.566 -0.1377 -0.2532  0.2140
  951POPC   C4A13898  15.140   4.782   8.004 -0.0951  0.1841  0.2468
  951POPC   C1B13899  15.580   4.447   6.675  0.0780 -0.3250  0.2946
  951POPC   C2B13900  16.002   4.384   6.792 -0.0933 -0.2816 -0.1093
  951POPC   C3B13901  16.371   4.266   6.954  0.1200 -0.0946  0.0633
  951POPC   C4B13902  16.461   4.314   7.404  0.1127  0.0676 -0.2907
  952POPC   NC313903   4.873   2.254   6.015 -0.3689 -0.2291  0.0080
  952POPC   PO413904   5.285   2.278   6.156 -0.0235  0.2697 -0.0692
  952POPC   GL113905   5.570   1.936   6.344  0.1429 -0.1095 -0.2181
  952POPC   GL213906   5.931   1.918   6.335  0.0759 -0.2707 -0.0393
  952POPC   C1A13907   5.591   1.807   6.755 -0.0631 -0.1450 -0.0462
  952POPC   D2A13908   5.713   1.423   6.926 -0.1007 -0.1249  0.0688
  952POPC   C3A13909   5.743   1.278   7.343 -0.0246  0.1772 -0.0105
  952POPC   C4A13910   5.994   1.033   7.579 -0.2389  0.0672 -0.0709
  952POPC   C1B13911   6.262   2.152   6.549 -0.3841 -0.2501 -0.0456
  952POPC   C2B13912   6.511   2.379   6.748 -0.0952 -0.2018 -0.2483
  952POPC   C3B13913   7.024   2.295   6.677 -0.0847 -0.3256  0.2474
  952POPC   C4B13914   7.453   2.425   6.647 -0.0962 -0.1039  0.1503
  953POPC   NC313915   3.564   8.676   6.200  0.1585  0.3249  0.2129
  953POPC   PO413916   3.500   9.022   6.471  0.2646  0.0814  0.0119
  953POPC   GL113917   3.533   9.073   6.876 -0.1283 -0.0053  0.1837
  953POPC   GL213918   3.268   9.327   6.920  0.1600 -0.2855 -0.0448
  953POPC   C1A13919   3.646   9.211   7.293  0.1622 -0.3901 -0.0099
  953POPC   D2A13920   3.572   9.232   7.794 -0.1470  0.0197 -0.0205
  953POPC   C3A13921   3.330   9.033   8.103 -0.1538 -0.0159  0.0254
  953POPC   C4A13922   3.447   8.873   8.538 -0.1096  0.0982 -0.0227
  953POPC   C1B13923   3.240   9.472   7.314  0.3792 -0.1916  0.1280
  953POPC   C2B13924   3.116   9.651   7.694 -0.0774  0.0141  0.1332
  953POPC   C3B13925   3.143   9.561   8.136  0.0625  0.1463  0.2534
  953POPC   C4B13926   3.137   9.276   8.508  0.1039  0.2655  0.0152
  954POPC   NC313927  17.427  10.552   5.835 -0.3859 -0.0001 -0.1146
  954POPC   PO413928  17.029  10.829   5.968  0.0015 -0.0970 -0.1458
  954POPC   GL113929  16.935  10.971   6.414  0.1782 -0.2216  0.0463
  954POPC   GL213930  17.115  11.241   6.618 -0.0209 -0.1188  0.1269
  954POPC   C1A13931  17.111  10.809   6.860  0.0411 -0.1154  0.1200
  954POPC   D2A13932  17.207  10.558   7.214 -0.1757  0.1713  0.3399
  954POPC   C3A13933  17.118  10.634   7.526  0.0560 -0.1065  0.1864
  954POPC   C4A13934  17.244  10.664   7.898  0.2475  0.1546  0.0629
  954POPC   C1B13935  17.042  11.312   7.008 -0.0612 -0.1535 -0.0327
  954POPC   C2B13936  16.899  11.045   7.376  0.1387  0.2512 -0.3534
  954POPC   C3B13937  16.770  10.922   7.833 -0.0786 -0.0357  0.0752
  954POPC   C4B13938  16.713  10.487   8.112  0.2234  0.1028 -0.1819
  955POPC   NC313939   8.736   5.718   5.933 -0.0272  0.3228  0.1341
  955POPC   PO413940   8.990   5.312   6.055 -0.1658 -0.2007 -0.0432
  955POPC   GL113941   8.875   5.493   6.394 -0.1704 -0.0570 -0.2675
  955POPC   GL213942   8.896   5.237   6.643  0.1237  0.2412 -0.0414
  955POPC   C1A13943   8.621   5.585   6.803  0.1878  0.2751  0.1063
  955POPC   D2A13944   8.657   5.568   7.225  0.1640 -0.1965  0.1235
  955POPC   C3A13945   8.730   5.509   7.603 -0.0486  0.0425 -0.1323
  955POPC   C4A13946   8.603   5.684   7.994  0.2946 -0.1107 -0.1176
  955POPC   C1B13947   8.868   5.153   7.021  0.3768 -0.1542 -0.2023
  955POPC   C2B13948   9.049   5.195   7.438  0.2296  0.1174  0.1259
  955POPC   C3B13949   9.175   5.284   7.700  0.1372  0.1705  0.2176
  955POPC   C4B13950   9.581   5.449   7.835 -0.0019  0.2519 -0.2709
  956POPC   NC313951   4.869   6.930   6.071  0.1902  0.3367 -0.0720
  956POPC   PO413952   5.127   7.012   6.326 -0.4116 -0.0776  0.1238
  956POPC   GL113953   4.841   7.122   6.666  0.1707  0.1971  0.0387
  956POPC   GL213954   4.916   7.221   6.925  0.0129  0.0689 -0.0781
  956POPC   C1A13955   4.467   6.905   6.920 -0.0589 -0.2606 -0.3005
  956POPC   D2A13956   4.270   6.911   7.401  0.1782  0.0510 -0.0705
  956POPC   C3A13957   4.320   6.858   7.867 -0.0846  0.1362  0.0834
  956POPC   C4A13958   4.361   6.973   8.366  0.0655  0.1869  0.1684
  956POPC   C1B13959   4.793   7.095   7.345 -0.0266  0.1230  0.0134
  956POPC   C2B13960   4.909   6.955   7.788 -0.1798 -0.1522 -0.2550
  956POPC   C3B13961   4.865   7.016   8.221 -0.0775 -0.0948  0.0568
  956POPC   C4B13962   4.840   7.258   8.644 -0.1210 -0.0674  0.0541
  957POPC   NC313963   2.067  12.342   5.824 -0.0642  0.1649 -0.2859
  957POPC   PO413964   1.777  12.654   5.945 -0.1723  0.2067  0.5163
  957POPC   GL113965   2.019  12.652   6.352 -0.1303  0.3313  0.0846
  957POPC   GL213966   2.208  12.301   6.393  0.1547 -0.0414 -0.0041
  957POPC   C1A13967   2.147  12.648   6.765  0.0873 -0.1157 -0.1485
  957POPC   D2A13968   2.119  12.388   7.024 -0.0497  0.0928 -0.1539
  957POPC   C3A13969   1.832  12.344   7.378 -0.3690  0.0834 -0.1903
  957POPC   C4A13970   1.856  12.211   7.809 -0.1391 -0.0335  0.1246
  957POPC   C1B13971   1.730  12.355   6.586 -0.1835  0.0984 -0.0079
  957POPC   C2B13972   1.424  12.229   7.049  0.1656 -0.1543  0.0867
  957POPC   C3B13973   1.293  12.456   7.418 -0.6500 -0.1365  0.1169
  957POPC   C4B13974   1.362  12.546   7.913  0.0934 -0.0448  0.4191
  958POPC   NC313975  14.423   1.917   6.263  0.1230  0.0231  0.1204
  958POPC   PO413976  14.640   1.539   6.145 -0.3048  0.2394 -0.0056
  958POPC   GL113977  14.657   1.362   6.595  0.1698 -0.2663 -0.0918
  958POPC   GL213978  14.416   1.227   6.681 -0.2957 -0.0671 -0.2589
  958POPC   C1A13979  14.587   1.556   7.022 -0.1115 -0.1537  0.3028
  958POPC   D2A13980  14.532   1.418   7.407 -0.0463  0.1947 -0.0870
  958POPC   C3A13981  14.147   1.168   7.548 -0.3290  0.0573 -0.1948
  958POPC   C4A13982  13.930   1.153   7.929  0.3015  0.1378 -0.0225
  958POPC   C1B13983  14.466   1.051   7.059 -0.2866 -0.2588  0.0591
  958POPC   C2B13984  14.526   0.834   7.429  0.0040  0.0796 -0.1392
  958POPC   C3B13985  14.758   0.664   7.832 -0.2234  0.2074  0.0968
  958POPC   C4B13986  15.036   0.702   8.234  0.1438 -0.0126  0.0967
  959POPC   NC313987   4.894  10.136   6.045  0.3678  0.1040 -0.0690
  959POPC   PO413988   4.902   9.753   6.159 -0.0569 -0.2126 -0.4156
  959POPC   GL113989   4.835   9.810   6.628 -0.0050 -0.1716  0.1140
  959POPC   GL213990   4.593   9.977   6.572  0.1397 -0.1940  0.0755
  959POPC   C1A13991   4.750   9.822   7.063 -0.1352  0.3389 -0.0587
  959POPC   D2A13992   4.579   9.693   7.379 -0.0014  0.0163  0.1405
  959POPC   C3A13993   4.214   9.954   7.571  0.0306  0.2274  0.1100
  959POPC   C4A13994   4.020  10.086   7.863 -0.0146  0.1973 -0.1594
  959POPC   C1B13995   4.574  10.397   6.737  0.0993  0.1450  0.1513
  959POPC   C2B13996   4.304  10.662   6.925  0.1307  0.0942 -0.0689
  959POPC   C3B13997   4.108  10.815   7.296  0.3152 -0.3356  0.1497
  959POPC   C4B13998   3.860  10.805   7.631 -0.2935  0.4082  0.2292
  960POPC   NC313999   3.502  16.735   5.932 -0.1279  0.1039  0.1556
  960POPC   PO414000   3.154  16.924   5.818  0.1306 -0.0001  0.1716
  960POPC   GL114001   3.092  16.986   6.228  0.1228  0.0550 -0.2461
  960POPC   GL214002   3.040  17.372   6.373  0.0747  0.3310 -0.0772
  960POPC   C1A14003   3.099  16.797   6.610  0.3397 -0.2552 -0.0853
  960POPC   D2A14004   3.345  16.350   6.677 -0.2720  0.1041 -0.1332
  960POPC   C3A14005   3.191  15.985   6.964  0.2826 -0.1792 -0.1792
  960POPC   C4A14006   3.450  15.767   7.202 -0.0896  0.2478  0.3151
  960POPC   C1B14007   3.073  17.259   6.762  0.1630  0.0426 -0.0378
  960POPC   C2B14008   3.362  17.415   7.108 -0.2565 -0.0942  0.0328
  960POPC   C3B14009   3.450  17.333   7.577  0.1079  0.2151 -0.1372
  960POPC   C4B14010   3.683  17.324   7.928  0.0260 -0.2949  0.0225
  961POPC   NC314011   3.284   0.159   5.841 -0.1421  0.1620 -0.2351
  961POPC   PO414012   2.996   0.011   6.115 -0.1979 -0.1292  0.2179
  961POPC   GL114013   2.899   0.419   6.154  0.1662 -0.0933  0.0541
  961POPC   GL214014   3.073   0.603   6.020  0.1029  0.1738 -0.0500
  961POPC   C1A14015   2.624   0.620   6.397  0.0277  0.0599 -0.1050
  961POPC   D2A14016   2.724   0.914   6.651 -0.2737  0.1907  0.1809
  961POPC   C3A14017   2.904   0.993   6.932 -0.0730  0.1212  0.1767
  961POPC   C4A14018   3.105   1.194   7.169 -0.3039 -0.0806 -0.0562
  961POPC   C1B14019   3.167   0.960   6.403  0.1755  0.2553 -0.1566
  961POPC   C2B14020   3.077   1.347   6.654  0.1620  0.3678  0.2062
  961POPC   C3B14021   3.221   1.651   7.040 -0.2348  0.1280 -0.0966
  961POPC   C4B14022   3.378   1.644   7.458  0.0421 -0.0151  0.2879
  962POPC   NC314023   6.694  13.009   5.758  0.1208  0.0356  0.1507
  962POPC   PO414024   6.643  12.809   6.149  0.0660 -0.0532  0.1737
  962POPC   GL114025   6.614  12.940   6.500 -0.0222  0.1027 -0.1019
  962POPC   GL214026   6.787  12.768   6.719 -0.2409 -0.3728 -0.2070
  962POPC   C1A14027   6.375  13.012   6.917 -0.3141 -0.0807  0.1458
  962POPC   D2A14028   6.423  13.079   7.319 -0.0886 -0.0598  0.0017
  962POPC   C3A14029   6.226  13.393   7.433 -0.1747  0.2707 -0.0863
  962POPC   C4A14030   6.114  13.840   7.391 -0.1524 -0.0040  0.2177
  962POPC   C1B14031   7.061  12.730   7.050 -0.0787  0.2068 -0.2925
  962POPC   C2B14032   7.205  12.929   7.416  0.2458 -0.1747 -0.0481
  962POPC   C3B14033   7.512  13.213   7.718  0.0136  0.0905  0.3459
  962POPC   C4B14034   7.952  13.233   7.724 -0.2553  0.0454  0.2299
  963YOPC   NC314035  16.295   6.165   6.140 -0.1340  0.2308 -0.1762
  963YOPC   PO414036  16.263   6.674   6.110  0.1935 -0.0018  0.0722
  963YOPC   GL114037  16.195   6.574   6.510  0.2140 -0.2578  0.0643
  963YOPC   GL214038  16.558   6.437   6.540  0.2005  0.0026 -0.1704
  963YOPC   C1A14039  16.081   6.521   6.996 -0.0625 -0.1565  0.3324
  963YOPC   D2A14040  16.012   6.504   7.443  0.3357 -0.1018 -0.2686
  963YOPC   C3A14041  16.114   6.702   7.843 -0.0952  0.1503  0.3484
  963YOPC   C4A14042  16.188   6.832   8.272 -0.2222 -0.1408  0.0771
  963YOPC   C1B14043  16.559   6.664   6.884 -0.0182 -0.4227 -0.0782
  963YOPC   C2B14044  16.500   6.552   7.300  0.0987  0.0947  0.1282
  963YOPC   D3B14045  16.596   6.799   7.649 -0.1570  0.3056  0.2295
  963YOPC   C4B14046  16.968   6.950   7.784 -0.2135  0.0399  0.1804
  964YOPC   NC314047  11.688   2.615   5.738  0.1861  0.1798  0.2279
  964YOPC   PO414048  11.519   2.386   6.182 -0.0907  0.2208  0.2648
  964YOPC   GL114049  11.221   2.231   6.563 -0.2700  0.0242  0.2633
  964YOPC   GL214050  10.881   2.256   6.612  0.0326  0.0572 -0.2254
  964YOPC   C1A14051  11.253   2.264   6.988 -0.2148  0.1447 -0.2209
  964YOPC   D2A14052  11.324   2.236   7.417 -0.2699  0.0983 -0.0579
  964YOPC   C3A14053  11.007   2.255   7.701  0.5341  0.1486 -0.1285
  964YOPC   C4A14054  10.722   2.082   7.855 -0.2608 -0.1806  0.2619
  964YOPC   C1B14055  10.781   2.267   7.152  0.1585 -0.4081 -0.0615
  964YOPC   C2B14056  10.528   2.500   7.448  0.0103  0.2568  0.3682
  964YOPC   D3B14057  10.673   2.682   7.781 -0.0355 -0.0407  0.0107
  964YOPC   C4B14058  10.788   2.911   8.170  0.0843 -0.1415  0.0128
  965YOPC   NC314059   6.125  11.799   6.005  0.0024  0.1504 -0.1292
  965YOPC   PO414060   6.368  11.528   6.301 -0.2109 -0.3778 -0.0709
  965YOPC   GL114061   6.193  11.719   6.531 -0.0420  0.1025  0.2689
  965YOPC   GL214062   6.195  11.521   6.817 -0.0568 -0.0592 -0.1455
  965YOPC   C1A14063   5.884  11.935   6.723 -0.1072 -0.1625  0.1886
  965YOPC   D2A14064   5.459  12.060   6.967  0.0169 -0.1467  0.1133
  965YOPC   C3A14065   5.392  11.835   7.376 -0.1294 -0.3828  0.0199
  965YOPC   C4A14066   5.599  11.864   7.737  0.0877  0.1980 -0.0685
  965YOPC   C1B14067   6.137  11.467   7.215  0.2659  0.0102 -0.1010
  965YOPC   C2B14068   5.764  11.475   7.491  0.1459  0.0547 -0.4275
  965YOPC   D3B14069   5.759  11.414   7.943  0.0498  0.0625  0.0098
  965YOPC   C4B14070   5.955  11.365   8.409  0.1232  0.0917  0.1949
  966YOPC   NC314071  10.808   6.937   6.236 -0.0105  0.1510  0.0603
  966YOPC   PO414072  11.332   6.703   5.985 -0.0276 -0.1239  0.0986
  966YOPC   GL114073  11.447   6.742   6.449  0.1293  0.2396 -0.0028
  966YOPC   GL214074  11.626   6.516   6.609  0.0157  0.0420 -0.0668
  966YOPC   C1A14075  11.280   6.701   6.881 -0.1412  0.0222  0.4539
  966YOPC   D2A14076  11.321   6.752   7.326 -0.2024  0.1078 -0.0777
  966YOPC   C3A14077  11.401   6.322   7.228  0.0126 -0.0511 -0.3604
  966YOPC   C4A14078  11.354   6.149   6.877 -0.1884  0.2773  0.3192
  966YOPC   C1B14079  11.824   6.259   7.006 -0.1700  0.0211  0.2054
  966YOPC   C2B14080  12.194   6.196   7.273  0.1757 -0.0914 -0.1548
  966YOPC   D3B14081  12.159   6.248   7.767  0.0560  0.2025 -0.1041
  966YOPC   C4B14082  12.160   6.063   8.125 -0.2595  0.0157  0.0368
  967YOPC   NC314083  15.345  13.453   6.359  0.0383  0.1125  0.0741
  967YOPC   PO414084  15.594  13.102   6.316 -0.1858  0.3278  0.1113
  967YOPC   GL114085  15.519  13.322   6.800 -0.0596  0.1165 -0.1329
  967YOPC   GL214086  15.323  13.176   6.966 -0.1605  0.0537 -0.2221
  967YOPC   C1A14087  15.632  13.368   7.328 -0.1960 -0.1325  0.5341
  967YOPC   D2A14088  15.462  13.319   7.674  0.2331 -0.0755  0.1459
  967YOPC   C3A14089  15.712  13.101   7.976  0.1023  0.0173  0.1028
  967YOPC   C4A14090  15.793  13.029   8.388  0.1041 -0.0454 -0.0109
  967YOPC   C1B14091  15.199  13.071   7.378 -0.0760 -0.3523 -0.1384
  967YOPC   C2B14092  15.209  12.888   7.770  0.0526  0.0224 -0.2493
  967YOPC   D3B14093  14.887  12.877   8.013  0.1507  0.0429  0.1056
  967YOPC   C4B14094  14.624  13.091   8.307  0.0488 -0.0353  0.2354
  968YOPC   NC314095   9.045  16.393   5.901  0.0561  0.0406 -0.1513
  968YOPC   PO414096   9.214  16.810   5.848 -0.1213  0.0833 -0.0074
  968YOPC   GL114097   9.147  16.669   6.308  0.1311 -0.0870  0.0939
  968YOPC   GL214098   8.869  16.589   6.331  0.1620 -0.0214 -0.0565
  968YOPC   C1A14099   9.275  16.628   6.722 -0.2407  0.2781 -0.1837
  968YOPC   D2A14100   9.331  16.709   7.247 -0.2385 -0.2494 -0.0259
  968YOPC   C3A14101   9.323  16.309   7.401  0.0088  0.1858  0.1274
  968YOPC   C4A14102   9.334  16.278   7.832  0.0380 -0.1795  0.0108
  968YOPC   C1B14103   8.733  16.525   6.702  0.2305 -0.2650 -0.1611
  968YOPC   C2B14104   8.719  16.756   7.120  0.0181 -0.0265 -0.1334
  968YOPC   D3B14105   8.787  17.097   7.404  0.1872 -0.2217  0.3258
  968YOPC   C4B14106   8.870  17.478   7.618 -0.0671  0.0464  0.0240
  969YOPC   NC314107   8.149  11.758   5.722 -0.0494 -0.1202  0.3752
  969YOPC   PO414108   8.304  11.527   6.132  0.1043 -0.1775  0.0681
  969YOPC   GL114109   8.568  11.611   6.479 -0.0503 -0.0382  0.1242
  969YOPC   GL214110   8.900  11.578   6.563 -0.3023  0.6870 -0.0353
  969YOPC   C1A14111   8.500  11.776   6.891  0.2365 -0.1942 -0.0738
  969YOPC   D2A14112   8.457  11.925   7.198  0.0957 -0.2088 -0.0172
  969YOPC   C3A14113   8.494  11.658   7.549  0.0231 -0.0947 -0.0973
  969YOPC   C4A14114   8.711  11.235   7.644 -0.2337  0.2388 -0.2725
  969YOPC   C1B14115   8.987  11.769   6.883  0.1217 -0.1498 -0.2680
  969YOPC   C2B14116   8.969  11.877   7.363 -0.0044  0.2009 -0.0379
  969YOPC   D3B14117   9.059  11.606   7.735 -0.1816  0.1037  0.0450
  969YOPC   C4B14118   8.971  11.257   8.051  0.3154 -0.1016  0.0596
  970YOPC   NC314119  13.935   8.530   6.061 -0.1941 -0.2743 -0.1564
  970YOPC   PO414120  13.577   8.787   6.211  0.1519  0.1281  0.1979
  970YOPC   GL114121  13.228   8.677   6.740  0.0914  0.1636  0.1945
  970YOPC   GL214122  13.135   8.923   6.957 -0.0407  0.3247  0.0813
  970YOPC   C1A14123  13.212   8.453   7.092  0.1823 -0.0388 -0.0248
  970YOPC   D2A14124  13.067   8.417   7.488 -0.0484  0.2830  0.0219
  970YOPC   C3A14125  13.270   8.308   7.871 -0.3420  0.1386  0.1399
  970YOPC   C4A14126  13.475   8.051   8.243 -0.2478 -0.2137  0.0764
  970YOPC   C1B14127  13.130   8.949   7.448 -0.1685 -0.4344  0.0916
  970YOPC   C2B14128  13.079   9.251   7.892  0.1553  0.1132  0.2820
  970YOPC   D3B14129  12.983   8.893   8.257  0.1324 -0.2214 -0.0808
  970YOPC   C4B14130  13.016   8.505   8.377  0.0398  0.1120  0.0043
  971YOPC   NC314131   2.065  11.496   5.859 -0.1692 -0.2399 -0.1637
  971YOPC   PO414132   1.828  11.853   5.856  0.0529 -0.1176  0.0742
  971YOPC   GL114133   1.767  11.720   6.256 -0.2832 -0.0401 -0.3537
  971YOPC   GL214134   2.122  11.694   6.282 -0.1532 -0.0126 -0.1968
  971YOPC   C1A14135   1.869  11.508   6.672  0.2918  0.0466 -0.2461
  971YOPC   D2A14136   1.760  11.267   7.015  0.0056 -0.0246  0.0086
  971YOPC   C3A14137   1.586  11.413   7.436 -0.4138 -0.2910 -0.0170
  971YOPC   C4A14138   1.365  11.506   7.831  0.0628 -0.2014  0.1010
  971YOPC   C1B14139   2.233  11.866   6.687  0.0817  0.0377  0.1292
  971YOPC   C2B14140   2.206  11.714   7.006  0.1013  0.2671 -0.0844
  971YOPC   D3B14141   2.276  11.908   7.342 -0.1184  0.0928  0.0044
  971YOPC   C4B14142   2.316  12.173   7.598 -0.1491 -0.1045 -0.1368
  972YOPC   NC314143   9.083   8.908   6.218 -0.0284  0.1408  0.1267
  972YOPC   PO414144   9.155   9.326   6.437 -0.0804 -0.0607  0.0562
  972YOPC   GL114145   9.232   9.436   6.819  0.2225  0.0398  0.3756
  972YOPC   GL214146   9.091   9.726   6.951 -0.4308  0.1454  0.1583
  972YOPC   C1A14147   8.954   9.301   7.182  0.1242 -0.0398 -0.2571
  972YOPC   D2A14148   8.773   9.277   7.509 -0.1962 -0.2224 -0.0821
  972YOPC   C3A14149   8.921   9.181   7.899  0.0540 -0.0701 -0.2981
  972YOPC   C4A14150   9.164   9.214   8.302 -0.0844 -0.2345 -0.1729
  972YOPC   C1B14151   9.314   9.821   7.365  0.0951 -0.3711 -0.3263
  972YOPC   C2B14152   9.163   9.539   7.627 -0.4365  0.0429  0.0501
  972YOPC   D3B14153   9.080   9.661   8.078  0.0932  0.0475  0.2907
  972YOPC   C4B14154   9.094  10.016   8.370  0.2104  0.2343 -0.1131
  973YOPC   NC314155   4.215  16.239   6.175  0.1735 -0.1955 -0.2068
  973YOPC   PO414156   4.487  16.691   6.193  0.0475  0.0078 -0.2002
  973YOPC   GL114157   4.336  16.882   6.525 -0.2241 -0.1591  0.0972
  973YOPC   GL214158   4.133  16.747   6.619  0.1538  0.1193 -0.0158
  973YOPC   C1A14159   4.512  17.180   6.861 -0.1486  0.4937  0.2461
  973YOPC   D2A14160   4.387  17.222   7.282 -0.4793 -0.1805  0.0659
  973YOPC   C3A14161   4.609  17.143   7.740  0.1938  0.3783  0.0122
  973YOPC   C4A14162   4.494  16.881   8.076  0.0250  0.1333  0.1141
  973YOPC   C1B14163   4.120  16.703   7.046  0.4457  0.1497  0.1465
  973YOPC   C2B14164   4.117  16.507   7.420 -0.0616 -0.0535 -0.0390
  973YOPC   D3B14165   3.857  16.325   7.673 -0.0117 -0.1567  0.2026
  973YOPC   C4B14166   3.458  16.000   7.652  0.0297 -0.0903 -0.3320
  974YOPC   NC314167   5.720   8.334   5.884 -0.0583  0.0882 -0.0578
  974YOPC   PO414168   5.939   8.019   6.021  0.1165  0.0985 -0.0133
  974YOPC   GL114169   6.016   7.868   6.435 -0.2485 -0.1592  0.1661
  974YOPC   GL214170   6.260   7.651   6.594  0.1136 -0.1876  0.0905
  974YOPC   C1A14171   5.806   7.919   6.801 -0.0482  0.0139  0.1639
  974YOPC   D2A14172   5.751   8.210   7.160  0.2230 -0.1951  0.0405
  974YOPC   C3A14173   6.000   8.398   7.477 -0.1435 -0.1788 -0.0039
  974YOPC   C4A14174   6.212   8.495   7.818  0.0507  0.0229  0.2741
  974YOPC   C1B14175   6.189   7.705   7.044 -0.0464  0.1526  0.1983
  974YOPC   C2B14176   6.055   7.908   7.405 -0.0818 -0.2116  0.2470
  974YOPC   D3B14177   5.843   7.725   7.733 -0.1321 -0.1167 -0.1287
  974YOPC   C4B14178   5.506   7.499   7.839  0.1265  0.1878  0.1504
  975YOPC   NC314179   9.410   2.566   5.947 -0.1143 -0.1107  0.0813
  975YOPC   PO414180   9.800   2.503   5.974  0.3136  0.0625  0.0958
  975YOPC   GL114181   9.652   2.563   6.369 -0.1341  0.3839 -0.2024
  975YOPC   GL214182   9.474   2.297   6.365  0.1913  0.0785 -0.1465
  975YOPC   C1A14183   9.952   2.702   6.844 -0.1211  0.1644 -0.0010
  975YOPC   D2A14184   9.926   3.022   7.058 -0.2725  0.2953 -0.2214
  975YOPC   C3A14185   9.801   3.065   7.493 -0.0070  0.1732 -0.0289
  975YOPC   C4A14186   9.907   3.111   8.005 -0.3831  0.0215 -0.1075
  975YOPC   C1B14187   9.391   2.374   6.775 -0.0775  0.0041 -0.1495
  975YOPC   C2B14188   9.285   2.286   7.145 -0.2459  0.1382  0.1391
  975YOPC   D3B14189   9.016   2.159   7.444 -0.0932 -0.3578  0.0595
  975YOPC   C4B14190   8.805   2.002   7.712 -0.0320 -0.1879  0.2208
  976YOPC   NC314191   4.424  14.798   6.228 -0.0371  0.3019 -0.0117
  976YOPC   PO414192   4.381  15.272   6.262  0.1587  0.0422 -0.3834
  976YOPC   GL114193   4.274  15.097   6.602  0.1101  0.0466 -0.2141
  976YOPC   GL214194   4.468  14.887   6.777  0.0986  0.0429  0.0765
  976YOPC   C1A14195   4.032  15.157   7.080 -0.0790 -0.1826 -0.0826
  976YOPC   D2A14196   4.058  15.059   7.447  0.0319 -0.0396 -0.2220
  976YOPC   C3A14197   4.058  15.274   7.712  0.1194 -0.0611  0.4246
  976YOPC   C4A14198   4.090  15.352   8.145  0.0949  0.1306  0.2348
  976YOPC   C1B14199   4.506  14.997   7.180 -0.1863  0.0996 -0.1020
  976YOPC   C2B14200   4.558  15.156   7.575  0.0698 -0.2687 -0.2624
  976YOPC   D3B14201   4.466  15.065   8.019  0.3123 -0.1363  0.0479
  976YOPC   C4B14202   4.019  14.845   8.024  0.2539 -0.0199  0.0151
  977YOPC   NC314203   0.661   8.506   6.256 -0.0000  0.1259  0.0289
  977YOPC   PO414204   0.333   8.313   6.283  0.1492 -0.0535  0.2297
  977YOPC   GL114205   0.351   8.287   6.674 -0.1032 -0.0655 -0.1173
  977YOPC   GL214206   0.524   8.668   6.814 -0.1048  0.1075  0.0308
  977YOPC   C1A14207   0.500   8.056   7.109 -0.0289 -0.1559 -0.0729
  977YOPC   D2A14208   0.689   8.098   7.553  0.3604  0.0905 -0.2874
  977YOPC   C3A14209   0.560   8.033   7.916 -0.0274 -0.2490 -0.1297
  977YOPC   C4A14210   0.504   8.144   8.270  0.0737  0.1690 -0.1603
  977YOPC   C1B14211   0.749   8.897   7.162  0.1096 -0.0111 -0.3347
  977YOPC   C2B14212   0.722   9.020   7.544  0.2531 -0.0401 -0.1286
  977YOPC   D3B14213   0.641   9.313   7.903  0.1797  0.2285 -0.1571
  977YOPC   C4B14214   0.606   9.366   8.364 -0.1773  0.1328 -0.3437
  978YOPC   NC314215   0.804   2.370   6.169 -0.1508 -0.0254 -0.3156
  978YOPC   PO414216   0.705   2.855   6.365 -0.4190  0.0557 -0.2848
  978YOPC   GL114217   0.916   2.942   6.769  0.0997 -0.1787  0.1375
  978YOPC   GL214218   1.163   2.767   6.886 -0.1816  0.0469 -0.0527
  978YOPC   C1A14219   0.694   2.930   7.227 -0.0207 -0.3217 -0.2632
  978YOPC   D2A14220   0.486   2.938   7.646 -0.3497 -0.2432 -0.2545
  978YOPC   C3A14221   0.365   3.310   7.942  0.0697  0.1139 -0.1369
  978YOPC   C4A14222   0.381   3.581   8.287 -0.0925 -0.0375 -0.0620
  978YOPC   C1B14223   1.178   2.667   7.254 -0.1651  0.1510 -0.1139
  978YOPC   C2B14224   1.178   2.431   7.666  0.1944 -0.1943 -0.0541
  978YOPC   D3B14225   1.214   2.477   7.989 -0.3044  0.1502 -0.1310
  978YOPC   C4B14226   1.304   2.812   8.174 -0.0562  0.0422 -0.1585
  979YOPC   NC314227   8.464   8.148   5.927 -0.4341 -0.1988 -0.0660
  979YOPC   PO414228   8.636   8.564   6.107 -0.0034 -0.1476 -0.2501
  979YOPC   GL114229   8.483   8.743   6.539 -0.1844 -0.0904  0.0457
  979YOPC   GL214230   8.280   9.032   6.577  0.0148  0.2834 -0.1202
  979YOPC   C1A14231   8.646   8.844   6.973 -0.0525  0.2052 -0.0030
  979YOPC   D2A14232   8.978   8.764   7.335  0.2401 -0.2007  0.0129
  979YOPC   C3A14233   8.827   8.756   7.699 -0.0842 -0.1135 -0.0303
  979YOPC   C4A14234   8.993   8.754   8.178  0.0525 -0.1628  0.2085
  979YOPC   C1B14235   8.277   9.245   7.075  0.2741  0.0062  0.1838
  979YOPC   C2B14236   8.400   8.951   7.414  0.2283  0.0779  0.0986
  979YOPC   D3B14237   8.435   8.972   7.853 -0.1187  0.1643 -0.2103
  979YOPC   C4B14238   8.554   9.152   8.237 -0.3672 -0.1837  0.1786
  980YOPC   NC314239   3.698   9.435   6.466 -0.1717 -0.1625  0.1048
  980YOPC   PO414240   3.349   9.541   6.450  0.2013 -0.1582  0.3515
  980YOPC   GL114241   3.432   9.890   6.708  0.0003  0.0177 -0.1490
  980YOPC   GL214242   3.175  10.099   6.696 -0.3937  0.5040 -0.1249
  980YOPC   C1A14243   3.359   9.954   7.122 -0.1169  0.1798 -0.2001
  980YOPC   D2A14244   3.225  10.131   7.502 -0.1270 -0.4425 -0.0422
  980YOPC   C3A14245   3.343  10.028   7.970 -0.0832 -0.0529  0.2292
  980YOPC   C4A14246   3.522  10.136   8.337  0.0596 -0.2183 -0.1918
  980YOPC   C1B14247   3.130  10.352   7.052  0.1462 -0.2938  0.0040
  980YOPC   C2B14248   3.283  10.637   7.475 -0.1008 -0.2234  0.0316
  980YOPC   D3B14249   3.237  10.482   7.945  0.2974 -0.0826  0.1006
  980YOPC   C4B14250   3.014  10.255   8.296 -0.1609 -0.0732  0.2119
  981YOPC   NC314251   7.785   3.707   5.989 -0.1457 -0.2082 -0.1914
  981YOPC   PO414252   7.713   4.089   6.214  0.2984 -0.4000  0.0353
  981YOPC   GL114253   7.789   4.105   6.616 -0.2672  0.3118 -0.2073
  981YOPC   GL214254   8.113   4.288   6.612 -0.1294  0.2399  0.0905
  981YOPC   C1A14255   7.827   4.212   6.990 -0.1467 -0.0643  0.3266
  981YOPC   D2A14256   7.980   4.288   7.424 -0.0950  0.1691 -0.0316
  981YOPC   C3A14257   7.762   4.356   7.734  0.1688  0.1388  0.0053
  981YOPC   C4A14258   7.796   4.329   8.157 -0.1411 -0.3548 -0.0543
  981YOPC   C1B14259   8.348   4.218   6.927  0.1938 -0.0146  0.0805
  981YOPC   C2B14260   8.325   4.024   7.308 -0.1996 -0.1897 -0.2513
  981YOPC   D3B14261   8.568   3.946   7.678  0.0580  0.1079  0.1392
  981YOPC   C4B14262   8.359   3.767   7.988  0.1012 -0.0361  0.2008
  982YOPC   NC314263   5.024   5.830   5.363  0.1322 -0.0724 -0.2017
  982YOPC   PO414264   4.931   5.935   5.762 -0.2469  0.1731 -0.1422
  982YOPC   GL114265   4.816   6.061   6.135 -0.1405  0.0045 -0.1263
  982YOPC   GL214266   4.761   6.376   6.221  0.2349  0.2931 -0.0823
  982YOPC   C1A14267   4.864   6.043   6.605  0.0629 -0.3048  0.2054
  982YOPC   D2A14268   4.876   6.178   7.106 -0.1668 -0.0100 -0.1789
  982YOPC   C3A14269   4.939   6.086   7.521 -0.1068 -0.0085  0.0946
  982YOPC   C4A14270   4.935   5.964   7.913  0.0291 -0.1279  0.3245
  982YOPC   C1B14271   4.816   6.536   6.707 -0.2507 -0.2042  0.1745
  982YOPC   C2B14272   4.860   6.668   7.037 -0.4188 -0.1354  0.1991
  982YOPC   D3B14273   4.656   6.575   7.385 -0.1879  0.2069 -0.1676
  982YOPC   C4B14274   4.148   6.445   7.545  0.2010  0.0813 -0.1502
  983YOPC   NC314275  10.375  12.057   5.827 -0.0927  0.1737  0.1580
  983YOPC   PO414276  10.600  12.387   6.068 -0.4049 -0.1188  0.2274
  983YOPC   GL114277  10.670  12.308   6.485  0.4987  0.2207  0.2041
  983YOPC   GL214278  10.474  12.501   6.680  0.3182 -0.1285  0.0071
  983YOPC   C1A14279  10.946  12.417   6.841 -0.0847  0.0492 -0.2322
  983YOPC   D2A14280  11.076  12.307   7.204  0.0224 -0.2629  0.0228
  983YOPC   C3A14281  11.378  12.531   7.535 -0.0749 -0.1558  0.1374
  983YOPC   C4A14282  11.525  12.856   7.770 -0.1306 -0.0231  0.2616
  983YOPC   C1B14283  10.306  12.224   7.073  0.0814  0.0796  0.0035
  983YOPC   C2B14284   9.966  12.044   7.204 -0.0017  0.1821  0.0596
  983YOPC   D3B14285   9.746  11.916   7.536 -0.0299  0.1285  0.0788
  983YOPC   C4B14286   9.368  12.002   7.732  0.1359  0.2567 -0.1484
  984YOPC   NC314287  15.314   5.195   6.159 -0.3307  0.1419  0.0989
  984YOPC   PO414288  15.795   5.310   6.237 -0.0381  0.0543 -0.3641
  984YOPC   GL114289  16.091   5.316   6.605  0.0309  0.1754 -0.1411
  984YOPC   GL214290  16.334   5.318   6.593 -0.0690  0.1010 -0.3556
  984YOPC   C1A14291  16.058   5.260   7.006 -0.2177  0.0009  0.4038
  984YOPC   D2A14292  16.017   5.154   7.481 -0.0597 -0.0347 -0.0950
  984YOPC   C3A14293  16.314   5.245   7.868 -0.1934 -0.0138  0.1371
  984YOPC   C4A14294  16.431   5.318   8.370  0.0631  0.1843 -0.0077
  984YOPC   C1B14295  16.550   5.157   6.927  0.2894  0.0821  0.2041
  984YOPC   C2B14296  16.530   5.234   7.345 -0.1821 -0.0897  0.1012
  984YOPC   D3B14297  16.145   5.663   7.459 -0.1044  0.3854  0.1175
  984YOPC   C4B14298  15.837   5.669   7.780 -0.2535  0.1097  0.0720
  985YOPC   NC314299  17.034   5.874   6.022  0.0978 -0.2253  0.0906
  985YOPC   PO414300  16.642   5.828   6.194 -0.3651  0.1156 -0.1082
  985YOPC   GL114301  16.536   5.766   6.574 -0.0062 -0.1077  0.3049
  985YOPC   GL214302  16.323   5.995   6.620  0.0014 -0.1540 -0.4969
  985YOPC   C1A14303  16.510   5.656   7.015 -0.1847  0.0394  0.0446
  985YOPC   D2A14304  16.732   5.755   7.390 -0.0180  0.0409  0.2347
  985YOPC   C3A14305  16.602   5.723   7.745 -0.0594 -0.2014  0.1744
  985YOPC   C4A14306  16.215   5.681   8.083  0.0485 -0.0431  0.0344
  985YOPC   C1B14307  16.397   6.150   6.940  0.0935  0.2408  0.0672
  985YOPC   C2B14308  16.381   6.065   7.355 -0.2233 -0.1661  0.1687
  985YOPC   D3B14309  16.326   6.197   7.761 -0.2718 -0.0554  0.1986
  985YOPC   C4B14310  15.990   6.148   7.914 -0.1205  0.3014  0.0808
  986YOPC   NC314311   5.872   3.125   5.738 -0.0421 -0.0226 -0.2813
  986YOPC   PO414312   5.475   3.281   5.778 -0.1034 -0.1773  0.1238
  986YOPC   GL114313   5.384   3.154   6.195  0.0244 -0.0316  0.0462
  986YOPC   GL214314   5.396   3.375   6.455  0.1227  0.2949 -0.0604
  986YOPC   C1A14315   5.436   2.808   6.506  0.0562 -0.2156  0.0944
  986YOPC   D2A14316   5.422   2.475   6.712  0.3216 -0.1025  0.0182
  986YOPC   C3A14317   5.626   2.519   7.120  0.1340 -0.1114 -0.0756
  986YOPC   C4A14318   6.015   2.676   7.215 -0.2708 -0.1590  0.1611
  986YOPC   C1B14319   5.454   3.427   6.840  0.3430  0.0401  0.2985
  986YOPC   C2B14320   5.259   3.679   7.152  0.0751  0.2151 -0.2097
  986YOPC   D3B14321   5.029   3.713   7.644  0.3091  0.2714  0.2384
  986YOPC   C4B14322   4.656   3.941   7.841  0.1206 -0.2122 -0.0924
  987YOPC   NC314323   2.284  16.889   6.032 -0.0621  0.2185  0.1128
  987YOPC   PO414324   1.793  16.976   6.031 -0.1320 -0.1610  0.0793
  987YOPC   GL114325   2.084  17.269   6.296  0.2376 -0.2570 -0.1203
  987YOPC   GL214326   2.140  17.587   6.399  0.0982  0.1193  0.0207
  987YOPC   C1A14327   2.192  17.209   6.710 -0.0550 -0.1001 -0.0035
  987YOPC   D2A14328   2.139  17.049   7.040  0.2055  0.0274 -0.2064
  987YOPC   C3A14329   2.023  17.205   7.445 -0.2003 -0.2722  0.0017
  987YOPC   C4A14330   2.468  17.362   7.646 -0.0229 -0.0909  0.0684
  987YOPC   C1B14331   2.139  17.729   6.855 -0.2231 -0.2931 -0.2134
  987YOPC   C2B14332   2.224  17.601   7.201 -0.1375 -0.0391 -0.1569
  987YOPC   D3B14333   2.597  17.771   7.439  0.2837 -0.1176 -0.0530
  987YOPC   C4B14334   2.869  17.804   7.802 -0.3834 -0.0108  0.0431
  988YOPC   NC314335   3.613  15.101   5.771  0.0006 -0.5222 -0.2097
  988YOPC   PO414336   3.396  15.026   6.244  0.1640  0.0976  0.0165
  988YOPC   GL114337   3.493  14.998   6.655  0.0329 -0.2046 -0.2543
  988YOPC   GL214338   3.432  14.700   6.686 -0.1344  0.2341 -0.2073
  988YOPC   C1A14339   3.646  14.934   7.050  0.4168  0.4478  0.1466
  988YOPC   D2A14340   3.635  14.781   7.503 -0.1334  0.0987  0.0462
  988YOPC   C3A14341   3.563  15.011   7.864 -0.0389  0.0104  0.1652
  988YOPC   C4A14342   3.657  15.203   8.229  0.2055 -0.0463 -0.1362
  988YOPC   C1B14343   3.330  14.529   7.190 -0.2059 -0.2075  0.2546
  988YOPC   C2B14344   3.164  14.534   7.684 -0.0990 -0.0624 -0.2841
  988YOPC   D3B14345   3.509  14.479   7.956 -0.1892  0.0848  0.0430
  988YOPC   C4B14346   3.833  14.435   8.254 -0.1521 -0.0421 -0.2824
  989YOPC   NC314347   9.148  14.730   5.883 -0.1034 -0.3097  0.3992
  989YOPC   PO414348   9.113  14.315   6.053  0.0408 -0.1257 -0.0029
  989YOPC   GL114349   8.971  14.205   6.455  0.0368  0.0004 -0.1104
  989YOPC   GL214350   9.167  14.281   6.620  0.3753  0.2155 -0.0461
  989YOPC   C1A14351   8.774  14.429   6.866 -0.0410 -0.1068 -0.1306
  989YOPC   D2A14352   8.907  14.432   7.206  0.0190  0.0623 -0.0492
  989YOPC   C3A14353   8.715  14.615   7.581  0.0023  0.0428  0.0066
  989YOPC   C4A14354   8.846  15.057   7.841  0.0909  0.0384  0.0810
  989YOPC   C1B14355   9.144  14.068   7.003  0.0523  0.1093 -0.0371
  989YOPC   C2B14356   8.957  14.009   7.416 -0.0520 -0.1508  0.1184
  989YOPC   D3B14357   8.565  14.134   7.515  0.1060 -0.0294  0.3331
  989YOPC   C4B14358   8.295  14.297   7.296 -0.2386  0.0472  0.0182
  990YOPC   NC314359   6.447  15.625   5.834 -0.1515 -0.1018 -0.2177
  990YOPC   PO414360   6.541  15.208   6.205  0.0676 -0.2309  0.4658
  990YOPC   GL114361   6.496  15.193   6.663 -0.1232 -0.0313  0.3282
  990YOPC   GL214362   6.088  15.110   6.744  0.0070 -0.2254  0.1146
  990YOPC   C1A14363   6.776  15.300   7.020  0.3662  0.0822  0.1229
  990YOPC   D2A14364   7.144  15.392   7.366 -0.0969 -0.3180  0.2264
  990YOPC   C3A14365   7.272  14.905   7.693  0.0345 -0.4021 -0.5909
  990YOPC   C4A14366   7.389  15.111   8.194  0.0842 -0.0721  0.1240
  990YOPC   C1B14367   6.041  14.581   6.810  0.0882  0.1135 -0.1284
  990YOPC   C2B14368   6.156  14.239   7.010  0.3559 -0.0674  0.2699
  990YOPC   D3B14369   6.270  13.961   6.703  0.0791  0.4870  0.2555
  990YOPC   C4B14370   6.715  13.926   6.584  0.0155 -0.3551 -0.0641
  991YOPC   NC314371   1.395  13.518   5.623  0.0915  0.0908  0.2303
  991YOPC   PO414372   1.551  13.847   5.930 -0.4842  0.3855  0.1417
  991YOPC   GL114373   1.295  13.849   6.350  0.2962  0.0816  0.1385
  991YOPC   GL214374   1.468  13.910   6.585 -0.0753 -0.2575  0.1201
  991YOPC   C1A14375   0.926  13.970   6.543 -0.1954 -0.0771  0.3570
  991YOPC   D2A14376   1.011  13.992   6.964  0.1630  0.0696  0.1423
  991YOPC   C3A14377   0.795  14.084   7.263 -0.2138 -0.2142  0.0419
  991YOPC   C4A14378   0.611  13.926   7.682 -0.1769 -0.1271  0.0322
  991YOPC   C1B14379   1.490  13.702   7.009  0.0390 -0.0276 -0.4267
  991YOPC   C2B14380   1.432  13.877   7.438 -0.0735  0.2123 -0.1822
  991YOPC   D3B14381   1.071  13.917   7.905  0.2393 -0.1524  0.5146
  991YOPC   C4B14382   1.189  14.176   8.229 -0.0921 -0.1517 -0.1048
  992YOPC   NC314383  11.375  16.073   6.045 -0.0107  0.1764 -0.2927
  992YOPC   PO414384  10.970  16.020   6.228  0.0852  0.3891  0.4766
  992YOPC   GL114385  10.731  16.266   6.521 -0.0020 -0.0458  0.3922
  992YOPC   GL214386  10.983  16.300   6.779 -0.3232 -0.3540 -0.0422
  992YOPC   C1A14387  10.416  16.406   6.881 -0.0450 -0.0262 -0.0818
  992YOPC   D2A14388  10.406  16.321   7.451 -0.2800 -0.0128  0.1232
  992YOPC   C3A14389  10.124  16.144   7.741 -0.0761  0.1923  0.1140
  992YOPC   C4A14390   9.765  16.023   7.967  0.2145  0.0384 -0.0016
  992YOPC   C1B14391  10.800  16.182   7.169 -0.1048  0.0662  0.2621
  992YOPC   C2B14392  10.883  16.220   7.632  0.1529 -0.0386  0.1072
  992YOPC   D3B14393  11.054  16.426   8.007  0.1817  0.0655 -0.0327
  992YOPC   C4B14394  11.220  16.608   8.399  0.0329  0.1468 -0.1401
  993YOPC   NC314395   8.745   1.786   5.745 -0.0747  0.0681 -0.1639
  993YOPC   PO414396   8.892   2.145   5.871  0.2421  0.0639 -0.0318
  993YOPC   GL114397   8.971   2.225   6.296 -0.2509 -0.1073 -0.1433
  993YOPC   GL214398   8.639   2.282   6.331  0.6354  0.1950 -0.1631
  993YOPC   C1A14399   9.021   2.049   6.679 -0.0817  0.0567 -0.4184
  993YOPC   D2A14400   8.850   1.922   6.982  0.2959  0.1126 -0.1175
  993YOPC   C3A14401   8.804   1.764   7.274  0.1791  0.2221  0.0217
  993YOPC   C4A14402   8.960   1.527   7.607  0.0256 -0.2161 -0.1052
  993YOPC   C1B14403   8.529   2.164   6.641  0.1384 -0.0389 -0.0947
  993YOPC   C2B14404   8.303   2.143   7.035 -0.2573  0.0348  0.0437
  993YOPC   D3B14405   8.503   2.141   7.349 -0.3536 -0.0006  0.0654
  993YOPC   C4B14406   8.320   2.084   7.865 -0.0829 -0.2695  0.1197
  994YOPC   NC314407  16.283   4.494   5.890  0.2768  0.3302 -0.1277
  994YOPC   PO414408  16.271   4.916   6.232  0.1636  0.0616  0.0527
  994YOPC   GL114409  16.360   4.817   6.596 -0.1730 -0.1873 -0.1874
  994YOPC   GL214410  16.649   4.636   6.779  0.1356  0.2366 -0.0388
  994YOPC   C1A14411  16.262   4.768   7.005  0.1343  0.1857 -0.2013
  994YOPC   D2A14412  16.361   4.788   7.522  0.0603  0.0263 -0.1783
  994YOPC   C3A14413  16.004   4.801   7.840 -0.2409 -0.1437  0.0367
  994YOPC   C4A14414  15.835   4.660   8.201  0.0146 -0.1857  0.1838
  994YOPC   C1B14415  16.756   4.762   7.160  0.0453 -0.2388 -0.0386
  994YOPC   C2B14416  16.834   4.908   7.544  0.3799  0.1119 -0.1345
  994YOPC   D3B14417  16.798   5.269   7.819 -0.2653 -0.2845  0.0488
  994YOPC   C4B14418  16.890   5.479   8.309 -0.1586  0.0676  0.0933
  995YOPC   NC314419   4.159   4.919   5.580 -0.0816 -0.0779 -0.0553
  995YOPC   PO414420   3.799   4.797   5.822 -0.2817  0.0728 -0.0469
  995YOPC   GL114421   3.874   4.834   6.225  0.2236  0.2342  0.3699
  995YOPC   GL214422   3.667   4.935   6.363 -0.2738 -0.3538  0.0617
  995YOPC   C1A14423   4.131   4.970   6.496  0.0840  0.2050  0.1249
  995YOPC   D2A14424   4.573   4.976   6.531 -0.1414 -0.0120  0.1166
  995YOPC   C3A14425   4.694   5.104   6.926 -0.1570 -0.0666 -0.0401
  995YOPC   C4A14426   4.871   5.180   7.303 -0.0355 -0.2424  0.0837
  995YOPC   C1B14427   3.691   5.189   6.685  0.0117  0.0602  0.0506
  995YOPC   C2B14428   3.623   5.320   7.122 -0.1453 -0.2036 -0.0839
  995YOPC   D3B14429   3.821   5.194   7.388 -0.0733 -0.0199  0.0369
  995YOPC   C4B14430   3.695   5.068   7.840  0.0513  0.0137  0.0071
  996YOPC   NC314431  14.518  15.231   6.206  0.1672  0.0015  0.1709
  996YOPC   PO414432  14.870  14.947   6.467 -0.0535  0.1274  0.0489
  996YOPC   GL114433  15.089  15.152   6.777  0.2958 -0.2147 -0.0891
  996YOPC   GL214434  14.886  14.904   6.971 -0.1604  0.1953  0.0925
  996YOPC   C1A14435  15.142  15.279   7.163  0.0885 -0.0823 -0.0091
  996YOPC   D2A14436  15.289  15.210   7.530  0.1647  0.0695 -0.1435
  996YOPC   C3A14437  15.223  15.367   7.899  0.1274  0.0754 -0.1604
  996YOPC   C4A14438  15.470  15.280   8.195 -0.2391 -0.0501  0.1445
  996YOPC   C1B14439  14.864  14.899   7.443  0.2520 -0.1267  0.2484
  996YOPC   C2B14440  14.961  14.871   7.869 -0.0673  0.0373  0.2424
  996YOPC   D3B14441  14.545  14.753   8.095 -0.2468 -0.0134 -0.0084
  996YOPC   C4B14442  14.114  14.508   8.286  0.0013  0.1388 -0.3741
  997YOPC   NC314443  12.017   2.587   6.088 -0.0738 -0.2063  0.0480
  997YOPC   PO414444  12.096   2.186   6.314 -0.0819 -0.2306  0.2053
  997YOPC   GL114445  11.892   2.494   6.525 -0.1531 -0.2098  0.0448
  997YOPC   GL214446  11.603   2.565   6.644  0.0324 -0.2840  0.3120
  997YOPC   C1A14447  11.908   2.901   6.707 -0.1008  0.0721 -0.1441
  997YOPC   D2A14448  11.754   3.064   6.965 -0.2064 -0.0820  0.3218
  997YOPC   C3A14449  11.688   2.836   7.441  0.1382 -0.0309 -0.1246
  997YOPC   C4A14450  11.673   2.917   7.889  0.1342  0.1963  0.0904
  997YOPC   C1B14451  11.739   2.456   7.140 -0.0346 -0.0942  0.2186
  997YOPC   C2B14452  11.826   2.264   7.540 -0.2893 -0.1514  0.0840
  997YOPC   D3B14453  11.841   1.882   7.733  0.0095  0.3852 -0.0295
  997YOPC   C4B14454  11.701   1.786   8.126  0.2427 -0.0047  0.1527
  998YOPC   NC314455  12.015   5.690   6.077 -0.1807 -0.0342  0.1864
  998YOPC   PO414456  12.454   5.547   6.121 -0.0742  0.2766 -0.1631
  998YOPC   GL114457  12.433   5.501   6.578  0.0709  0.0183 -0.1074
  998YOPC   GL214458  12.074   5.462   6.519  0.3679  0.0025  0.1865
  998YOPC   C1A14459  12.624   5.434   6.990 -0.0537  0.0925 -0.0952
  998YOPC   D2A14460  12.744   5.468   7.464 -0.2219  0.0763 -0.2038
  998YOPC   C3A14461  12.816   5.058   7.759  0.0326  0.0276 -0.3857
  998YOPC   C4A14462  12.650   4.614   7.908  0.0694 -0.0547 -0.4176
  998YOPC   C1B14463  12.127   5.245   6.935 -0.3440 -0.1095  0.4567
  998YOPC   C2B14464  12.225   5.149   7.400 -0.0388  0.1277  0.1439
  998YOPC   D3B14465  12.126   4.843   7.760 -0.0899  0.0278  0.0996
  998YOPC   C4B14466  12.231   4.516   8.200  0.0264 -0.0776  0.1765
  999YOPC   NC314467   2.902  11.986   6.002 -0.0112  0.1739  0.0095
  999YOPC   PO414468   3.336  11.781   6.089  0.1666  0.1258  0.3788
  999YOPC   GL114469   3.109  11.788   6.463  0.2844 -0.0342  0.1927
  999YOPC   GL214470   3.351  11.528   6.513  0.1872 -0.4170 -0.2829
  999YOPC   C1A14471   2.838  11.945   6.882  0.6685 -0.1069 -0.1147
  999YOPC   D2A14472   2.769  11.881   7.291 -0.1212 -0.1653  0.2079
  999YOPC   C3A14473   2.765  11.884   7.655 -0.0291 -0.0617 -0.1809
  999YOPC   C4A14474   2.787  11.791   8.080 -0.1420 -0.0889 -0.4236
  999YOPC   C1B14475   3.597  11.296   6.802  0.0368 -0.0819 -0.0763
  999YOPC   C2B14476   3.980  11.100   6.845  0.1161 -0.2232 -0.0452
  999YOPC   D3B14477   3.994  10.757   6.539  0.0830 -0.1868 -0.3132
  999YOPC   C4B14478   4.137  10.358   6.505 -0.0522  0.0811 -0.0074
 1000YOPC   NC314479  13.551   4.257   6.358  0.1169 -0.0136  0.2395
 1000YOPC   PO414480  13.606   4.733   6.499 -0.2242  0.2243  0.1329
 1000YOPC   GL114481  13.445   4.867   6.862 -0.0780  0.0785  0.1145
 1000YOPC   GL214482  13.678   4.973   7.068  0.0173  0.2459 -0.3540
 1000YOPC   C1A14483  13.436   4.589   7.240 -0.1565 -0.0995  0.1103
 1000YOPC   D2A14484  13.408   4.593   7.655  0.1650  0.0029 -0.1235
 1000YOPC   C3A14485  13.080   4.694   8.129 -0.0889  0.1635  0.0966
 1000YOPC   C4A14486  12.624   4.785   8.407  0.0060  0.1294  0.0709
 1000YOPC   C1B14487  13.777   4.955   7.441  0.2782 -0.0626  0.0674
 1000YOPC   C2B14488  13.890   4.849   7.879 -0.0989  0.2251 -0.0840
 1000YOPC   D3B14489  14.254   4.696   7.985  0.2521 -0.2480  0.2996
 1000YOPC   C4B14490  14.629   4.852   7.864 -0.1354  0.0038 -0.2405
 1001YOPC   NC314491  16.915  12.468   5.982 -0.0693 -0.2466 -0.1773
 1001YOPC   PO414492  17.067  12.831   6.214  0.0337 -0.2894 -0.2658
 1001YOPC   GL114493  17.150  12.715   6.645 -0.2858  0.1567  0.4190
 1001YOPC   GL214494  17.489  12.547   6.585  0.1941 -0.0060 -0.1949
 1001YOPC   C1A14495  17.286  12.632   7.055  0.0420 -0.1942  0.0667
 1001YOPC   D2A14496  17.266  12.373   7.480  0.0175 -0.2076  0.0433
 1001YOPC   C3A14497  17.499  12.333   7.805 -0.1869  0.1232  0.2428
 1001YOPC   C4A14498  17.684  12.428   8.193 -0.1278 -0.2713 -0.2592
 1001YOPC   C1B14499  17.326  12.155   6.807  0.3167  0.0513  0.1251
 1001YOPC   C2B14500  17.100  11.873   7.057 -0.1535 -0.1458  0.0090
 1001YOPC   D3B14501  16.984  11.932   7.458 -0.0745  0.2872  0.0901
 1001YOPC   C4B14502  17.227  11.842   7.766 -0.1695  0.0139 -0.0975
 1002YOPC   NC314503   1.902  17.764   5.955 -0.0439  0.0253 -0.1930
 1002YOPC   PO414504   2.163  18.091   5.732  0.1461 -0.3384 -0.1744
 1002YOPC   GL114505   2.201  18.086   6.224  0.0062 -0.3164  0.1056
 1002YOPC   GL214506   2.473  17.961   6.213 -0.1466  0.0239 -0.2752
 1002YOPC   C1A14507   1.916  18.052   6.520  0.0040  0.1752 -0.1620
 1002YOPC   D2A14508   1.820  18.139   6.919 -0.0161 -0.1500  0.0857
 1002YOPC   C3A14509   2.149  18.119   7.171  0.1960 -0.1735  0.1631
 1002YOPC   C4A14510   2.324  18.286   7.485 -0.3165  0.0860 -0.0574
 1002YOPC   C1B14511   2.455  18.011   6.645  0.0469 -0.0153  0.4164
 1002YOPC   C2B14512   2.611  17.942   6.959 -0.1619  0.2386  0.1018
 1002YOPC   D3B14513   2.876  17.621   7.020  0.1433  0.1031 -0.0328
 1002YOPC   C4B14514   2.984  17.455   7.415 -0.1283  0.1171  0.0349
 1003YOPC   NC314515  15.917  15.455   6.160 -0.0454 -0.3103  0.2085
 1003YOPC   PO414516  15.583  15.791   6.142  0.0134  0.0536  0.0342
 1003YOPC   GL114517  15.741  15.785   6.565  0.1541  0.1076 -0.0073
 1003YOPC   GL214518  15.994  15.987   6.717  0.0865  0.0260 -0.0937
 1003YOPC   C1A14519  15.586  15.562   6.998 -0.1921 -0.2295 -0.0481
 1003YOPC   D2A14520  15.760  15.512   7.463 -0.3200  0.0044 -0.0078
 1003YOPC   C3A14521  15.736  15.285   7.820 -0.0598  0.0101  0.1289
 1003YOPC   C4A14522  15.470  14.871   7.880  0.3353  0.0966 -0.1998
 1003YOPC   C1B14523  16.043  15.725   7.033 -0.1721  0.0880 -0.2193
 1003YOPC   C2B14524  16.268  15.734   7.403 -0.0986 -0.0734 -0.1291
 1003YOPC   D3B14525  16.186  15.601   7.803  0.0494 -0.1277  0.0634
 1003YOPC   C4B14526  16.109  15.393   8.135 -0.0046  0.2191 -0.2674
 1004YOPC   NC314527   6.339   6.644   6.341 -0.0101 -0.0486 -0.0704
 1004YOPC   PO414528   6.270   6.164   6.362 -0.0070  0.0463 -0.1785
 1004YOPC   GL114529   6.116   6.230   6.768 -0.3975  0.1512  0.2704
 1004YOPC   GL214530   5.966   5.904   6.837  0.0135 -0.3079  0.1575
 1004YOPC   C1A14531   5.860   6.267   7.130 -0.0748  0.3594  0.1907
 1004YOPC   D2A14532   5.942   6.127   7.591  0.1670 -0.0208  0.0433
 1004YOPC   C3A14533   6.193   6.321   7.976 -0.0445 -0.0087  0.2003
 1004YOPC   C4A14534   6.306   6.483   8.295 -0.0212 -0.2863  0.2960
 1004YOPC   C1B14535   5.784   5.685   7.143 -0.5079  0.0696 -0.0357
 1004YOPC   C2B14536   5.896   5.628   7.615  0.2275  0.0214  0.0913
 1004YOPC   D3B14537   5.630   5.357   7.810 -0.2287 -0.1886  0.1439
 1004YOPC   C4B14538   5.650   5.012   7.916  0.1846 -0.1323 -0.0167
 1005YOPC   NC314539   8.284  14.353   5.782  0.3776 -0.2788 -0.0344
 1005YOPC   PO414540   8.137  14.199   6.152 -0.0686 -0.2238  0.2043
 1005YOPC   GL114541   7.979  14.190   6.591  0.2043 -0.1022 -0.2169
 1005YOPC   GL214542   7.659  14.189   6.591 -0.0836 -0.0974 -0.1087
 1005YOPC   C1A14543   8.244  14.477   6.802 -0.2322  0.1841 -0.1793
 1005YOPC   D2A14544   8.481  14.724   7.132 -0.3178  0.0161 -0.2052
 1005YOPC   C3A14545   8.703  15.097   7.312 -0.1626 -0.0302  0.2897
 1005YOPC   C4A14546   8.771  15.497   7.303 -0.0223 -0.1144  0.2077
 1005YOPC   C1B14547   7.809  14.176   7.036  0.1112 -0.0064  0.3638
 1005YOPC   C2B14548   7.829  14.268   7.430  0.2111 -0.3691 -0.1357
 1005YOPC   D3B14549   7.429  14.285   7.710  0.1350  0.2259  0.1293
 1005YOPC   C4B14550   7.088  14.199   8.120  0.1265  0.1331  0.2028
 1006YOPC   NC314551   1.432   1.287   5.954 -0.1376 -0.1022 -0.1955
 1006YOPC   PO414552   1.630   1.693   6.060 -0.0297  0.0732  0.3314
 1006YOPC   GL114553   1.750   1.607   6.509 -0.1550 -0.1122  0.3863
 1006YOPC   GL214554   2.019   1.713   6.573 -0.2878  0.0309 -0.2787
 1006YOPC   C1A14555   1.680   1.491   6.999  0.2385  0.0468  0.0200
 1006YOPC   D2A14556   1.736   1.748   7.358 -0.1323  0.0331 -0.3547
 1006YOPC   C3A14557   1.805   2.182   7.288 -0.0131  0.0921 -0.1905
 1006YOPC   C4A14558   2.102   2.487   7.177 -0.0486 -0.1748 -0.0374
 1006YOPC   C1B14559   2.082   1.760   7.007  0.0750  0.0929 -0.1005
 1006YOPC   C2B14560   2.246   1.738   7.427  0.0932 -0.0342 -0.1553
 1006YOPC   D3B14561   2.187   1.760   7.906  0.1704  0.0944 -0.1839
 1006YOPC   C4B14562   1.984   1.993   8.211 -0.1482 -0.0017  0.3680
 1007YOPC   NC314563  15.044   3.121   5.431 -0.1631 -0.2759  0.0057
 1007YOPC   PO414564  15.054   3.343   5.878 -0.2622 -0.2150  0.1392
 1007YOPC   GL114565  15.060   3.525   6.363 -0.4679  0.0635  0.2828
 1007YOPC   GL214566  14.796   3.802   6.426  0.0760 -0.0871 -0.1798
 1007YOPC   C1A14567  15.071   3.768   6.829 -0.2342  0.0943 -0.0286
 1007YOPC   D2A14568  15.248   3.802   7.194 -0.2882 -0.0559 -0.0097
 1007YOPC   C3A14569  15.073   3.695   7.470  0.3651 -0.0241  0.3832
 1007YOPC   C4A14570  14.896   3.571   7.902  0.1102  0.0106  0.0179
 1007YOPC   C1B14571  14.596   3.942   6.878 -0.3449 -0.1343  0.1047
 1007YOPC   C2B14572  14.371   4.258   7.118  0.3987 -0.1947  0.1388
 1007YOPC   D3B14573  14.660   4.525   7.288  0.0705  0.1078 -0.0417
 1007YOPC   C4B14574  14.749   4.906   7.285  0.2902 -0.1597  0.1316
 1008YOPC   NC314575  16.801  14.525   5.972 -0.0773 -0.0911  0.0790
 1008YOPC   PO414576  16.707  14.917   6.130  0.0439  0.0179  0.1324
 1008YOPC   GL114577  16.781  14.679   6.463 -0.0015 -0.1859  0.0540
 1008YOPC   GL214578  16.976  14.382   6.462 -0.1107 -0.0714  0.1661
 1008YOPC   C1A14579  16.801  14.539   6.933 -0.0196 -0.1495  0.1864
 1008YOPC   D2A14580  16.580  14.331   7.309  0.0895  0.3333  0.0163
 1008YOPC   C3A14581  16.675  14.288   7.757 -0.1817  0.0579  0.2600
 1008YOPC   C4A14582  16.658  14.072   8.104 -0.1143 -0.0517 -0.4240
 1008YOPC   C1B14583  17.194  14.270   6.862 -0.0689 -0.0786  0.0495
 1008YOPC   C2B14584  17.317  14.235   7.326 -0.2341 -0.5023  0.0614
 1008YOPC   D3B14585  17.159  14.180   7.727  0.1911 -0.1363 -0.2867
 1008YOPC   C4B14586  17.173  13.972   8.071  0.1719 -0.2054 -0.2025
 1009YOPC   NC314587  12.844  15.598   6.050  0.2921 -0.1386  0.1593
 1009YOPC   PO414588  12.434  15.875   6.168  0.0331  0.1778 -0.0522
 1009YOPC   GL114589  12.602  15.838   6.647  0.0261  0.3121  0.2862
 1009YOPC   GL214590  12.899  15.834   6.661 -0.4784  0.3028  0.0381
 1009YOPC   C1A14591  12.587  15.584   7.074 -0.0935 -0.0100 -0.0676
 1009YOPC   D2A14592  12.709  15.506   7.415 -0.0695 -0.3243  0.0247
 1009YOPC   C3A14593  12.656  15.539   7.892  0.2682  0.0958 -0.0130
 1009YOPC   C4A14594  12.258  15.798   8.040 -0.0495 -0.0623 -0.0252
 1009YOPC   C1B14595  13.007  15.821   7.161 -0.1420  0.1296 -0.1127
 1009YOPC   C2B14596  12.937  15.879   7.609  0.2113 -0.2000  0.1364
 1009YOPC   D3B14597  13.164  15.681   7.958 -0.0046 -0.1577  0.0414
 1009YOPC   C4B14598  13.160  15.488   8.371 -0.0726 -0.1974  0.0451
 1010YOPC   NC314599   1.152   5.133   6.421  0.0112  0.1356 -0.0242
 1010YOPC   PO414600   0.925   4.735   6.574 -0.2551 -0.4115 -0.2005
 1010YOPC   GL114601   0.991   4.839   6.928 -0.0132  0.2990  0.2018
 1010YOPC   GL214602   0.843   5.144   6.835  0.0278 -0.0346 -0.2326
 1010YOPC   C1A14603   1.037   4.723   7.363  0.4021 -0.0317 -0.4686
 1010YOPC   D2A14604   1.216   4.528   7.769 -0.1981 -0.0426  0.1319
 1010YOPC   C3A14605   0.968   4.618   8.143 -0.1425  0.1698  0.3480
 1010YOPC   C4A14606   0.519   4.519   8.332  0.0651  0.0674  0.2014
 1010YOPC   C1B14607   0.723   5.109   7.327 -0.2117 -0.2938 -0.1556
 1010YOPC   C2B14608   0.841   4.927   7.734  0.2594  0.0302 -0.0573
 1010YOPC   D3B14609   1.070   5.093   8.061 -0.1584  0.0644 -0.0676
 1010YOPC   C4B14610   1.383   5.003   8.364 -0.1137  0.0429  0.1028
 1011YOPC   NC314611  11.725   1.960   6.445 -0.0649 -0.1137 -0.1118
 1011YOPC   PO414612  11.493   1.482   6.345  0.0883  0.2031 -0.1065
 1011YOPC   GL114613  11.231   1.569   6.718  0.2186 -0.2065  0.1222
 1011YOPC   GL214614  11.350   1.793   6.838 -0.3459  0.0362  0.1179
 1011YOPC   C1A14615  10.972   1.278   6.885  0.1250 -0.0873  0.0607
 1011YOPC   D2A14616  10.621   1.223   7.185 -0.1980 -0.1440 -0.2140
 1011YOPC   C3A14617  10.653   1.353   7.592  0.5753 -0.1727 -0.1313
 1011YOPC   C4A14618  10.886   1.521   8.023 -0.0765 -0.1567  0.1916
 1011YOPC   C1B14619  11.371   1.476   7.204 -0.2620  0.0960 -0.0530
 1011YOPC   C2B14620  11.126   1.275   7.450  0.3616  0.1596 -0.0307
 1011YOPC   D3B14621  11.173   1.114   7.842 -0.1626 -0.0908  0.1705
 1011YOPC   C4B14622  11.103   1.142   8.323 -0.1425 -0.0974 -0.0634
 1012YOPC   NC314623   4.888  15.495   6.170 -0.0535  0.0832 -0.1064
 1012YOPC   PO414624   4.494  15.802   6.342 -0.0414 -0.0259  0.1564
 1012YOPC   GL114625   4.723  15.948   6.685  0.1423  0.0887  0.0396
 1012YOPC   GL214626   5.005  15.773   6.600 -0.0648  0.1296 -0.0565
 1012YOPC   C1A14627   4.646  15.873   7.101  0.1510  0.0255 -0.2899
 1012YOPC   D2A14628   4.511  15.529   7.293  0.1174 -0.1048 -0.0039
 1012YOPC   C3A14629   4.489  15.613   7.768 -0.1262  0.2169 -0.0520
 1012YOPC   C4A14630   4.731  15.799   8.150 -0.1614 -0.0102 -0.0018
 1012YOPC   C1B14631   5.186  15.806   6.995  0.2109  0.0418 -0.0757
 1012YOPC   C2B14632   5.099  15.820   7.326  0.1423  0.2422  0.1351
 1012YOPC   D3B14633   4.963  15.569   7.618 -0.0675 -0.2848 -0.1964
 1012YOPC   C4B14634   4.873  15.338   8.035  0.2284 -0.2304 -0.0223
 1013YOPC   NC314635   8.772  11.725   6.065  0.1633 -0.1275 -0.1886
 1013YOPC   PO414636   9.233  11.612   6.155  0.3777 -0.0310  0.0898
 1013YOPC   GL114637   9.710  11.461   6.170  0.0466 -0.2454 -0.1252
 1013YOPC   GL214638   9.760  11.812   6.225  0.1638  0.3989  0.5144
 1013YOPC   C1A14639   9.949  11.308   6.582  0.0203 -0.0633  0.0286
 1013YOPC   D2A14640  10.049  11.265   6.896  0.0712  0.1141  0.2879
 1013YOPC   C3A14641  10.372  11.023   7.006  0.1015 -0.3205  0.0156
 1013YOPC   C4A14642  10.580  10.915   7.211  0.0160 -0.0934  0.0746
 1013YOPC   C1B14643   9.815  11.790   6.627 -0.1256 -0.1428 -0.0336
 1013YOPC   C2B14644   9.668  11.667   7.009 -0.0104  0.2865  0.0465
 1013YOPC   D3B14645   9.919  11.540   7.281  0.0244  0.4242 -0.2231
 1013YOPC   C4B14646  10.128  11.445   7.698 -0.0997 -0.2660 -0.3410
 1014YOPC   NC314647  10.431  17.589   5.546 -0.0671 -0.3081 -0.1705
 1014YOPC   PO414648  10.696  17.385   5.858  0.0358 -0.1595  0.3571
 1014YOPC   GL114649  10.652  17.241   6.208 -0.0422  0.3502 -0.1517
 1014YOPC   GL214650  10.859  17.315   6.467 -0.1325 -0.0868  0.4428
 1014YOPC   C1A14651  10.379  17.327   6.490  0.0860  0.2546 -0.1815
 1014YOPC   D2A14652  10.017  17.189   6.678  0.1021  0.0823 -0.4173
 1014YOPC   C3A14653  10.051  17.305   7.089  0.5004 -0.0400 -0.2615
 1014YOPC   C4A14654  10.127  17.343   7.609  0.2223  0.0901  0.2327
 1014YOPC   C1B14655  10.760  17.218   6.849  0.3113 -0.2643 -0.1975
 1014YOPC   C2B14656  10.601  17.183   7.308 -0.2687 -0.1989 -0.0366
 1014YOPC   D3B14657  10.598  17.410   7.578 -0.0676  0.3926  0.0470
 1014YOPC   C4B14658  10.545  17.394   8.022 -0.0434 -0.2212 -0.1659
 1015YOPC   NC314659  15.484  17.683   6.454  0.1335 -0.2129 -0.0567
 1015YOPC   PO414660  15.512  18.128   6.509  0.1692  0.1200  0.1187
 1015YOPC   GL114661  15.582  18.079   6.849  0.1321 -0.1927  0.1619
 1015YOPC   GL214662  15.775  18.352   7.034  0.1481 -0.1834  0.0723
 1015YOPC   C1A14663  15.628  17.893   7.312 -0.0214  0.1134  0.1209
 1015YOPC   D2A14664  15.636  17.985   7.808  0.0080  0.2065  0.1074
 1015YOPC   C3A14665  15.731  18.393   7.946  0.0431 -0.0106 -0.3096
 1015YOPC   C4A14666  16.055  18.505   8.232  0.0636 -0.1388 -0.0202
 1015YOPC   C1B14667  15.647  18.434   7.470 -0.1043  0.1316  0.1941
 1015YOPC   C2B14668  15.324  18.627   7.867 -0.2397  0.1835  0.2819
 1015YOPC   D3B14669  15.454  18.793   8.306 -0.2904 -0.2458 -0.0100
 1015YOPC   C4B14670  15.751  18.721   8.679  0.0245  0.0646 -0.1279
 1016YOPC   NC314671  11.802   1.116   6.486  0.2165  0.1481  0.1469
 1016YOPC   PO414672  12.076   0.852   6.226 -0.0147 -0.0266 -0.2209
 1016YOPC   GL114673  12.280   0.801   6.583  0.0091 -0.2773 -0.0354
 1016YOPC   GL214674  11.969   0.755   6.781  0.1192 -0.0357 -0.0967
 1016YOPC   C1A14675  12.273   1.087   6.977 -0.0080 -0.3835  0.1161
 1016YOPC   D2A14676  12.202   1.453   7.091 -0.0600  0.2754  0.0935
 1016YOPC   C3A14677  11.880   1.522   7.334  0.0907 -0.1621  0.0064
 1016YOPC   C4A14678  11.665   1.977   7.177  0.1652  0.3159 -0.5782
 1016YOPC   C1B14679  11.539   0.597   6.870 -0.1745  0.0880 -0.0030
 1016YOPC   C2B14680  11.346   0.569   7.123  0.1746  0.1685 -0.2517
 1016YOPC   D3B14681  11.346   0.832   7.424  0.1008 -0.0283 -0.0055
 1016YOPC   C4B14682  11.698   1.097   7.725  0.1674  0.1412  0.0857
 1017YOPC   NC314683   8.178   0.321   5.845  0.0898  0.0653  0.0530
 1017YOPC   PO414684   8.351  -0.044   5.606  0.1082 -0.1430  0.0118
 1017YOPC   GL114685   8.595  -0.006   5.980 -0.1920 -0.1426  0.1801
 1017YOPC   GL214686   8.541  -0.273   6.202 -0.0958 -0.1045 -0.1686
 1017YOPC   C1A14687   8.934  -0.046   6.359  0.0926 -0.0050  0.2050
 1017YOPC   D2A14688   8.792   0.182   6.689 -0.1694 -0.2953 -0.5073
 1017YOPC   C3A14689   8.423   0.062   6.916  0.2237 -0.1592  0.0649
 1017YOPC   C4A14690   8.220   0.275   7.295 -0.1766  0.2828 -0.0200
 1017YOPC   C1B14691   8.478  -0.386   6.617  0.0392  0.1797 -0.2101
 1017YOPC   C2B14692   8.655  -0.414   6.991  0.0035 -0.2060 -0.0744
 1017YOPC   D3B14693   9.025  -0.114   7.181  0.2041  0.0363  0.1727
 1017YOPC   C4B14694   9.402  -0.111   7.449 -0.2806 -0.1505  0.0541
 1018YOPC   NC314695   5.660  15.925   5.860  0.1782 -0.1648  0.0621
 1018YOPC   PO414696   5.527  15.710   6.231  0.0084  0.1386  0.1201
 1018YOPC   GL114697   5.664  15.684   6.610  0.0516  0.1118 -0.1253
 1018YOPC   GL214698   5.642  15.400   6.901 -0.0252  0.2123  0.0052
 1018YOPC   C1A14699   6.048  15.665   6.891 -0.0076  0.1512  0.0030
 1018YOPC   D2A14700   6.263  15.380   7.080 -0.0744  0.2252 -0.0037
 1018YOPC   C3A14701   6.343  15.276   7.491  0.1131 -0.1775  0.1140
 1018YOPC   C4A14702   6.099  14.937   7.705  0.0739 -0.1170 -0.1439
 1018YOPC   C1B14703   5.603  15.770   7.174 -0.4589  0.1902  0.2144
 1018YOPC   C2B14704   5.807  16.066   7.351 -0.0882 -0.0117 -0.2674
 1018YOPC   D3B14705   5.983  16.222   6.979 -0.1099  0.0008  0.2284
 1018YOPC   C4B14706   5.794  16.554   6.695 -0.2733  0.6251 -0.0517
 1019YOPC   NC314707  14.562  13.757   6.300 -0.2348 -0.3459  0.1646
 1019YOPC   PO414708  14.854  13.433   6.209  0.0853 -0.1094 -0.1997
 1019YOPC   GL114709  14.881  13.581   6.674 -0.3549 -0.1971 -0.2917
 1019YOPC   GL214710  15.079  13.592   6.806  0.0062  0.3483  0.1572
 1019YOPC   C1A14711  14.520  13.679   7.012 -0.0353 -0.2344  0.0600
 1019YOPC   D2A14712  14.533  13.730   7.478 -0.1525  0.0182 -0.2407
 1019YOPC   C3A14713  14.273  13.782   7.824 -0.1655  0.2504  0.1870
 1019YOPC   C4A14714  13.919  13.716   8.152 -0.0296  0.2509 -0.2729
 1019YOPC   C1B14715  14.915  13.452   7.144 -0.0487 -0.0532  0.0851
 1019YOPC   C2B14716  14.890  13.358   7.619  0.0889  0.0955  0.1469
 1019YOPC   D3B14717  14.574  13.229   7.802 -0.1257 -0.0659 -0.2198
 1019YOPC   C4B14718  14.185  13.134   8.021  0.0694 -0.2762 -0.0868
 1020YOPC   NC314719  16.587   4.396   6.337 -0.0220  0.2172 -0.0189
 1020YOPC   PO414720  16.312   4.047   6.145  0.0129  0.0688  0.0967
 1020YOPC   GL114721  16.213   4.048   6.521 -0.1048  0.1557  0.5277
 1020YOPC   GL214722  16.382   3.846   6.660 -0.0559  0.1288 -0.1626
 1020YOPC   C1A14723  16.024   3.881   6.973 -0.2009 -0.3901 -0.1071
 1020YOPC   D2A14724  15.936   4.232   7.308  0.1721  0.0083 -0.1135
 1020YOPC   C3A14725  16.054   4.217   7.764  0.0631  0.1741  0.2089
 1020YOPC   C4A14726  16.226   4.317   8.204 -0.1776 -0.2773  0.2025
 1020YOPC   C1B14727  16.472   3.673   6.927  0.0388 -0.1120  0.0581
 1020YOPC   C2B14728  16.497   3.676   7.272 -0.2574  0.2050  0.1102
 1020YOPC   D3B14729  16.098   3.798   7.463  0.1613  0.1742  0.0935
 1020YOPC   C4B14730  15.612   3.964   7.569  0.0768  0.2826 -0.1991
 1021YOPC   NC314731   7.588   0.868   5.789  0.0799  0.1883  0.0712
 1021YOPC   PO414732   7.636   0.463   5.758 -0.4632 -0.0570  0.1552
 1021YOPC   GL114733   7.517   0.598   6.209  0.1233 -0.0058 -0.2473
 1021YOPC   GL214734   7.297   0.621   6.324  0.1163 -0.0948 -0.2031
 1021YOPC   C1A14735   7.750   0.935   6.596 -0.1696 -0.1194 -0.0588
 1021YOPC   D2A14736   7.967   1.179   6.884  0.2892 -0.0506 -0.1505
 1021YOPC   C3A14737   8.145   1.245   7.260  0.1364  0.2647  0.0386
 1021YOPC   C4A14738   8.306   1.000   7.592  0.0623  0.0344  0.3829
 1021YOPC   C1B14739   7.327   0.759   6.723  0.0607 -0.0787  0.0091
 1021YOPC   C2B14740   7.374   0.771   7.207  0.1458  0.0051  0.3644
 1021YOPC   D3B14741   7.036   0.814   7.543  0.0053 -0.2238  0.0900
 1021YOPC   C4B14742   6.973   0.884   8.058  0.1080  0.0116 -0.2776
 1022YOPC   NC314743   5.587   7.134   6.385 -0.0275 -0.1215  0.0929
 1022YOPC   PO414744   5.814   6.735   6.338  0.2421 -0.0138  0.0880
 1022YOPC   GL114745   5.571   6.639   6.633  0.4605  0.0684  0.0329
 1022YOPC   GL214746   5.338   6.815   6.705  0.0979  0.1621  0.1386
 1022YOPC   C1A14747   5.368   6.435   7.048 -0.0533 -0.0388 -0.0232
 1022YOPC   D2A14748   5.168   6.495   7.469  0.2805  0.0486 -0.0604
 1022YOPC   C3A14749   5.009   6.472   7.859  0.0258  0.1569  0.2039
 1022YOPC   C4A14750   4.678   6.556   8.134  0.0802 -0.2950 -0.2369
 1022YOPC   C1B14751   5.330   6.987   7.090  0.3706 -0.2143  0.1352
 1022YOPC   C2B14752   5.394   7.201   7.486 -0.2568  0.1875  0.3460
 1022YOPC   D3B14753   5.412   7.023   7.868  0.0752  0.3700  0.1039
 1022YOPC   C4B14754   5.402   6.700   8.209 -0.0752  0.0743 -0.1514
 1023YOPC   NC314755   6.704  10.617   5.953  0.0249  0.0297  0.1766
 1023YOPC   PO414756   6.241  10.563   5.823 -0.1530  0.1624  0.1292
 1023YOPC   GL114757   6.265  10.561   6.289 -0.0531 -0.1555 -0.3787
 1023YOPC   GL214758   6.531  10.463   6.453 -0.3208  0.2756  0.0388
 1023YOPC   C1A14759   5.921  10.466   6.574  0.1995  0.2065  0.2589
 1023YOPC   D2A14760   5.783  10.381   7.038  0.2316  0.0262  0.2158
 1023YOPC   C3A14761   5.530  10.111   7.284  0.0394  0.0934 -0.1545
 1023YOPC   C4A14762   5.455   9.990   7.604  0.3932  0.3782 -0.2853
 1023YOPC   C1B14763   6.322  10.646   6.770  0.1463  0.0995  0.1952
 1023YOPC   C2B14764   6.260  10.604   7.094  0.0289 -0.0684 -0.1589
 1023YOPC   D3B14765   6.206  10.735   7.506 -0.0080  0.1495  0.0328
 1023YOPC   C4B14766   6.005  10.608   7.844  0.2953  0.5459  0.1552
 1024YOPC   NC314767  16.216  11.914   5.937 -0.1713  0.0172  0.0426
 1024YOPC   PO414768  16.192  11.628   6.248 -0.1553  0.4182  0.0495
 1024YOPC   GL114769  16.204  11.886   6.462  0.1090 -0.0716  0.2152
 1024YOPC   GL214770  16.199  12.276   6.402  0.1314  0.0180 -0.0015
 1024YOPC   C1A14771  16.165  11.939   6.937  0.1683  0.1692 -0.0654
 1024YOPC   D2A14772  16.451  11.950   7.413  0.1683 -0.0245  0.1517
 1024YOPC   C3A14773  16.641  11.841   7.820  0.3668  0.0116 -0.0906
 1024YOPC   C4A14774  16.961  11.930   8.147 -0.1558  0.1164 -0.1086
 1024YOPC   C1B14775  16.135  12.465   6.868  0.0656  0.2676  0.1027
 1024YOPC   C2B14776  16.118  12.395   7.229 -0.0489  0.1738  0.0710
 1024YOPC   D3B14777  15.982  12.077   7.470 -0.0896 -0.0465  0.0773
 1024YOPC   C4B14778  15.895  12.180   7.854  0.3287  0.0573  0.0099
 1025YOPC   NC314779   6.646  12.304   6.259 -0.2959  0.1352  0.1055
 1025YOPC   PO414780   6.325  12.148   6.343 -0.3138  0.5420  0.2096
 1025YOPC   GL114781   6.403  12.206   6.749  0.0014 -0.0489  0.0148
 1025YOPC   GL214782   6.346  11.938   7.010 -0.0998  0.0889 -0.0038
 1025YOPC   C1A14783   6.432  12.570   7.098 -0.1377 -0.1521 -0.1533
 1025YOPC   D2A14784   6.735  12.701   7.425  0.0414  0.0738 -0.3620
 1025YOPC   C3A14785   6.749  13.133   7.665  0.0661  0.1147 -0.0682
 1025YOPC   C4A14786   7.112  13.339   7.954  0.1387  0.1971  0.0104
 1025YOPC   C1B14787   6.620  11.612   7.099  0.0636 -0.0068 -0.2147
 1025YOPC   C2B14788   7.001  11.696   7.329  0.0978 -0.1724  0.0014
 1025YOPC   D3B14789   6.994  11.740   7.848 -0.1711  0.1779  0.1011
 1025YOPC   C4B14790   6.886  11.745   8.290 -0.0536  0.0048  0.0921
 1026YOPC   NC314791   4.790  11.164   5.790  0.0601 -0.0091 -0.2416
 1026YOPC   PO414792   4.813  11.042   6.087  0.1507  0.0926  0.2938
 1026YOPC   GL114793   4.690  11.189   6.362 -0.1099 -0.3362  0.0978
 1026YOPC   GL214794   4.404  11.131   6.518 -0.1101 -0.0728 -0.1785
 1026YOPC   C1A14795   4.666  11.518   6.708  0.0226  0.1718  0.0289
 1026YOPC   D2A14796   4.676  11.780   7.085 -0.0928  0.1202 -0.0073
 1026YOPC   C3A14797   4.819  11.761   7.487  0.0792 -0.0944  0.0834
 1026YOPC   C4A14798   4.618  11.789   7.907 -0.1715  0.1382 -0.3483
 1026YOPC   C1B14799   4.480  11.143   6.973  0.3291  0.2042 -0.0451
 1026YOPC   C2B14800   4.352  11.304   7.236  0.1469 -0.0686 -0.0544
 1026YOPC   D3B14801   4.396  11.037   7.626  0.0718  0.2201  0.0893
 1026YOPC   C4B14802   4.194  11.043   7.970 -0.0905  0.1306  0.0220
 1027YOPC   NC314803  16.853   2.911   6.353  0.2321 -0.0197  0.2835
 1027YOPC   PO414804  17.178   3.230   6.443  0.0266  0.3761 -0.0560
 1027YOPC   GL114805  17.203   3.140   6.842 -0.0419 -0.3226 -0.0920
 1027YOPC   GL214806  17.026   2.859   6.807  0.0714  0.3110 -0.0053
 1027YOPC   C1A14807  17.128   2.997   7.306  0.4482 -0.0714 -0.0856
 1027YOPC   D2A14808  17.087   3.105   7.800  0.1970 -0.0257  0.3362
 1027YOPC   C3A14809  16.979   2.719   8.027 -0.0044 -0.3211 -0.1582
 1027YOPC   C4A14810  16.977   2.343   8.041 -0.1895 -0.0598  0.0636
 1027YOPC   C1B14811  16.697   3.077   7.068 -0.1921 -0.1780 -0.0819
 1027YOPC   C2B14812  16.682   3.190   7.564  0.0158 -0.0059  0.2287
 1027YOPC   D3B14813  16.643   3.547   7.810  0.0030 -0.0875 -0.0369
 1027YOPC   C4B14814  16.496   3.966   7.796 -0.0223 -0.0687  0.0257
 1028YOPC   NC314815  11.621   7.134   6.151  0.1664 -0.0954  0.0187
 1028YOPC   PO414816  11.361   7.504   6.340 -0.0053 -0.2934 -0.3278
 1028YOPC   GL114817  11.274   7.693   6.640 -0.3200  0.2594  0.1788
 1028YOPC   GL214818  11.143   7.920   6.518  0.1057  0.1077 -0.0434
 1028YOPC   C1A14819  11.344   7.852   7.032 -0.0279  0.1029  0.0831
 1028YOPC   D2A14820  11.073   7.930   7.409 -0.2519  0.1155 -0.0713
 1028YOPC   C3A14821  11.292   7.856   7.798  0.1180 -0.0922 -0.0899
 1028YOPC   C4A14822  11.312   7.769   8.202  0.2519 -0.2221 -0.5670
 1028YOPC   C1B14823  11.128   8.229   6.789  0.1524 -0.1229 -0.0989
 1028YOPC   C2B14824  11.214   8.465   7.172  0.0890  0.1040 -0.3982
 1028YOPC   D3B14825  11.454   8.234   7.384 -0.0290 -0.2011  0.0658
 1028YOPC   C4B14826  11.557   8.303   7.790  0.1014  0.0830  0.1245
 1029YOPC   NC314827  13.876   3.564   6.098  0.1859 -0.1043  0.2139
 1029YOPC   PO414828  14.127   3.169   6.258  0.1616 -0.1790  0.0222
 1029YOPC   GL114829  13.974   3.371   6.558  0.1762 -0.0057 -0.1520
 1029YOPC   GL214830  13.615   3.257   6.547 -0.1658 -0.1751 -0.0262
 1029YOPC   C1A14831  13.892   3.762   6.748 -0.1630  0.2816 -0.0485
 1029YOPC   D2A14832  14.184   3.789   7.069 -0.1994  0.0178  0.0979
 1029YOPC   C3A14833  14.157   3.834   7.540 -0.1220 -0.2145 -0.1369
 1029YOPC   C4A14834  14.556   3.875   7.839  0.2949 -0.2826 -0.0043
 1029YOPC   C1B14835  13.290   3.418   6.879 -0.0156  0.2885 -0.1204
 1029YOPC   C2B14836  13.179   3.501   7.336  0.2757 -0.0680  0.1462
 1029YOPC   D3B14837  13.278   3.521   7.769  0.1061 -0.4203  0.0931
 1029YOPC   C4B14838  13.560   3.402   8.162  0.2786  0.0056  0.3296
 1030YOPC   NC314839  12.197  14.331   6.237  0.1311 -0.1587  0.4046
 1030YOPC   PO414840  11.938  13.926   6.473 -0.2136  0.4036 -0.2191
 1030YOPC   GL114841  11.747  14.156   6.757 -0.1737  0.1704  0.0560
 1030YOPC   GL214842  11.848  14.419   6.810 -0.2743  0.0195  0.1087
 1030YOPC   C1A14843  11.432  14.240   7.050  0.1946  0.2274  0.2267
 1030YOPC   D2A14844  11.196  14.205   7.430  0.0967 -0.1050  0.1339
 1030YOPC   C3A14845  11.405  14.189   7.698 -0.2752 -0.0484 -0.2064
 1030YOPC   C4A14846  11.816  14.379   7.900  0.0095  0.2854 -0.0063
 1030YOPC   C1B14847  11.997  14.554   7.089 -0.0173  0.0433 -0.0841
 1030YOPC   C2B14848  12.099  14.593   7.513 -0.1965 -0.4255  0.1857
 1030YOPC   D3B14849  12.231  14.168   7.647  0.0684  0.0061 -0.0277
 1030YOPC   C4B14850  12.460  13.851   7.379 -0.1359  0.1966  0.0443
 1031YOPC   NC314851  15.008  14.467   6.305 -0.0919 -0.0175  0.1801
 1031YOPC   PO414852  15.414  14.317   6.345 -0.3804  0.1074  0.2418
 1031YOPC   GL114853  15.468  14.132   6.637 -0.3209 -0.1033  0.1996
 1031YOPC   GL214854  15.596  13.760   6.592  0.1058 -0.1973  0.1962
 1031YOPC   C1A14855  15.398  13.979   7.087 -0.0807 -0.2866  0.3210
 1031YOPC   D2A14856  15.253  13.732   7.374  0.5659  0.1285  0.0994
 1031YOPC   C3A14857  15.262  13.771   7.765 -0.1039 -0.1147  0.2662
 1031YOPC   C4A14858  15.135  13.369   8.022 -0.3382  0.0589 -0.0948
 1031YOPC   C1B14859  15.817  13.706   6.954  0.1428 -0.1600  0.0692
 1031YOPC   C2B14860  16.073  13.614   7.322 -0.2983  0.0250 -0.0502
 1031YOPC   D3B14861  16.483  13.849   7.339  0.1009  0.1610 -0.2104
 1031YOPC   C4B14862  16.756  14.020   6.921  0.3359  0.0447 -0.0066
 1032YOPC   NC314863   8.067  17.717   6.047  0.1210 -0.0136  0.1596
 1032YOPC   PO414864   7.630  17.625   6.254 -0.2171 -0.0082  0.0953
 1032YOPC   GL114865   7.660  17.385   6.572 -0.2833 -0.0961 -0.0107
 1032YOPC   GL214866   7.573  17.566   6.815  0.2861 -0.2390 -0.2167
 1032YOPC   C1A14867   7.503  17.037   6.807 -0.4022 -0.1797 -0.0151
 1032YOPC   D2A14868   7.491  16.937   7.180  0.0709 -0.1695  0.1611
 1032YOPC   C3A14869   7.388  16.919   7.527  0.1225  0.0096  0.0996
 1032YOPC   C4A14870   7.267  17.163   7.870  0.2620  0.0966 -0.2898
 1032YOPC   C1B14871   7.912  17.835   7.067  0.3538 -0.0159 -0.0588
 1032YOPC   C2B14872   8.246  17.643   7.223 -0.1469  0.1503 -0.1980
 1032YOPC   D3B14873   8.280  17.527   7.603  0.0430 -0.0492  0.0081
 1032YOPC   C4B14874   8.279  17.417   8.055  0.1026 -0.0144  0.2211
 1033YOPC   NC314875   9.935  13.999   6.026 -0.1498 -0.2199  0.1980
 1033YOPC   PO414876   9.525  14.149   6.226  0.0524  0.1785  0.0558
 1033YOPC   GL114877   9.498  13.900   6.560 -0.1522  0.0544 -0.1712
 1033YOPC   GL214878   9.904  13.863   6.538  0.1314 -0.2769  0.1440
 1033YOPC   C1A14879   9.641  13.830   6.999  0.1459  0.0882  0.2270
 1033YOPC   D2A14880   9.399  13.845   7.455  0.1513  0.0239  0.0786
 1033YOPC   C3A14881   9.662  13.784   7.842 -0.0868 -0.2335  0.1294
 1033YOPC   C4A14882   9.875  13.707   8.266  0.0707  0.1033 -0.1810
 1033YOPC   C1B14883   9.985  13.495   6.870 -0.2275  0.0436  0.1605
 1033YOPC   C2B14884   9.826  13.037   6.980  0.1113  0.1777 -0.1453
 1033YOPC   D3B14885   9.510  12.916   6.844 -0.1412 -0.0913 -0.1324
 1033YOPC   C4B14886   9.115  12.947   6.608  0.0695  0.1228  0.0923
 1034YOPC   NC314887   2.178   8.837   6.315  0.0385 -0.1229 -0.1513
 1034YOPC   PO414888   2.591   8.841   6.552 -0.0580  0.1923 -0.2488
 1034YOPC   GL114889   2.625   8.914   7.003  0.0191  0.0960  0.4459
 1034YOPC   GL214890   2.771   9.099   6.993  0.0353  0.0105 -0.1897
 1034YOPC   C1A14891   2.525   8.754   7.326 -0.2275  0.1215  0.1057
 1034YOPC   D2A14892   2.540   8.869   7.731 -0.1407  0.0897  0.0908
 1034YOPC   C3A14893   2.269   9.066   7.991 -0.0951 -0.2075  0.0646
 1034YOPC   C4A14894   2.350   9.349   8.367  0.1896 -0.0811 -0.1136
 1034YOPC   C1B14895   2.783   9.227   7.389 -0.0202  0.2160  0.3284
 1034YOPC   C2B14896   2.944   9.203   7.732 -0.1762  0.0378 -0.0698
 1034YOPC   D3B14897   2.826   9.127   8.134 -0.2406 -0.0869 -0.0398
 1034YOPC   C4B14898   2.753   8.908   8.638  0.1965 -0.0396 -0.1042
 1035YOPC   NC314899   2.349  17.282   5.371 -0.2024  0.2214 -0.3430
 1035YOPC   PO414900   2.585  17.180   5.677 -0.2536  0.1506 -0.0270
 1035YOPC   GL114901   2.581  17.292   6.117 -0.1911 -0.1343  0.0769
 1035YOPC   GL214902   2.626  17.085   6.341  0.1211  0.2171 -0.0685
 1035YOPC   C1A14903   2.630  17.559   6.513 -0.1048  0.1338 -0.2234
 1035YOPC   D2A14904   2.981  17.858   6.600 -0.1160 -0.2813 -0.0831
 1035YOPC   C3A14905   3.270  17.732   6.770 -0.2829  0.2729  0.0923
 1035YOPC   C4A14906   3.546  17.371   6.553 -0.1053  0.1296  0.1072
 1035YOPC   C1B14907   2.669  16.986   6.781  0.1285 -0.1638 -0.1575
 1035YOPC   C2B14908   2.590  17.250   7.149  0.0894  0.2686 -0.0485
 1035YOPC   D3B14909   2.439  16.933   7.480  0.0452 -0.0984 -0.0259
 1035YOPC   C4B14910   2.275  16.965   7.842 -0.2161 -0.3925  0.0809
 1036YOPC   NC314911  15.965  14.644   6.185 -0.0208  0.2203 -0.4004
 1036YOPC   PO414912  15.819  14.977   6.187 -0.3134  0.0164  0.3267
 1036YOPC   GL114913  15.817  14.800   6.631  0.0471 -0.0877 -0.3070
 1036YOPC   GL214914  15.738  14.504   6.888 -0.0774 -0.3356  0.0769
 1036YOPC   C1A14915  15.523  14.939   6.948 -0.3454 -0.3337 -0.2342
 1036YOPC   D2A14916  15.641  15.036   7.291  0.1647 -0.2097 -0.1259
 1036YOPC   C3A14917  15.791  14.789   7.521  0.1237  0.1925 -0.3971
 1036YOPC   C4A14918  15.730  14.479   7.766  0.0519 -0.0438 -0.0029
 1036YOPC   C1B14919  15.725  14.342   7.275  0.1445 -0.1479 -0.0380
 1036YOPC   C2B14920  15.638  14.005   7.524  0.0510 -0.1767 -0.0724
 1036YOPC   D3B14921  15.835  13.682   7.764 -0.0235  0.1858  0.3352
 1036YOPC   C4B14922  16.112  13.390   7.958  0.2493  0.0224 -0.0578
 1037YOPC   NC314923  16.322   0.736   5.836  0.4100  0.2457  0.1765
 1037YOPC   PO414924  16.333   0.860   6.374 -0.1119  0.2774  0.0833
 1037YOPC   GL114925  16.273   0.825   6.836 -0.3009  0.2504  0.1760
 1037YOPC   GL214926  16.351   0.630   7.108  0.1261  0.1170 -0.0050
 1037YOPC   C1A14927  16.307   1.235   6.975 -0.1330 -0.0898  0.0182
 1037YOPC   D2A14928  16.713   1.334   7.049  0.2948 -0.1978 -0.0956
 1037YOPC   C3A14929  17.001   1.062   7.394  0.0354  0.0428  0.1740
 1037YOPC   C4A14930  17.296   0.675   7.499  0.0412  0.1165  0.0392
 1037YOPC   C1B14931  16.413   0.923   7.468 -0.1141  0.3084  0.0197
 1037YOPC   C2B14932  16.266   1.377   7.460  0.0576 -0.2141 -0.0740
 1037YOPC   D3B14933  16.083   1.434   7.876  0.1155  0.2531  0.0157
 1037YOPC   C4B14934  15.982   1.830   8.031 -0.0434 -0.1210 -0.3200
 1038YOPC   NC314935  16.528  16.096   6.262 -0.0402  0.0295  0.0396
 1038YOPC   PO414936  16.977  16.151   6.399  0.2128  0.1259  0.1046
 1038YOPC   GL114937  17.041  16.320   6.786 -0.1677  0.1072 -0.0560
 1038YOPC   GL214938  16.975  16.601   6.654  0.0143  0.3021 -0.0933
 1038YOPC   C1A14939  17.256  16.320   7.135  0.0240  0.1744 -0.1454
 1038YOPC   D2A14940  17.221  16.072   7.552 -0.1019  0.1270  0.2207
 1038YOPC   C3A14941  17.054  16.050   7.932 -0.2753 -0.1476 -0.5680
 1038YOPC   C4A14942  16.986  16.091   8.329  0.1825  0.0426  0.1014
 1038YOPC   C1B14943  16.714  16.868   6.789  0.1973  0.1915  0.0673
 1038YOPC   C2B14944  16.613  17.208   7.057  0.1864  0.0650 -0.0112
 1038YOPC   D3B14945  16.751  17.078   7.514  0.0431 -0.1667 -0.0634
 1038YOPC   C4B14946  16.745  16.897   7.857  0.1863 -0.0277 -0.0914
 1039YOPC   NC314947   2.671  13.838   6.220 -0.0723  0.3604  0.0329
 1039YOPC   PO414948   2.291  13.941   6.416  0.0051  0.2729 -0.0721
 1039YOPC   GL114949   2.302  14.260   6.767  0.2080  0.0093  0.0568
 1039YOPC   GL214950   2.043  14.315   6.721 -0.1977  0.1358  0.1975
 1039YOPC   C1A14951   2.338  14.310   7.191  0.0368 -0.0409  0.0902
 1039YOPC   D2A14952   2.059  14.470   7.393  0.3665 -0.2347 -0.2649
 1039YOPC   C3A14953   2.185  14.697   7.743  0.0815 -0.0127  0.0630
 1039YOPC   C4A14954   2.410  14.645   8.079  0.2935 -0.0645 -0.1666
 1039YOPC   C1B14955   1.918  14.661   6.907  0.0768  0.4924 -0.1774
 1039YOPC   C2B14956   1.625  14.748   7.192  0.0768  0.0314  0.3624
 1039YOPC   D3B14957   1.725  14.800   7.619 -0.3136 -0.0305  0.0138
 1039YOPC   C4B14958   1.805  14.817   8.074  0.0237 -0.0337 -0.1045
 1040YOPC   NC314959   6.197  16.325   6.113  0.2671 -0.3181  0.1266
 1040YOPC   PO414960   6.596  16.519   6.138  0.2483  0.0416 -0.2232
 1040YOPC   GL114961   6.827  16.375   6.479  0.1443 -0.0325 -0.3054
 1040YOPC   GL214962   7.173  16.336   6.535 -0.1347  0.1576 -0.1301
 1040YOPC   C1A14963   6.789  16.241   6.958  0.3574  0.3770 -0.1512
 1040YOPC   D2A14964   6.734  16.206   7.351 -0.0580  0.1175  0.0723
 1040YOPC   C3A14965   6.959  16.251   7.716 -0.1238  0.4149  0.2662
 1040YOPC   C4A14966   7.115  16.003   8.092 -0.0731  0.1663 -0.1018
 1040YOPC   C1B14967   7.325  16.153   6.834  0.2784 -0.2217 -0.1641
 1040YOPC   C2B14968   7.230  16.190   7.238  0.0058 -0.1868 -0.0057
 1040YOPC   D3B14969   7.282  15.838   7.558  0.2859 -0.2117 -0.2146
 1040YOPC   C4B14970   7.168  15.536   7.886  0.0010 -0.1524  0.2170
 1041YOPC   NC314971  16.693  10.775   5.544  0.0566  0.0722  0.1525
 1041YOPC   PO414972  16.588  10.531   5.938  0.3382  0.0290 -0.2382
 1041YOPC   GL114973  16.429  10.736   6.383  0.0453 -0.1845 -0.0093
 1041YOPC   GL214974  16.209  10.695   6.582 -0.1097 -0.1796 -0.3018
 1041YOPC   C1A14975  16.522  11.038   6.713  0.1602 -0.1741  0.0071
 1041YOPC   D2A14976  16.520  11.091   7.100 -0.0381 -0.0540 -0.0272
 1041YOPC   C3A14977  16.406  10.913   7.451  0.1353 -0.1877  0.1976
 1041YOPC   C4A14978  16.288  10.813   7.871  0.1227 -0.1289  0.1601
 1041YOPC   C1B14979  16.232  10.642   7.029 -0.2853 -0.0764  0.0957
 1041YOPC   C2B14980  16.083  10.500   7.549  0.0650  0.0577 -0.0098
 1041YOPC   D3B14981  15.745  10.610   7.920 -0.0652 -0.2183  0.1533
 1041YOPC   C4B14982  15.309  10.592   7.989  0.1874  0.2774  0.1195
 1042YOPC   NC314983   6.957   5.449   6.167 -0.2568 -0.1416  0.0054
 1042YOPC   PO414984   6.450   5.272   6.212 -0.0586 -0.0868  0.0577
 1042YOPC   GL114985   6.391   4.959   6.635  0.0605  0.1940  0.4396
 1042YOPC   GL214986   6.412   4.568   6.662  0.0355  0.0235  0.0536
 1042YOPC   C1A14987   6.541   4.792   7.104  0.0303 -0.1637 -0.1516
 1042YOPC   D2A14988   6.402   4.831   7.497  0.1220 -0.1361  0.0980
 1042YOPC   C3A14989   6.367   4.613   7.801  0.0800  0.2048  0.0243
 1042YOPC   C4A14990   6.234   4.421   8.095 -0.1169 -0.2283  0.1383
 1042YOPC   C1B14991   6.824   4.681   6.663 -0.1872 -0.0250 -0.0829
 1042YOPC   C2B14992   7.268   4.888   6.810 -0.2744  0.3258  0.2754
 1042YOPC   D3B14993   7.507   4.984   7.194  0.0790  0.1139 -0.2988
 1042YOPC   C4B14994   7.740   5.287   7.384 -0.1656 -0.2087  0.1015
 1043YOPC   NC314995   1.754   6.357   6.394  0.1291  0.0175 -0.2677
 1043YOPC   PO414996   2.262   6.267   6.303  0.0605 -0.3250  0.1807
 1043YOPC   GL114997   2.150   6.292   6.673  0.1592 -0.2439  0.0763
 1043YOPC   GL214998   1.970   6.500   6.875  0.0848  0.0331 -0.2036
 1043YOPC   C1A14999   2.194   6.049   7.104 -0.0094  0.1561 -0.0687
 1043YOPC   D2A15000   2.077   6.158   7.600  0.2033 -0.0541  0.0560
 1043YOPC   C3A15001   2.276   6.155   7.891 -0.1463  0.2478  0.2295
 1043YOPC   C4A15002   2.687   6.116   8.119 -0.0774 -0.2464 -0.1437
 1043YOPC   C1B15003   1.999   6.548   7.312 -0.0943 -0.1539  0.0186
 1043YOPC   C2B15004   1.641   6.381   7.634 -0.2136 -0.2197 -0.0528
 1043YOPC   D3B15005   1.760   6.227   8.038 -0.2861  0.0469 -0.3401
 1043YOPC   C4B15006   1.663   6.206   8.465 -0.4454  0.1207  0.1321
 1044YOPC   NC315007   1.500   5.784   6.618 -0.0750  0.1025  0.1884
 1044YOPC   PO415008   1.231   6.104   6.488  0.1768  0.1088 -0.4584
 1044YOPC   GL115009   1.260   6.163   6.930 -0.1766 -0.1364  0.2598
 1044YOPC   GL215010   1.627   6.159   6.929 -0.0479  0.0515 -0.0241
 1044YOPC   C1A15011   1.274   6.268   7.321  0.0367 -0.1566  0.2069
 1044YOPC   D2A15012   1.176   6.152   7.632  0.0851  0.0502  0.1656
 1044YOPC   C3A15013   0.796   6.338   7.935  0.2798  0.0911  0.2080
 1044YOPC   C4A15014   0.634   6.596   8.036  0.0855 -0.0984 -0.0187
 1044YOPC   C1B15015   1.719   5.971   7.300  0.0385  0.1255 -0.2285
 1044YOPC   C2B15016   1.589   5.798   7.636  0.0226  0.0611 -0.2659
 1044YOPC   D3B15017   1.429   5.883   8.022  0.2799  0.1531 -0.1691
 1044YOPC   C4B15018   1.100   5.959   8.154  0.0543  0.1269 -0.2243
 1045YOPC   NC315019  13.119   2.939   5.882 -0.0513 -0.2144  0.0549
 1045YOPC   PO415020  13.366   2.617   6.044 -0.0474  0.0734 -0.1373
 1045YOPC   GL115021  13.360   2.806   6.368 -0.1893 -0.1501  0.0432
 1045YOPC   GL215022  13.144   3.137   6.453 -0.1480 -0.1947  0.2424
 1045YOPC   C1A15023  13.370   2.754   6.828  0.1693 -0.1739  0.1159
 1045YOPC   D2A15024  13.091   2.672   7.175  0.0998 -0.1299  0.1050
 1045YOPC   C3A15025  13.431   2.516   7.421  0.0709 -0.1426 -0.0810
 1045YOPC   C4A15026  13.840   2.715   7.614  0.1816  0.3213 -0.1057
 1045YOPC   C1B15027  12.924   2.762   6.696 -0.2370  0.6563  0.1369
 1045YOPC   C2B15028  12.731   2.409   6.858  0.0323 -0.0334 -0.0468
 1045YOPC   D3B15029  12.680   2.467   7.190  0.2028 -0.0357  0.1281
 1045YOPC   C4B15030  12.597   2.809   7.415 -0.2052 -0.4873  0.4259
 1046YOPC   NC315031  11.073   2.263   6.085 -0.0486  0.0837  0.1358
 1046YOPC   PO415032  10.719   2.490   6.166  0.0590 -0.0610  0.4290
 1046YOPC   GL115033  10.488   2.528   6.517 -0.3795 -0.1248  0.1182
 1046YOPC   GL215034  10.335   2.750   6.573 -0.1552 -0.3249  0.1136
 1046YOPC   C1A15035  10.347   2.365   6.877  0.0369  0.3092  0.0920
 1046YOPC   D2A15036  10.069   2.444   7.272  0.2012 -0.2910  0.1745
 1046YOPC   C3A15037  10.066   2.264   7.666 -0.0245 -0.1340 -0.2830
 1046YOPC   C4A15038  10.094   1.977   8.118 -0.0639 -0.0014 -0.1448
 1046YOPC   C1B15039  10.419   2.807   7.083 -0.1711  0.0388  0.1774
 1046YOPC   C2B15040  10.285   2.945   7.558  0.1898 -0.1172  0.1445
 1046YOPC   D3B15041  10.115   2.701   7.845  0.1834 -0.0840  0.1978
 1046YOPC   C4B15042   9.933   2.507   8.206 -0.1880 -0.2957  0.4653
 1047YOPC   NC315043  13.313   9.797   6.033  0.0098  0.2487  0.1558
 1047YOPC   PO415044  13.086  10.073   5.649  0.0433  0.1244 -0.0942
 1047YOPC   GL115045  12.942  10.127   6.133  0.0896  0.2498 -0.5096
 1047YOPC   GL215046  13.055   9.924   6.420  0.2918  0.2112 -0.3605
 1047YOPC   C1A15047  12.704  10.233   6.585  0.1918 -0.0118  0.4630
 1047YOPC   D2A15048  12.872  10.472   6.970 -0.1090 -0.0762 -0.3109
 1047YOPC   C3A15049  12.818  10.405   7.442  0.1867 -0.0964  0.0588
 1047YOPC   C4A15050  12.858  10.320   7.801  0.0468  0.2196 -0.0762
 1047YOPC   C1B15051  13.029   9.942   6.860 -0.0100  0.3166  0.1425
 1047YOPC   C2B15052  13.018   9.999   7.238  0.2111 -0.2180 -0.3117
 1047YOPC   D3B15053  13.261   9.815   7.673  0.5738  0.3526 -0.1374
 1047YOPC   C4B15054  13.275   9.699   8.101 -0.1117 -0.1322 -0.0915
 1048YOPC   NC315055  13.649  13.246   6.070  0.1560  0.1384 -0.1444
 1048YOPC   PO415056  13.809  12.730   6.090 -0.4540  0.0892  0.0673
 1048YOPC   GL115057  13.849  12.793   6.432  0.0882 -0.0654 -0.0726
 1048YOPC   GL215058  13.875  13.117   6.489 -0.0612  0.1128  0.2915
 1048YOPC   C1A15059  14.274  12.832   6.674 -0.1029  0.0977  0.0348
 1048YOPC   D2A15060  14.493  13.175   6.853 -0.0151  0.0532 -0.1927
 1048YOPC   C3A15061  14.480  13.178   7.271 -0.4096 -0.4417  0.1143
 1048YOPC   C4A15062  14.285  12.883   7.543  0.2335 -0.1024 -0.1323
 1048YOPC   C1B15063  13.652  13.189   6.801  0.1710  0.0884  0.1314
 1048YOPC   C2B15064  13.742  13.439   7.213 -0.1697  0.0956  0.0971
 1048YOPC   D3B15065  14.098  13.825   7.276  0.1871  0.2907 -0.0389
 1048YOPC   C4B15066  14.218  14.242   7.507  0.0791 -0.1561  0.2476
 1049YOPC   NC315067  17.531   1.518   6.524  0.2124 -0.3634 -0.1441
 1049YOPC   PO415068  17.411   1.182   6.246 -0.0631 -0.0918 -0.2125
 1049YOPC   GL115069  17.564   1.048   6.587  0.2139  0.2072 -0.0499
 1049YOPC   GL215070  17.683   0.715   6.712 -0.0971 -0.1272 -0.1538
 1049YOPC   C1A15071  17.278   0.871   6.974  0.1042 -0.1868 -0.1586
 1049YOPC   D2A15072  16.823   0.754   7.077  0.1248  0.1490 -0.1322
 1049YOPC   C3A15073  16.793   0.498   7.382 -0.1245 -0.1326  0.0264
 1049YOPC   C4A15074  16.932   0.334   7.698 -0.1791 -0.2154 -0.1844
 1049YOPC   C1B15075  17.767   0.873   7.022  0.1006  0.0906 -0.0245
 1049YOPC   C2B15076  18.069   1.002   7.238  0.2771 -0.0320  0.0145
 1049YOPC   D3B15077  18.160   0.816   7.560  0.2341 -0.1897  0.2719
 1049YOPC   C4B15078  17.930   0.486   7.909  0.0118 -0.2158  0.0149
 1050YOPC   NC315079  15.452   1.118   5.924 -0.1974  0.0076 -0.3587
 1050YOPC   PO415080  15.595   1.497   6.189 -0.1746 -0.0681  0.1931
 1050YOPC   GL115081  15.718   1.732   6.590  0.2848  0.1238 -0.1891
 1050YOPC   GL215082  15.582   1.611   6.792  0.0643 -0.0747 -0.1514
 1050YOPC   C1A15083  15.621   2.011   7.036  0.1448  0.0295  0.1040
 1050YOPC   D2A15084  15.499   1.977   7.413  0.1628  0.0219 -0.1416
 1050YOPC   C3A15085  15.550   2.202   7.701 -0.0778  0.1582 -0.2777
 1050YOPC   C4A15086  15.552   2.189   8.189  0.0701 -0.0238 -0.0138
 1050YOPC   C1B15087  15.513   1.498   7.196  0.0994 -0.2421  0.2362
 1050YOPC   C2B15088  15.380   1.250   7.554 -0.1457  0.0480 -0.1750
 1050YOPC   D3B15089  15.215   0.886   7.364 -0.2521  0.2060 -0.0988
 1050YOPC   C4B15090  15.302   0.457   7.158  0.0870 -0.0844  0.0043
 1051YOPC   NC315091  17.745   6.607   6.107  0.1451  0.1536  0.1556
 1051YOPC   PO415092  17.451   6.202   6.134 -0.0563 -0.1902 -0.0396
 1051YOPC   GL115093  17.549   6.123   6.468 -0.0299  0.1337 -0.0798
 1051YOPC   GL215094  17.781   6.233   6.645 -0.1716 -0.2670 -0.2044
 1051YOPC   C1A15095  17.409   6.220   6.955  0.0161 -0.0780 -0.0445
 1051YOPC   D2A15096  17.215   5.952   7.406 -0.0709 -0.2144  0.1653
 1051YOPC   C3A15097  17.223   6.127   7.888  0.0586  0.1012  0.2408
 1051YOPC   C4A15098  17.198   6.010   8.313  0.0757 -0.0673 -0.2682
 1051YOPC   C1B15099  17.884   6.555   6.872 -0.2702  0.0381 -0.1151
 1051YOPC   C2B15100  17.843   6.553   7.188 -0.2728 -0.1978 -0.0093
 1051YOPC   D3B15101  17.913   6.958   7.498  0.3646  0.0017 -0.0956
 1051YOPC   C4B15102  17.997   7.292   7.698  0.2157  0.2821  0.1426
 1052YOPC   NC315103  10.089   6.712   6.220  0.1165  0.1239 -0.3405
 1052YOPC   PO415104  10.502   6.541   6.207 -0.1345  0.0852  0.0720
 1052YOPC   GL115105  10.381   6.514   6.627 -0.0420  0.3818  0.1325
 1052YOPC   GL215106  10.474   6.234   6.811  0.2312 -0.0849 -0.1425
 1052YOPC   C1A15107  10.332   6.812   7.003  0.2575  0.0969 -0.0124
 1052YOPC   D2A15108  10.118   6.914   7.326  0.0635 -0.1835 -0.0169
 1052YOPC   C3A15109  10.229   6.891   7.770  0.1681 -0.1739 -0.1408
 1052YOPC   C4A15110  10.275   6.634   8.097 -0.0048 -0.2995 -0.2455
 1052YOPC   C1B15111  10.442   6.370   7.246 -0.2835  0.1389 -0.3548
 1052YOPC   C2B15112  10.457   6.413   7.722 -0.0296  0.1339  0.3319
 1052YOPC   D3B15113  10.819   6.427   8.034 -0.0229 -0.4793 -0.0667
 1052YOPC   C4B15114  11.146   6.784   8.157 -0.1466 -0.0657  0.2300
 1053YOPC   NC315115  16.486  16.118   5.739  0.1139 -0.1765  0.1332
 1053YOPC   PO415116  16.263  16.426   5.937 -0.4176 -0.2543 -0.0617
 1053YOPC   GL115117  16.179  16.378   6.466 -0.0095 -0.0915 -0.1986
 1053YOPC   GL215118  16.035  16.549   6.642  0.0696 -0.2441  0.1817
 1053YOPC   C1A15119  16.445  16.467   6.866 -0.0914 -0.2500 -0.0814
 1053YOPC   D2A15120  16.350  16.749   7.242  0.1929 -0.0756  0.1307
 1053YOPC   C3A15121  16.247  16.639   7.734  0.1888 -0.0316  0.1672
 1053YOPC   C4A15122  16.334  16.946   8.150 -0.0888  0.1894 -0.1684
 1053YOPC   C1B15123  16.023  16.419   7.103 -0.0298 -0.4771  0.1443
 1053YOPC   C2B15124  16.342  16.205   7.365  0.0832 -0.1198 -0.0640
 1053YOPC   D3B15125  16.222  16.157   7.754 -0.2418  0.3117 -0.4696
 1053YOPC   C4B15126  16.085  16.469   8.212 -0.1507  0.3433 -0.3189
 1054YOPC   NC315127  17.399   8.346   6.221  0.0783  0.0874 -0.1018
 1054YOPC   PO415128  17.745   8.192   6.546  0.3373 -0.2210 -0.0657
 1054YOPC   GL115129  17.380   8.470   6.763  0.0121  0.2290 -0.1461
 1054YOPC   GL215130  17.404   8.740   6.767 -0.2339 -0.2237 -0.3305
 1054YOPC   C1A15131  17.084   8.418   7.085  0.3565  0.1377 -0.3233
 1054YOPC   D2A15132  17.141   8.430   7.486  0.1069 -0.1857 -0.1506
 1054YOPC   C3A15133  17.104   8.241   7.857 -0.0583  0.0177 -0.0786
 1054YOPC   C4A15134  17.049   7.904   8.016  0.1445  0.0120  0.0776
 1054YOPC   C1B15135  17.450   8.711   7.191  0.0790  0.0620  0.0616
 1054YOPC   C2B15136  17.607   8.849   7.532  0.1615  0.0988 -0.0442
 1054YOPC   D3B15137  17.329   8.782   7.802 -0.3348  0.4000 -0.0154
 1054YOPC   C4B15138  16.890   8.654   7.924 -0.0792 -0.1609 -0.0315
 1055YOPC   NC315139   5.636   5.335   6.085 -0.1730  0.1980 -0.3288
 1055YOPC   PO415140   5.333   5.111   5.896  0.5742  0.2459 -0.1932
 1055YOPC   GL115141   5.284   4.866   6.283 -0.4191  0.0316  0.3502
 1055YOPC   GL215142   5.497   4.791   6.368 -0.1383  0.1276  0.0221
 1055YOPC   C1A15143   5.068   4.985   6.619  0.2853 -0.2109  0.1401
 1055YOPC   D2A15144   5.210   4.936   6.988  0.1150 -0.0133  0.1019
 1055YOPC   C3A15145   5.048   4.676   7.314  0.0263 -0.0025  0.1203
 1055YOPC   C4A15146   4.590   4.727   7.369 -0.0541  0.0284 -0.1154
 1055YOPC   C1B15147   5.753   4.966   6.719  0.0086  0.0923 -0.2599
 1055YOPC   C2B15148   6.069   4.975   7.038  0.0667  0.1151 -0.1314
 1055YOPC   D3B15149   5.939   4.968   7.493 -0.0940  0.1681 -0.0263
 1055YOPC   C4B15150   6.117   5.048   7.990 -0.0395  0.1466  0.2672
 1056YOPC   NC315151   3.903   3.952   5.807  0.1437  0.2151  0.0267
 1056YOPC   PO415152   3.462   4.022   5.938  0.1669  0.2726 -0.0532
 1056YOPC   GL115153   3.444   3.956   6.362 -0.0207 -0.0659  0.0928
 1056YOPC   GL215154   3.388   4.306   6.478 -0.1151 -0.0840  0.1868
 1056YOPC   C1A15155   3.100   3.826   6.660 -0.1744  0.1837  0.2593
 1056YOPC   D2A15156   3.089   3.595   7.074  0.0831  0.2008  0.3040
 1056YOPC   C3A15157   3.307   3.800   7.438 -0.0534  0.4561  0.1013
 1056YOPC   C4A15158   3.698   3.812   7.500  0.1750  0.4139  0.1850
 1056YOPC   C1B15159   3.659   4.498   6.775 -0.0014 -0.0233 -0.1795
 1056YOPC   C2B15160   3.771   4.840   7.037 -0.0435 -0.1231  0.0571
 1056YOPC   D3B15161   3.964   4.721   7.463  0.0660  0.1500  0.1837
 1056YOPC   C4B15162   4.058   4.671   7.863 -0.3913  0.1982 -0.1411
 1057YOPC   NC315163   1.852   9.910   5.908 -0.0554  0.1164 -0.0384
 1057YOPC   PO415164   2.265   9.713   5.921  0.2169  0.0516 -0.2126
 1057YOPC   GL115165   2.518   9.518   6.337 -0.0237 -0.1306  0.0623
 1057YOPC   GL215166   2.343   9.272   6.569  0.2829  0.0027  0.1059
 1057YOPC   C1A15167   2.453   9.778   6.698  0.2729  0.1322  0.2583
 1057YOPC   D2A15168   1.935   9.948   6.781  0.1548 -0.0261 -0.0968
 1057YOPC   C3A15169   1.786  10.227   7.140 -0.0503  0.3758 -0.2000
 1057YOPC   C4A15170   1.761  10.447   7.499 -0.4258 -0.3519 -0.0674
 1057YOPC   C1B15171   2.317   9.238   7.130 -0.0146 -0.0471  0.0160
 1057YOPC   C2B15172   2.013   9.231   7.408  0.3238  0.1567  0.0693
 1057YOPC   D3B15173   2.195   9.446   7.617  0.0659 -0.0784 -0.1628
 1057YOPC   C4B15174   2.535   9.494   7.919 -0.3219 -0.1619 -0.2343
 1058YOPC   NC315175   0.215   7.845   6.470 -0.0568  0.0468  0.5612
 1058YOPC   PO415176   0.018   7.456   6.309  0.0427  0.1841 -0.0502
 1058YOPC   GL115177  -0.249   7.598   6.645  0.1649  0.2401  0.1954
 1058YOPC   GL215178  -0.122   7.728   6.831 -0.0199 -0.3155  0.5167
 1058YOPC   C1A15179  -0.570   7.454   6.918 -0.2531  0.3900  0.0553
 1058YOPC   D2A15180  -0.823   7.397   7.199  0.0523  0.0650  0.1276
 1058YOPC   C3A15181  -0.749   7.438   7.582 -0.0245  0.2234 -0.2725
 1058YOPC   C4A15182  -0.816   7.449   8.061  0.0232 -0.1257 -0.0449
 1058YOPC   C1B15183   0.011   7.819   7.166  0.3550 -0.1222  0.4765
 1058YOPC   C2B15184   0.190   7.929   7.532 -0.0329 -0.1749 -0.1418
 1058YOPC   D3B15185   0.156   7.741   7.869 -0.1333 -0.0593 -0.4476
 1058YOPC   C4B15186   0.274   7.724   8.292  0.0188 -0.0338 -0.0345
 1059YOPC   NC315187  15.525  12.510   6.210 -0.3609 -0.2556 -0.3194
 1059YOPC   PO415188  15.753  12.116   6.202 -0.3277  0.1596 -0.0632
 1059YOPC   GL115189  15.518  12.196   6.589 -0.2847  0.0251 -0.1817
 1059YOPC   GL215190  15.790  12.179   6.739  0.1436 -0.0061 -0.1536
 1059YOPC   C1A15191  15.313  12.489   6.905 -0.5254 -0.1673 -0.1695
 1059YOPC   D2A15192  15.179  12.597   7.306 -0.2118 -0.3181 -0.1462
 1059YOPC   C3A15193  15.080  12.403   7.672  0.2539  0.0348  0.2616
 1059YOPC   C4A15194  14.994  12.072   7.886  0.1548 -0.0546 -0.3418
 1059YOPC   C1B15195  15.666  12.170   7.138  0.0271 -0.1494 -0.2815
 1059YOPC   C2B15196  15.462  12.248   7.423  0.0868  0.0364  0.0671
 1059YOPC   D3B15197  15.442  11.980   7.771 -0.0598 -0.2616 -0.2434
 1059YOPC   C4B15198  15.512  12.100   8.218 -0.1072  0.0460 -0.0535
 1060YOPC   NC315199  10.362   9.383   6.490 -0.1671 -0.0072 -0.0717
 1060YOPC   PO415200  10.035   9.041   6.482 -0.5014  0.1765  0.1409
 1060YOPC   GL115201  10.177   8.949   6.803 -0.1008  0.2519  0.0208
 1060YOPC   GL215202   9.980   8.662   6.885 -0.0624 -0.2783  0.0921
 1060YOPC   C1A15203  10.276   8.944   7.194 -0.0867  0.2295 -0.2615
 1060YOPC   D2A15204  10.246   8.945   7.642 -0.2576 -0.2948 -0.2371
 1060YOPC   C3A15205   9.857   8.666   7.840 -0.4523 -0.0793 -0.2006
 1060YOPC   C4A15206   9.640   8.385   8.099 -0.1327 -0.1449  0.2509
 1060YOPC   C1B15207   9.860   8.328   7.135 -0.0710  0.2060  0.1767
 1060YOPC   C2B15208   9.825   8.244   7.564  0.1576 -0.0581 -0.2228
 1060YOPC   D3B15209   9.469   8.080   7.761 -0.1223 -0.1226  0.0669
 1060YOPC   C4B15210   9.126   7.873   7.591 -0.0191  0.0158  0.1884
 1061YOPC   NC315211   2.488  15.902   5.870 -0.0538  0.0850  0.1954
 1061YOPC   PO415212   2.870  16.094   5.972  0.0465 -0.0933  0.2950
 1061YOPC   GL115213   2.743  15.861   6.350 -0.0777 -0.2751 -0.0910
 1061YOPC   GL215214   2.413  15.709   6.276 -0.1429  0.1641 -0.1190
 1061YOPC   C1A15215   2.667  15.736   6.752 -0.1487 -0.1003  0.0906
 1061YOPC   D2A15216   2.695  16.015   7.159  0.1282 -0.0213  0.2469
 1061YOPC   C3A15217   2.968  15.954   7.541 -0.0180 -0.0856 -0.2038
 1061YOPC   C4A15218   3.112  15.947   7.998 -0.0724  0.0892  0.1608
 1061YOPC   C1B15219   2.003  15.735   6.383 -0.0941 -0.2059  0.1216
 1061YOPC   C2B15220   1.784  15.833   6.700 -0.1016 -0.0977 -0.2102
 1061YOPC   D3B15221   1.523  15.618   6.931 -0.2191 -0.1347  0.0126
 1061YOPC   C4B15222   1.617  15.309   7.178  0.3023 -0.0741  0.0816
 1062YOPC   NC315223   0.712  15.199   6.047  0.1082 -0.1661 -0.1047
 1062YOPC   PO415224   0.293  14.922   5.927 -0.1054 -0.0462  0.2363
 1062YOPC   GL115225   0.364  15.020   6.367 -0.0439  0.0801  0.1189
 1062YOPC   GL215226   0.155  15.318   6.544 -0.3619  0.2395  0.1154
 1062YOPC   C1A15227   0.509  15.066   6.864 -0.2117 -0.3876  0.1619
 1062YOPC   D2A15228   0.891  15.074   7.007  0.4806  0.0494  0.0762
 1062YOPC   C3A15229   1.235  14.990   6.868  0.1038  0.0912  0.1785
 1062YOPC   C4A15230   1.669  15.103   6.750 -0.1387 -0.3006  0.1747
 1062YOPC   C1B15231   0.030  15.032   6.771 -0.1477 -0.0507 -0.1802
 1062YOPC   C2B15232  -0.121  14.687   7.068  0.1737  0.0692  0.1610
 1062YOPC   D3B15233  -0.096  14.513   7.460 -0.2939 -0.4387  0.0664
 1062YOPC   C4B15234  -0.410  14.564   7.779  0.1331 -0.0748  0.0813
 1063YOPC   NC315235   5.702  15.243   6.400 -0.2285  0.1426 -0.1293
 1063YOPC   PO415236   5.660  14.885   6.129  0.1519 -0.2097 -0.0819
 1063YOPC   GL115237   5.367  14.814   6.481  0.1549 -0.1794  0.0716
 1063YOPC   GL215238   5.564  14.894   6.712 -0.1280 -0.3702  0.0132
 1063YOPC   C1A15239   4.999  14.812   6.866 -0.4554 -0.0550  0.0668
 1063YOPC   D2A15240   4.743  14.541   7.025 -0.1114  0.1541 -0.2471
 1063YOPC   C3A15241   4.792  14.308   7.454  0.0164 -0.0304  0.0922
 1063YOPC   C4A15242   5.222  14.267   7.569 -0.3007  0.0841 -0.4176
 1063YOPC   C1B15243   5.676  14.887   7.036  0.2410 -0.2658  0.0352
 1063YOPC   C2B15244   5.832  15.197   7.345 -0.0252  0.0641  0.2207
 1063YOPC   D3B15245   5.559  15.521   7.552 -0.1606 -0.1353  0.0724
 1063YOPC   C4B15246   5.381  15.793   7.758 -0.2771  0.1635 -0.1502
 1064YOPC   NC315247  17.503   7.881   6.241 -0.0259 -0.2177 -0.2221
 1064YOPC   PO415248  17.035   8.020   6.249  0.2011 -0.0482  0.2920
 1064YOPC   GL115249  16.704   8.245   6.511 -0.1526 -0.0335 -0.0234
 1064YOPC   GL215250  16.906   8.446   6.623 -0.3032 -0.3466  0.2199
 1064YOPC   C1A15251  16.732   8.045   6.844 -0.0546  0.0971 -0.0161
 1064YOPC   D2A15252  16.639   7.590   7.028  0.1532 -0.0490  0.0123
 1064YOPC   C3A15253  16.787   7.765   7.447  0.2447 -0.3452 -0.3882
 1064YOPC   C4A15254  16.758   8.123   7.453  0.2179 -0.0533  0.2709
 1064YOPC   C1B15255  16.562   8.567   6.995 -0.2888  0.1294  0.2954
 1064YOPC   C2B15256  16.684   8.645   7.352  0.0995 -0.1876 -0.2438
 1064YOPC   D3B15257  16.544   8.464   7.690  0.2476  0.1413 -0.1691
 1064YOPC   C4B15258  16.517   8.232   7.964 -0.0644 -0.0279  0.0058
 1065YOPC   NC315259   0.413  13.178   5.729  0.1052 -0.3505  0.2800
 1065YOPC   PO415260   0.239  12.789   5.990  0.3575  0.0258 -0.1674
 1065YOPC   GL115261   0.108  12.721   6.431  0.0018  0.0484  0.0497
 1065YOPC   GL215262   0.120  12.485   6.484 -0.0448  0.1795  0.0004
 1065YOPC   C1A15263   0.074  12.792   6.864  0.3365  0.0262  0.1317
 1065YOPC   D2A15264  -0.117  12.637   7.196 -0.1228  0.0727  0.0413
 1065YOPC   C3A15265  -0.293  12.805   7.630 -0.2664 -0.0547 -0.1340
 1065YOPC   C4A15266  -0.303  12.901   8.050  0.2989 -0.0283  0.3377
 1065YOPC   C1B15267  -0.019  12.248   6.891 -0.3061 -0.1286 -0.0284
 1065YOPC   C2B15268  -0.277  11.997   7.279  0.2236  0.2232 -0.1255
 1065YOPC   D3B15269  -0.015  11.907   7.661  0.2541  0.0468 -0.0266
 1065YOPC   C4B15270   0.344  11.739   7.722  0.0031 -0.0093  0.1538
 1066YOPC   NC315271   4.088   0.531   6.263  0.0134  0.0663  0.0986
 1066YOPC   PO415272   4.086   0.137   6.425  0.1800 -0.1580 -0.1684
 1066YOPC   GL115273   3.946   0.269   6.748  0.2418 -0.1607 -0.0922
 1066YOPC   GL215274   3.783   0.522   6.668  0.1548 -0.1775 -0.1551
 1066YOPC   C1A15275   3.760  -0.019   7.016  0.1408 -0.1554  0.1540
 1066YOPC   D2A15276   3.844  -0.189   7.492  0.1346  0.3637  0.1002
 1066YOPC   C3A15277   3.939  -0.095   7.861  0.2580 -0.1419  0.0146
 1066YOPC   C4A15278   3.952  -0.236   8.273 -0.1959 -0.2609  0.1141
 1066YOPC   C1B15279   3.632   0.462   7.091  0.4624  0.2363 -0.0996
 1066YOPC   C2B15280   3.739   0.287   7.493  0.2810 -0.3358 -0.2138
 1066YOPC   D3B15281   3.404  -0.011   7.792 -0.1609 -0.0834  0.0700
 1066YOPC   C4B15282   3.422  -0.084   8.290 -0.0922 -0.0139 -0.1543
 1067YOPC   NC315283  16.779  13.369   6.147 -0.1276  0.2560 -0.1270
 1067YOPC   PO415284  16.496  13.254   6.442 -0.1219  0.0993  0.0762
 1067YOPC   GL115285  16.858  13.174   6.701 -0.1441 -0.2774 -0.2492
 1067YOPC   GL215286  17.086  13.218   6.552 -0.1756  0.0870 -0.1183
 1067YOPC   C1A15287  16.865  13.010   7.080  0.2207  0.1372 -0.1031
 1067YOPC   D2A15288  16.899  12.816   7.434  0.0474 -0.0115 -0.2115
 1067YOPC   C3A15289  17.038  12.837   7.812 -0.2167  0.0537 -0.2260
 1067YOPC   C4A15290  17.010  13.045   8.285  0.2427 -0.2654  0.1680
 1067YOPC   C1B15291  16.927  13.532   7.024  0.0648  0.1290  0.4527
 1067YOPC   C2B15292  16.978  13.718   7.414 -0.0146 -0.1042 -0.1255
 1067YOPC   D3B15293  16.869  13.751   7.691  0.2048 -0.1197 -0.0626
 1067YOPC   C4B15294  16.370  13.809   7.838 -0.1929  0.0699  0.0856
 1068YOPC   NC315295  13.848  14.123   6.010  0.0763  0.2450 -0.0791
 1068YOPC   PO415296  13.894  13.690   6.074 -0.0059  0.1083  0.1836
 1068YOPC   GL115297  13.912  13.743   6.477  0.1458  0.0357  0.1003
 1068YOPC   GL215298  14.229  13.934   6.606  0.2042  0.1800 -0.0567
 1068YOPC   C1A15299  14.067  13.468   6.834 -0.2427  0.2443  0.0847
 1068YOPC   D2A15300  14.027  12.996   7.071 -0.0679  0.0702  0.0706
 1068YOPC   C3A15301  13.760  12.700   6.921 -0.1808  0.5154 -0.0266
 1068YOPC   C4A15302  13.467  12.446   7.073 -0.0236  0.2219  0.0896
 1068YOPC   C1B15303  13.939  14.093   6.878  0.0997 -0.0099 -0.0560
 1068YOPC   C2B15304  13.928  14.528   6.970  0.3005 -0.1087  0.3187
 1068YOPC   D3B15305  13.607  14.507   7.293 -0.2641 -0.0956 -0.1756
 1068YOPC   C4B15306  13.470  14.228   7.607 -0.3541  0.0380 -0.1020
 1069YOPC   NC315307   9.819   4.986   6.456  0.0614  0.0573 -0.0652
 1069YOPC   PO415308   9.890   5.435   6.371  0.0550  0.1245 -0.0004
 1069YOPC   GL115309   9.753   5.435   6.760  0.0124 -0.0310 -0.2505
 1069YOPC   GL215310  10.036   5.384   7.033  0.3550  0.1674 -0.2665
 1069YOPC   C1A15311   9.696   5.818   6.958  0.0324  0.1667 -0.2348
 1069YOPC   D2A15312   9.412   6.140   6.868  0.0501 -0.1079 -0.0993
 1069YOPC   C3A15313   9.474   6.533   6.953 -0.1511 -0.0726  0.0060
 1069YOPC   C4A15314   9.192   6.787   7.198  0.0970 -0.1116 -0.0909
 1069YOPC   C1B15315  10.217   5.540   7.394  0.3581 -0.2016  0.1816
 1069YOPC   C2B15316  10.475   5.552   7.795  0.2728  0.0093  0.0674
 1069YOPC   D3B15317  10.413   5.964   8.157  0.4095 -0.0099 -0.0255
 1069YOPC   C4B15318  10.524   6.340   8.426 -0.3049  0.1180 -0.1671
 1070YOPC   NC315319   2.124   0.813   5.590 -0.3013 -0.0424  0.1862
 1070YOPC   PO415320   1.907   0.848   6.034 -0.0861  0.3328 -0.0522
 1070YOPC   GL115321   2.173   0.754   6.395 -0.2520 -0.1263 -0.1000
 1070YOPC   GL215322   2.220   1.007   6.491 -0.0621 -0.0418 -0.0799
 1070YOPC   C1A15323   2.322   0.592   6.850 -0.0970 -0.0142  0.1674
 1070YOPC   D2A15324   2.442   0.878   7.104  0.1211 -0.1031  0.1714
 1070YOPC   C3A15325   2.818   0.865   7.442 -0.3256 -0.0168  0.2475
 1070YOPC   C4A15326   2.986   0.770   7.906  0.1422  0.0495  0.2662
 1070YOPC   C1B15327   2.080   1.292   6.813 -0.0563  0.3550 -0.0049
 1070YOPC   C2B15328   2.041   1.264   7.237 -0.1195 -0.0500  0.1887
 1070YOPC   D3B15329   2.204   0.953   7.550  0.2746  0.3694 -0.0035
 1070YOPC   C4B15330   2.494   0.793   7.811  0.2392 -0.1626 -0.1419
 1071YOPC   NC315331   3.970   3.162   5.780  0.1371 -0.1329  0.1733
 1071YOPC   PO415332   3.834   3.495   6.048  0.0150 -0.1760  0.0214
 1071YOPC   GL115333   4.001   3.559   6.446  0.0341  0.0213 -0.0763
 1071YOPC   GL215334   4.397   3.389   6.502 -0.0550 -0.2009  0.1583
 1071YOPC   C1A15335   3.784   3.650   6.868 -0.0105 -0.0038  0.2477
 1071YOPC   D2A15336   3.481   3.995   6.981 -0.1178  0.1040 -0.2024
 1071YOPC   C3A15337   3.568   4.274   7.376 -0.0777  0.1208  0.3290
 1071YOPC   C4A15338   3.760   4.224   7.796  0.1419  0.1772 -0.1960
 1071YOPC   C1B15339   4.261   3.476   6.852 -0.1303  0.1060 -0.0819
 1071YOPC   C2B15340   4.192   3.509   7.367 -0.1198 -0.0157 -0.0199
 1071YOPC   D3B15341   4.227   3.908   7.573 -0.2289  0.1290 -0.1497
 1071YOPC   C4B15342   4.356   4.337   7.691 -0.0923  0.2058 -0.0420
 1072YOPC   NC315343   5.809   2.356   6.099  0.0918 -0.1647  0.4112
 1072YOPC   PO415344   6.145   2.789   5.901 -0.2369  0.0620 -0.1622
 1072YOPC   GL115345   5.964   2.837   6.328  0.1455 -0.0156 -0.0465
 1072YOPC   GL215346   5.860   3.148   6.267  0.4066 -0.1420 -0.0847
 1072YOPC   C1A15347   5.862   2.634   6.695  0.1518  0.1067 -0.1424
 1072YOPC   D2A15348   5.839   2.227   6.765  0.1665  0.2093 -0.2241
 1072YOPC   C3A15349   5.801   1.994   7.216  0.0400  0.1424 -0.2894
 1072YOPC   C4A15350   6.034   1.755   7.499 -0.0040  0.2766  0.2322
 1072YOPC   C1B15351   5.852   3.119   6.824  0.0106  0.1176  0.1143
 1072YOPC   C2B15352   5.511   3.108   7.251 -0.0265 -0.0794 -0.0690
 1072YOPC   D3B15353   5.469   3.514   7.602  0.1080  0.1982  0.2820
 1072YOPC   C4B15354   5.418   3.605   7.996  0.0183  0.1643 -0.0100
 1073YOPC   NC315355   0.798   4.000   6.031 -0.1316 -0.2089  0.1516
 1073YOPC   PO415356   1.031   3.669   6.162  0.3110 -0.1650 -0.0369
 1073YOPC   GL115357   0.806   3.768   6.483  0.0712 -0.0190  0.2514
 1073YOPC   GL215358   0.753   3.478   6.527 -0.1823 -0.0504  0.2554
 1073YOPC   C1A15359   0.577   3.788   6.926  0.0324  0.0239  0.4166
 1073YOPC   D2A15360   0.137   3.614   7.026 -0.4188 -0.1044  0.0173
 1073YOPC   C3A15361   0.167   3.178   7.155 -0.0485 -0.0237 -0.1131
 1073YOPC   C4A15362   0.204   2.693   7.292  0.3582 -0.2072  0.1025
 1073YOPC   C1B15363   0.604   3.280   6.932  0.0671  0.0641 -0.0625
 1073YOPC   C2B15364   0.565   3.404   7.380 -0.0686  0.0553 -0.1541
 1073YOPC   D3B15365   0.854   3.332   7.722  0.0659  0.3053 -0.2190
 1073YOPC   C4B15366   0.971   2.862   7.831 -0.2119  0.1963  0.2861
 1074YOPC   NC315367   6.587  17.575   6.081  0.2552  0.2539  0.1095
 1074YOPC   PO415368   6.744  17.147   6.238  0.3791  0.0618 -0.0864
 1074YOPC   GL115369   6.589  16.894   6.588  0.0658 -0.1253 -0.4219
 1074YOPC   GL215370   6.389  17.134   6.671  0.0253 -0.0784  0.2594
 1074YOPC   C1A15371   6.428  16.561   6.774  0.1316 -0.2861  0.0090
 1074YOPC   D2A15372   6.287  16.571   7.163  0.1651 -0.0718 -0.1949
 1074YOPC   C3A15373   6.294  16.265   7.461  0.3002 -0.2794 -0.1409
 1074YOPC   C4A15374   6.484  16.277   7.841 -0.0188  0.0296  0.1537
 1074YOPC   C1B15375   6.459  17.070   7.130 -0.2553  0.0785 -0.0589
 1074YOPC   C2B15376   6.396  17.125   7.496 -0.2126 -0.2631  0.0400
 1074YOPC   D3B15377   6.446  16.754   7.680  0.0588  0.4726  0.0313
 1074YOPC   C4B15378   6.547  16.632   8.159  0.0026 -0.3518  0.1949
 1075YOPC   NC315379   1.972   3.326   6.176  0.0053 -0.0678 -0.4997
 1075YOPC   PO415380   2.112   3.836   6.101 -0.0308 -0.1932  0.1145
 1075YOPC   GL115381   2.082   3.729   6.584  0.2273 -0.0742 -0.2763
 1075YOPC   GL215382   2.211   4.113   6.699 -0.0933 -0.1653  0.1413
 1075YOPC   C1A15383   2.070   3.680   7.082 -0.2598 -0.1041  0.2807
 1075YOPC   D2A15384   2.201   3.627   7.576 -0.1723 -0.2584  0.3458
 1075YOPC   C3A15385   1.844   3.876   7.638 -0.2689 -0.0406  0.0986
 1075YOPC   C4A15386   1.695   4.262   7.587  0.2833  0.0572 -0.0358
 1075YOPC   C1B15387   2.269   4.131   7.206 -0.1507  0.1846 -0.0146
 1075YOPC   C2B15388   2.234   4.249   7.540 -0.0707  0.0987 -0.3958
 1075YOPC   D3B15389   2.435   3.949   7.874 -0.2013 -0.3820  0.0415
 1075YOPC   C4B15390   2.452   3.757   8.275  0.0604 -0.0078 -0.5743
 1076YOPC   NC315391  14.527   4.221   5.761  0.2353 -0.1828  0.0457
 1076YOPC   PO415392  14.468   4.164   6.226 -0.4108  0.0104 -0.1430
 1076YOPC   GL115393  14.589   4.371   6.609  0.3557  0.1660 -0.1088
 1076YOPC   GL215394  14.345   4.581   6.713 -0.1818  0.2199 -0.1227
 1076YOPC   C1A15395  14.829   4.686   6.847 -0.0332 -0.1007  0.2137
 1076YOPC   D2A15396  14.947   5.105   6.878 -0.0213 -0.0519 -0.0231
 1076YOPC   C3A15397  15.265   5.187   7.084 -0.1111  0.0274  0.0318
 1076YOPC   C4A15398  15.653   5.396   7.249  0.1387 -0.0225  0.0856
 1076YOPC   C1B15399  14.216   4.753   7.097 -0.2320 -0.1775 -0.0398
 1076YOPC   C2B15400  14.218   4.692   7.507 -0.2078 -0.0850 -0.3419
 1076YOPC   D3B15401  14.339   4.276   7.642 -0.1436 -0.1890  0.0985
 1076YOPC   C4B15402  14.681   3.992   7.374  0.1211  0.1072 -0.2150
 1077YOPC   NC315403   1.766  14.914   5.898 -0.0874  0.1175  0.1960
 1077YOPC   PO415404   1.715  15.275   5.839  0.0239  0.1008 -0.0886
 1077YOPC   GL115405   1.617  15.465   6.173 -0.3285  0.0907  0.2208
 1077YOPC   GL215406   1.494  15.847   6.191 -0.0526  0.1439  0.0502
 1077YOPC   C1A15407   1.322  15.378   6.513  0.2382  0.1213 -0.4420
 1077YOPC   D2A15408   0.894  15.255   6.556 -0.1787 -0.4004  0.0911
 1077YOPC   C3A15409   0.805  14.784   6.557 -0.0529  0.0427  0.0124
 1077YOPC   C4A15410   0.759  14.438   6.479  0.1429  0.0883  0.1298
 1077YOPC   C1B15411   1.344  15.927   6.565 -0.1931 -0.2059  0.4058
 1077YOPC   C2B15412   1.307  16.085   6.838 -0.2935  0.0399 -0.1030
 1077YOPC   D3B15413   1.467  15.957   7.286 -0.1746  0.0150 -0.2533
 1077YOPC   C4B15414   1.377  15.648   7.596  0.1125  0.0952 -0.3891
 1078YOPC   NC315415   8.774   0.111   5.414  0.1430 -0.2261 -0.3048
 1078YOPC   PO415416   8.677   0.404   5.729  0.0832 -0.0241 -0.2594
 1078YOPC   GL115417   8.779   0.438   6.132 -0.1308 -0.0420  0.1160
 1078YOPC   GL215418   8.602   0.660   6.264  0.1632 -0.0786  0.1723
 1078YOPC   C1A15419   9.037   0.493   6.452  0.1740 -0.3963  0.2623
 1078YOPC   D2A15420   9.145   0.470   6.909  0.1032 -0.0922  0.1585
 1078YOPC   C3A15421   8.847   0.396   7.200  0.4256 -0.1591 -0.0223
 1078YOPC   C4A15422   8.767   0.156   7.583 -0.2170 -0.2647  0.0252
 1078YOPC   C1B15423   8.592   0.612   6.802 -0.0023  0.1053  0.0042
 1078YOPC   C2B15424   8.426   0.701   7.206  0.1684  0.1988 -0.2350
 1078YOPC   D3B15425   8.514   0.578   7.649  0.1732 -0.0059  0.2875
 1078YOPC   C4B15426   8.547   0.608   8.094 -0.2536  0.2150  0.0134
 1079YOPC   NC315427   0.567  17.019   5.876 -0.2549 -0.1056 -0.1966
 1079YOPC   PO415428   0.497  17.452   5.960 -0.1761 -0.0650  0.1732
 1079YOPC   GL115429   0.628  17.584   6.386 -0.1622  0.2293  0.2289
 1079YOPC   GL215430   0.278  17.633   6.548  0.1857  0.1810 -0.2292
 1079YOPC   C1A15431   0.869  17.386   6.799  0.3078 -0.1835 -0.2243
 1079YOPC   D2A15432   0.804  17.160   7.178 -0.1108  0.0913 -0.1003
 1079YOPC   C3A15433   0.899  16.687   7.362 -0.0550 -0.1048  0.2753
 1079YOPC   C4A15434   0.952  16.519   7.798 -0.0267  0.2449 -0.4113
 1079YOPC   C1B15435   0.226  17.569   6.986  0.1948 -0.3281  0.0680
 1079YOPC   C2B15436  -0.063  17.234   7.194  0.1225 -0.1836  0.1829
 1079YOPC   D3B15437  -0.376  17.242   7.515 -0.0110 -0.1595 -0.0597
 1079YOPC   C4B15438  -0.613  17.154   7.788  0.1330 -0.1254 -0.2621
 1080YOPC   NC315439  16.355   9.904   6.028  0.0008 -0.0078  0.1450
 1080YOPC   PO415440  16.764   9.981   6.093 -0.1357  0.3449 -0.1587
 1080YOPC   GL115441  16.608   9.762   6.463 -0.2599 -0.2163  0.0830
 1080YOPC   GL215442  16.666   9.488   6.589  0.1075 -0.2253 -0.0121
 1080YOPC   C1A15443  16.434   9.821   6.950 -0.0617 -0.0126  0.0893
 1080YOPC   D2A15444  16.425   9.886   7.409  0.2501  0.0848  0.2170
 1080YOPC   C3A15445  16.110   9.954   7.585  0.0580 -0.2374 -0.0040
 1080YOPC   C4A15446  15.798   9.765   7.833  0.0434 -0.0541 -0.2374
 1080YOPC   C1B15447  16.628   9.377   7.046 -0.2415 -0.1608  0.1663
 1080YOPC   C2B15448  16.720   9.497   7.444 -0.0572  0.0093 -0.1074
 1080YOPC   D3B15449  16.521   9.608   7.811  0.0084 -0.0869 -0.2980
 1080YOPC   C4B15450  16.205   9.766   8.039  0.2549 -0.1265 -0.0000
 1081YOPC   NC315451   7.223   3.213   6.219 -0.2395 -0.0209 -0.2141
 1081YOPC   PO415452   7.722   3.266   6.201  0.0022  0.0358  0.0785
 1081YOPC   GL115453   7.580   3.208   6.631 -0.4060 -0.0765  0.1182
 1081YOPC   GL215454   7.463   2.932   6.746 -0.2286  0.0564  0.3761
 1081YOPC   C1A15455   7.568   3.243   7.070 -0.5189 -0.0255 -0.0680
 1081YOPC   D2A15456   7.201   3.397   7.390  0.2463  0.1106 -0.1054
 1081YOPC   C3A15457   7.118   3.415   7.852  0.3440 -0.0112  0.0806
 1081YOPC   C4A15458   7.197   3.364   8.334  0.0529  0.0274  0.0607
 1081YOPC   C1B15459   7.489   2.742   7.028 -0.2195 -0.0439  0.3134
 1081YOPC   C2B15460   7.697   2.629   7.430 -0.2532  0.1625  0.2584
 1081YOPC   D3B15461   7.504   2.523   7.864 -0.0713 -0.1106  0.2579
 1081YOPC   C4B15462   7.371   2.543   8.290 -0.1217 -0.2480  0.0338
 1082YOPC   NC315463   1.070  11.441   5.944  0.0441 -0.0660  0.3157
 1082YOPC   PO415464   0.986  11.072   5.977  0.0432  0.0121 -0.3622
 1082YOPC   GL115465   1.147  10.857   6.268  0.0518 -0.0944 -0.0551
 1082YOPC   GL215466   1.550  10.757   6.338  0.0653  0.2811 -0.0240
 1082YOPC   C1A15467   1.273  10.885   6.690 -0.0572 -0.1722  0.1326
 1082YOPC   D2A15468   1.317  10.970   7.113 -0.2254 -0.0898 -0.1361
 1082YOPC   C3A15469   1.098  11.177   7.490  0.1586  0.2337 -0.0124
 1082YOPC   C4A15470   0.934  11.179   7.889  0.0223 -0.2483 -0.0765
 1082YOPC   C1B15471   1.814  10.424   6.590  0.0375 -0.4948 -0.0062
 1082YOPC   C2B15472   2.185  10.368   6.827 -0.0692  0.1183 -0.0187
 1082YOPC   D3B15473   2.251  10.650   7.177  0.0758  0.4510  0.2798
 1082YOPC   C4B15474   2.538  10.803   7.434  0.1407 -0.0069 -0.1230
 1083YOPC   NC315475   4.500   7.774   6.191  0.0361 -0.0335 -0.1575
 1083YOPC   PO415476   4.505   8.144   6.334  0.0577  0.3219  0.1523
 1083YOPC   GL115477   4.358   8.107   6.753 -0.1825  0.0054 -0.0130
 1083YOPC   GL215478   4.194   8.439   6.840  0.1805  0.0821  0.0153
 1083YOPC   C1A15479   4.132   7.886   7.033 -0.0285 -0.1822  0.1350
 1083YOPC   D2A15480   4.265   7.887   7.337 -0.2832 -0.4058 -0.1175
 1083YOPC   C3A15481   3.988   7.894   7.733  0.1415 -0.2261 -0.0018
 1083YOPC   C4A15482   3.631   7.730   7.910 -0.1796 -0.1619 -0.0325
 1083YOPC   C1B15483   4.500   8.451   7.151 -0.1749 -0.0526  0.1520
 1083YOPC   C2B15484   4.846   8.627   7.211 -0.0157  0.3951 -0.2092
 1083YOPC   D3B15485   4.889   8.647   7.627 -0.2720 -0.0352  0.0956
 1083YOPC   C4B15486   4.765   8.412   8.007  0.0475  0.0831 -0.0177
 1084YOPC   NC315487  14.011  10.323   5.794  0.1619  0.2933  0.0067
 1084YOPC   PO415488  13.594  10.145   5.825  0.1919  0.1325 -0.0165
 1084YOPC   GL115489  13.483  10.186   6.275 -0.2903 -0.0234  0.2533
 1084YOPC   GL215490  13.841  10.327   6.322  0.2834  0.3336  0.2993
 1084YOPC   C1A15491  13.268  10.352   6.534  0.0853 -0.2148 -0.0559
 1084YOPC   D2A15492  13.363  10.366   6.903  0.0577  0.0503 -0.2105
 1084YOPC   C3A15493  13.369  10.401   7.376  0.2407 -0.0863 -0.0287
 1084YOPC   C4A15494  13.713  10.457   7.653 -0.0411 -0.3493  0.0288
 1084YOPC   C1B15495  13.879  10.297   6.762  0.0382  0.3680 -0.0163
 1084YOPC   C2B15496  13.963  10.339   7.182  0.0230 -0.0364 -0.2253
 1084YOPC   D3B15497  14.196  10.298   7.537 -0.0663 -0.1231 -0.3061
 1084YOPC   C4B15498  14.274  10.010   7.952  0.0102 -0.0576  0.0249
 1085YOPC   NC315499  10.122  16.626   5.846 -0.0892 -0.0876 -0.0224
 1085YOPC   PO415500  10.349  16.416   6.221 -0.0680 -0.0997 -0.0065
 1085YOPC   GL115501   9.921  16.501   6.311 -0.0430  0.1069 -0.0252
 1085YOPC   GL215502   9.923  16.656   6.572 -0.0708 -0.0271 -0.2619
 1085YOPC   C1A15503   9.600  16.440   6.252  0.0503  0.0714  0.0585
 1085YOPC   D2A15504   9.296  16.126   6.301 -0.0738 -0.1572  0.2385
 1085YOPC   C3A15505   9.119  16.158   6.617  0.0128  0.4085 -0.1454
 1085YOPC   C4A15506   8.931  15.809   6.795 -0.0246 -0.1123 -0.0009
 1085YOPC   C1B15507   9.803  16.452   6.885 -0.0423 -0.0500  0.2394
 1085YOPC   C2B15508   9.810  16.386   7.307 -0.0805  0.2820  0.2296
 1085YOPC   D3B15509   9.621  16.705   7.633 -0.3580 -0.2551  0.2767
 1085YOPC   C4B15510   9.705  17.044   7.877 -0.0394  0.1664 -0.1338
 1086YOPC   NC315511  16.674   3.721   6.248  0.0737  0.0632 -0.0461
 1086YOPC   PO415512  17.048   3.695   6.275 -0.3008  0.2715  0.0738
 1086YOPC   GL115513  17.239   3.696   6.714 -0.2621 -0.1202 -0.0151
 1086YOPC   GL215514  17.555   3.872   6.818  0.1797 -0.0333 -0.0564
 1086YOPC   C1A15515  16.990   3.505   7.143 -0.0161 -0.1562 -0.0488
 1086YOPC   D2A15516  17.113   3.562   7.571 -0.0373 -0.0235  0.3659
 1086YOPC   C3A15517  17.453   3.411   7.694  0.1910  0.0271  0.4946
 1086YOPC   C4A15518  17.893   3.545   7.521  0.0022 -0.0415 -0.3710
 1086YOPC   C1B15519  17.537   3.771   7.267  0.3652 -0.0752  0.1850
 1086YOPC   C2B15520  17.431   3.895   7.771 -0.1470 -0.1425 -0.0456
 1086YOPC   D3B15521  17.089   3.731   8.025 -0.0031  0.0955 -0.0535
 1086YOPC   C4B15522  16.913   3.468   8.307  0.2175 -0.0285 -0.1244
 1087YOPC   NC315523  11.095   0.200   5.839  0.3300  0.0103  0.3969
 1087YOPC   PO415524  10.871  -0.025   5.599  0.0017 -0.0481  0.1736
 1087YOPC   GL115525  10.577   0.047   5.931 -0.2222  0.1537 -0.0488
 1087YOPC   GL215526  10.744  -0.035   6.126  0.1525 -0.0294  0.1061
 1087YOPC   C1A15527  10.582   0.456   6.328 -0.0629  0.3067  0.2304
 1087YOPC   D2A15528  10.612   0.818   6.651  0.1444 -0.2538  0.1152
 1087YOPC   C3A15529  10.420   0.832   6.987 -0.0329  0.0795  0.2425
 1087YOPC   C4A15530  10.148   1.015   7.356  0.1924  0.3985 -0.0360
 1087YOPC   C1B15531  10.662  -0.112   6.565  0.1026 -0.2293 -0.1497
 1087YOPC   C2B15532  10.428  -0.197   6.869 -0.0313 -0.0181  0.1068
 1087YOPC   D3B15533  10.432  -0.181   7.241  0.2409 -0.0533 -0.0212
 1087YOPC   C4B15534  10.364   0.055   7.544  0.0501 -0.0627 -0.0812
 1088YOPC   NC315535  10.415  15.729   5.745  0.0193  0.1368  0.5453
 1088YOPC   PO415536  10.536  15.474   6.020 -0.1418 -0.2730  0.0325
 1088YOPC   GL115537  10.726  15.654   6.418  0.2002  0.2218 -0.1622
 1088YOPC   GL215538  10.943  15.588   6.536 -0.0689  0.2416  0.2172
 1088YOPC   C1A15539  10.564  15.858   6.766 -0.0004  0.4048  0.0893
 1088YOPC   D2A15540  10.169  15.971   6.900 -0.1456  0.4952  0.2407
 1088YOPC   C3A15541   9.917  15.913   7.335 -0.2860 -0.0314 -0.0948
 1088YOPC   C4A15542   9.541  15.884   7.562  0.2939  0.1958  0.0552
 1088YOPC   C1B15543  11.004  15.762   7.023 -0.2291 -0.3335  0.0737
 1088YOPC   C2B15544  10.966  15.715   7.372 -0.3308  0.1419 -0.4749
 1088YOPC   D3B15545  10.957  15.490   7.748  0.2018  0.0919 -0.0788
 1088YOPC   C4B15546  10.726  15.568   8.170  0.2204  0.0681  0.1497
 1089YOPC   NC315547  16.239   2.538   6.209 -0.1207 -0.0964 -0.0690
 1089YOPC   PO415548  16.681   2.523   6.127  0.0163  0.1096  0.2015
 1089YOPC   GL115549  16.639   2.452   6.556  0.0094  0.0763 -0.0168
 1089YOPC   GL215550  16.819   2.278   6.642 -0.0002 -0.1251 -0.0164
 1089YOPC   C1A15551  16.657   2.579   7.065  0.1560 -0.2468  0.0897
 1089YOPC   D2A15552  16.841   2.552   7.501  0.3169 -0.0257  0.2072
 1089YOPC   C3A15553  16.531   2.284   7.761 -0.3306 -0.2308  0.3856
 1089YOPC   C4A15554  16.344   1.828   7.725 -0.0628  0.1973 -0.1275
 1089YOPC   C1B15555  16.838   2.080   7.066  0.0204  0.0209  0.2224
 1089YOPC   C2B15556  16.834   2.060   7.487 -0.0481 -0.0490  0.0424
 1089YOPC   D3B15557  16.858   1.874   7.967  0.1943  0.0192  0.0215
 1089YOPC   C4B15558  16.942   1.615   8.346 -0.2378 -0.0313  0.0865
 1090YOPC   NC315559   5.502  13.987   5.935  0.1471  0.2347  0.2220
 1090YOPC   PO415560   5.893  14.187   6.101 -0.0865 -0.0180  0.0391
 1090YOPC   GL115561   5.826  14.110   6.576  0.0635  0.1781 -0.0167
 1090YOPC   GL215562   5.633  14.406   6.595 -0.1121  0.2214  0.0467
 1090YOPC   C1A15563   5.864  13.846   6.983  0.3878  0.1163  0.2423
 1090YOPC   D2A15564   5.759  13.474   7.250  0.0149  0.2952  0.2332
 1090YOPC   C3A15565   5.733  13.401   7.664  0.4556  0.0052  0.3371
 1090YOPC   C4A15566   5.636  13.646   8.032  0.1206  0.0296  0.0284
 1090YOPC   C1B15567   5.671  14.305   7.034  0.0771 -0.0611 -0.5646
 1090YOPC   C2B15568   5.707  14.138   7.494  0.0611 -0.0407  0.0630
 1090YOPC   D3B15569   5.562  14.164   7.962  0.2951 -0.1624 -0.2238
 1090YOPC   C4B15570   5.205  14.455   8.122  0.0718  0.1463 -0.0188
 1091YOPC   NC315571  17.340   4.055   6.333 -0.3705  0.1116  0.1514
 1091YOPC   PO415572  17.102   4.475   6.353  0.2825 -0.0645 -0.1957
 1091YOPC   GL115573  17.298   4.323   6.706 -0.1697  0.2182  0.0550
 1091YOPC   GL215574  17.111   4.463   6.890 -0.3851 -0.1139 -0.0728
 1091YOPC   C1A15575  17.592   4.243   7.066 -0.3288 -0.0454  0.0004
 1091YOPC   D2A15576  17.732   4.208   7.429  0.0925  0.2427 -0.2415
 1091YOPC   C3A15577  17.732   4.231   7.887 -0.0135  0.1720  0.0553
 1091YOPC   C4A15578  17.413   4.055   8.291  0.2901 -0.1451 -0.1461
 1091YOPC   C1B15579  17.186   4.507   7.293  0.3468 -0.1301 -0.1381
 1091YOPC   C2B15580  17.327   4.443   7.778 -0.1426  0.0062 -0.1131
 1091YOPC   D3B15581  17.738   4.713   7.705  0.1577  0.2410  0.0995
 1091YOPC   C4B15582  18.003   4.735   8.056  0.0682  0.0099  0.0670
 1092YOPC   NC315583   7.318  12.293   6.083  0.0107  0.0203  0.4301
 1092YOPC   PO415584   7.053  12.532   6.275  0.3705 -0.2244  0.2156
 1092YOPC   GL115585   7.293  12.654   6.620  0.2637 -0.2572 -0.0755
 1092YOPC   GL215586   7.276  12.956   6.673 -0.0541 -0.1231  0.0355
 1092YOPC   C1A15587   7.470  12.396   6.920  0.1806 -0.1581  0.1790
 1092YOPC   D2A15588   7.356  12.429   7.401  0.2496  0.2378 -0.1369
 1092YOPC   C3A15589   7.170  12.586   7.747  0.2710  0.0201 -0.1822
 1092YOPC   C4A15590   7.269  12.892   8.091 -0.0469  0.4206  0.1531
 1092YOPC   C1B15591   7.280  13.214   6.934 -0.0900  0.1218 -0.4443
 1092YOPC   C2B15592   7.454  13.331   7.254  0.0426  0.1669  0.2210
 1092YOPC   D3B15593   7.860  13.460   7.255 -0.0464  0.0344  0.2010
 1092YOPC   C4B15594   8.263  13.386   7.349  0.1453 -0.1750 -0.2099
 1093YOPC   NC315595  15.451   6.357   6.211 -0.0040 -0.2011 -0.0280
 1093YOPC   PO415596  15.901   6.236   6.414 -0.0728  0.0821  0.2415
 1093YOPC   GL115597  15.640   6.299   6.725 -0.1203  0.1711 -0.2525
 1093YOPC   GL215598  15.367   6.057   6.708  0.3001 -0.1397  0.0824
 1093YOPC   C1A15599  15.568   6.440   7.172 -0.0806 -0.0124  0.2353
 1093YOPC   D2A15600  15.551   6.518   7.508 -0.0286  0.2377  0.0892
 1093YOPC   C3A15601  15.667   6.507   7.948  0.3234  0.1250 -0.1758
 1093YOPC   C4A15602  15.289   6.396   8.201 -0.0724  0.0220 -0.1983
 1093YOPC   C1B15603  15.178   6.420   6.841 -0.1123 -0.2456 -0.0699
 1093YOPC   C2B15604  15.043   6.524   7.322 -0.2665  0.3147 -0.0948
 1093YOPC   D3B15605  15.035   6.314   7.658 -0.1963  0.0851 -0.0114
 1093YOPC   C4B15606  15.025   5.990   8.081  0.0715 -0.1015 -0.3169
 1094YOPC   NC315607   6.213  11.008   6.045 -0.0445  0.1341  0.1352
 1094YOPC   PO415608   5.775  11.238   6.101  0.0906  0.1275 -0.2281
 1094YOPC   GL115609   5.555  11.311   6.506  0.2383 -0.0808  0.3609
 1094YOPC   GL215610   5.698  11.489   6.598  0.0395  0.1917  0.0844
 1094YOPC   C1A15611   5.372  11.227   6.913 -0.2061 -0.1689  0.0629
 1094YOPC   D2A15612   5.333  11.157   7.347 -0.0904 -0.1474  0.0848
 1094YOPC   C3A15613   5.252  11.506   7.707  0.2255 -0.0356  0.0643
 1094YOPC   C4A15614   5.314  11.707   8.063 -0.1814  0.0283 -0.2549
 1094YOPC   C1B15615   5.722  11.568   7.008 -0.1940  0.0507  0.2508
 1094YOPC   C2B15616   5.854  11.908   7.231 -0.1492 -0.1378  0.1609
 1094YOPC   D3B15617   6.232  11.832   7.589  0.0881  0.2743  0.0527
 1094YOPC   C4B15618   6.593  11.593   7.617  0.1157 -0.2672 -0.0008
 1095YOPC   NC315619  10.980  11.500   6.189 -0.0813  0.0239 -0.1828
 1095YOPC   PO415620  11.271  11.133   6.417 -0.0840 -0.0628 -0.0245
 1095YOPC   GL115621  11.569  11.233   6.693  0.2029 -0.1886 -0.3200
 1095YOPC   GL215622  11.352  11.269   6.950 -0.1034 -0.4066  0.0105
 1095YOPC   C1A15623  11.846  11.258   7.030 -0.1850 -0.3305 -0.0265
 1095YOPC   D2A15624  12.265  11.088   7.186  0.1745 -0.4105 -0.1617
 1095YOPC   C3A15625  12.141  11.019   7.626  0.2440 -0.3493 -0.0482
 1095YOPC   C4A15626  12.187  11.287   7.963  0.0389  0.1533  0.2735
 1095YOPC   C1B15627  11.464  11.444   7.334 -0.0218  0.0847  0.0633
 1095YOPC   C2B15628  11.418  11.631   7.834 -0.0637 -0.0552  0.1695
 1095YOPC   D3B15629  11.421  11.427   8.255  0.0995 -0.1349 -0.1245
 1095YOPC   C4B15630  11.779  11.302   8.379  0.0494  0.1994 -0.0204
 1096YOPC   NC315631  15.890   0.693   6.515 -0.1042  0.3919 -0.0278
 1096YOPC   PO415632  16.109   0.325   6.697  0.2738 -0.1889  0.0568
 1096YOPC   GL115633  16.111   0.157   7.062  0.3416  0.1822  0.0235
 1096YOPC   GL215634  16.391   0.109   7.187 -0.1053  0.1320  0.1323
 1096YOPC   C1A15635  16.042   0.305   7.523  0.1620 -0.0637 -0.0158
 1096YOPC   D2A15636  16.392   0.555   7.751 -0.1895 -0.1538 -0.0398
 1096YOPC   C3A15637  16.507   0.499   8.093 -0.2554 -0.0182 -0.1493
 1096YOPC   C4A15638  16.472   0.800   8.527 -0.2928  0.2633 -0.1039
 1096YOPC   C1B15639  16.472   0.118   7.546 -0.1123 -0.0701  0.2566
 1096YOPC   C2B15640  16.535   0.010   7.897  0.0727 -0.0615  0.1316
 1096YOPC   D3B15641  16.458  -0.450   7.922 -0.1234  0.2492  0.0186
 1096YOPC   C4B15642  16.300  -0.712   7.650  0.0854 -0.2686 -0.0235
 1097YOPC   NC315643   0.334  16.401   5.763  0.0339 -0.3243  0.1635
 1097YOPC   PO415644   0.314  16.659   6.204 -0.3789 -0.0019 -0.0936
 1097YOPC   GL115645   0.261  16.422   6.593 -0.0124 -0.0386 -0.0191
 1097YOPC   GL215646   0.456  16.580   6.868 -0.2662 -0.0846 -0.1594
 1097YOPC   C1A15647   0.250  16.088   6.983  0.0935 -0.2561  0.1948
 1097YOPC   D2A15648   0.219  15.847   7.293  0.1105  0.2297 -0.1339
 1097YOPC   C3A15649   0.369  15.889   7.732  0.1608  0.1684 -0.0852
 1097YOPC   C4A15650   0.584  16.142   7.983  0.0955  0.0790  0.1290
 1097YOPC   C1B15651   0.518  16.407   7.256  0.1408  0.1407 -0.2323
 1097YOPC   C2B15652   0.482  16.444   7.614 -0.1027 -0.0385  0.0881
 1097YOPC   D3B15653   0.539  16.847   7.813  0.0723 -0.0348  0.0983
 1097YOPC   C4B15654   0.638  16.978   8.231 -0.0514  0.0874 -0.0576
 1098YOPC   NC315655   1.733   4.099   5.928 -0.0746 -0.0517  0.2301
 1098YOPC   PO415656   1.554   4.490   6.007 -0.4953  0.1667  0.2220
 1098YOPC   GL115657   1.623   4.666   6.336  0.4108 -0.0763  0.2384
 1098YOPC   GL215658   1.414   4.664   6.474 -0.0091 -0.3700 -0.1826
 1098YOPC   C1A15659   2.027   4.783   6.628  0.0224 -0.1007  0.0635
 1098YOPC   D2A15660   2.373   4.896   6.733  0.2873  0.1671 -0.1115
 1098YOPC   C3A15661   2.473   4.559   6.950  0.0370  0.0835  0.0680
 1098YOPC   C4A15662   2.620   4.483   7.377 -0.0612 -0.0986  0.1472
 1098YOPC   C1B15663   1.527   4.768   6.893  0.3568 -0.2268 -0.2830
 1098YOPC   C2B15664   1.522   4.787   7.437  0.1293  0.0396 -0.0795
 1098YOPC   D3B15665   1.975   4.658   7.647  0.0567 -0.1045  0.0368
 1098YOPC   C4B15666   2.103   4.765   8.085 -0.0177  0.2435 -0.0347
 1099YOPC   NC315667   9.264   6.453   5.901  0.0662 -0.1617 -0.0488
 1099YOPC   PO415668   9.516   6.802   6.056 -0.2970 -0.1062 -0.1673
 1099YOPC   GL115669   9.236   6.724   6.391  0.2894 -0.0501 -0.1608
 1099YOPC   GL215670   9.339   6.903   6.649  0.0006 -0.0418  0.2095
 1099YOPC   C1A15671   8.995   6.552   6.732  0.1105  0.2411  0.2105
 1099YOPC   D2A15672   9.037   6.346   7.161 -0.0580  0.2585 -0.1868
 1099YOPC   C3A15673   8.905   6.498   7.472  0.1669  0.0891  0.2503
 1099YOPC   C4A15674   8.426   6.543   7.543  0.1061 -0.0440  0.1282
 1099YOPC   C1B15675   9.083   7.059   6.811  0.1157 -0.0015  0.2448
 1099YOPC   C2B15676   8.770   7.368   7.028  0.0435  0.3923 -0.1362
 1099YOPC   D3B15677   8.342   7.444   7.223  0.0000 -0.1440 -0.1297
 1099YOPC   C4B15678   7.839   7.720   7.322 -0.1873  0.1029  0.0402
 1100YOPC   NC315679   1.264  12.723   5.781 -0.0482  0.0586 -0.2110
 1100YOPC   PO415680   0.991  12.359   5.907 -0.1336  0.0710  0.2381
 1100YOPC   GL115681   1.116  12.094   6.201  0.0220 -0.0569 -0.4195
 1100YOPC   GL215682   1.227  11.801   6.240 -0.1096  0.1163  0.0370
 1100YOPC   C1A15683   0.912  12.060   6.544  0.0230 -0.0616 -0.1971
 1100YOPC   D2A15684   0.941  12.223   6.928  0.3152  0.0027 -0.4347
 1100YOPC   C3A15685   0.911  12.130   7.301  0.0570  0.3736 -0.1765
 1100YOPC   C4A15686   0.940  12.076   7.811  0.0892 -0.0483 -0.0182
 1100YOPC   C1B15687   1.428  11.972   6.586 -0.0309  0.2165 -0.0608
 1100YOPC   C2B15688   1.763  11.944   6.826  0.3208 -0.0990 -0.4708
 1100YOPC   D3B15689   1.763  11.890   7.215  0.3619  0.3139 -0.0388
 1100YOPC   C4B15690   1.866  11.744   7.702 -0.1372 -0.2898 -0.1138
 1101YOPC   NC315691   2.548   3.902   5.931 -0.0470 -0.3220  0.0860
 1101YOPC   PO415692   2.503   3.508   6.198  0.0968  0.2787  0.1673
 1101YOPC   GL115693   2.607   3.561   6.582  0.1096 -0.2210  0.1545
 1101YOPC   GL215694   2.692   3.384   6.807 -0.2607  0.1596 -0.0908
 1101YOPC   C1A15695   2.618   3.944   6.880 -0.5172  0.1566 -0.0081
 1101YOPC   D2A15696   2.659   3.948   7.353  0.0004 -0.3070 -0.1356
 1101YOPC   C3A15697   2.845   3.751   7.791  0.2086 -0.1602  0.2038
 1101YOPC   C4A15698   3.156   3.574   7.955 -0.0429  0.1644 -0.5298
 1101YOPC   C1B15699   2.525   3.403   7.259  0.0277 -0.1440  0.2486
 1101YOPC   C2B15700   2.501   3.178   7.656 -0.0228  0.1897  0.0192
 1101YOPC   D3B15701   2.379   2.700   7.550  0.3956 -0.2698  0.4704
 1101YOPC   C4B15702   2.110   2.452   7.689  0.1197  0.0469  0.1583
 1102YOPC   NC315703   5.683   1.011   5.654  0.2451 -0.0881 -0.1669
 1102YOPC   PO415704   5.923   0.715   5.501 -0.0221 -0.3606 -0.0554
 1102YOPC   GL115705   5.934   0.713   5.927  0.3005 -0.2127 -0.0507
 1102YOPC   GL215706   5.836   0.479   6.118 -0.0592  0.0101 -0.1970
 1102YOPC   C1A15707   6.082   0.900   6.338  0.0487  0.0118 -0.1342
 1102YOPC   D2A15708   6.375   0.924   6.722 -0.2520 -0.2452  0.0494
 1102YOPC   C3A15709   6.585   0.877   7.068  0.2548 -0.0395  0.0883
 1102YOPC   C4A15710   6.526   0.882   7.473  0.0072  0.1883 -0.1040
 1102YOPC   C1B15711   5.831   0.542   6.574  0.1086 -0.0221 -0.0786
 1102YOPC   C2B15712   5.905   0.155   6.934  0.0439 -0.0744 -0.3987
 1102YOPC   D3B15713   6.187   0.083   7.245  0.3054  0.0109 -0.0591
 1102YOPC   C4B15714   6.358   0.013   7.735  0.0553 -0.2108  0.2527
 1103YOPC   NC315715   1.243   7.866   6.489 -0.0898 -0.0095 -0.0260
 1103YOPC   PO415716   1.747   7.804   6.582 -0.0109  0.2594 -0.0968
 1103YOPC   GL115717   1.832   8.064   6.965  0.1402  0.0186 -0.0119
 1103YOPC   GL215718   1.768   8.408   6.991  0.1204 -0.3039  0.0530
 1103YOPC   C1A15719   1.554   8.109   7.336 -0.1685  0.1790  0.0093
 1103YOPC   D2A15720   1.232   8.154   7.633 -0.4231 -0.0909 -0.2172
 1103YOPC   C3A15721   1.098   8.141   8.128  0.0317 -0.6319  0.3755
 1103YOPC   C4A15722   1.215   7.996   8.572  0.1324  0.0557  0.2691
 1103YOPC   C1B15723   1.941   8.714   7.208 -0.1393 -0.2616 -0.0141
 1103YOPC   C2B15724   2.078   8.758   7.659  0.0282  0.0285 -0.4276
 1103YOPC   D3B15725   1.923   8.539   8.008 -0.1584  0.1883 -0.1111
 1103YOPC   C4B15726   2.043   8.346   8.348  0.3403 -0.2036 -0.0660
 1104YOPC   NC315727  15.868   8.264   5.934 -0.1490  0.0790 -0.4079
 1104YOPC   PO415728  16.116   8.515   6.136 -0.1771 -0.1167  0.2160
 1104YOPC   GL115729  15.770   8.454   6.482 -0.0036  0.5289 -0.2083
 1104YOPC   GL215730  15.517   8.687   6.562 -0.1751 -0.1400 -0.0534
 1104YOPC   C1A15731  15.345   8.111   6.599  0.0592 -0.0865 -0.0623
 1104YOPC   D2A15732  15.075   8.115   6.947 -0.0305 -0.1970 -0.1577
 1104YOPC   C3A15733  15.122   8.210   7.362  0.0406  0.0939  0.1850
 1104YOPC   C4A15734  15.173   8.248   7.790 -0.0673  0.0142  0.1151
 1104YOPC   C1B15735  15.569   8.541   6.994 -0.0564 -0.3137  0.1406
 1104YOPC   C2B15736  15.481   8.541   7.452 -0.1426 -0.4177 -0.4296
 1104YOPC   D3B15737  15.772   8.809   7.756 -0.0977  0.0798 -0.1686
 1104YOPC   C4B15738  16.127   8.834   7.800 -0.1939  0.2837 -0.0188
 1105YOPC   NC315739   0.408   1.072   5.981 -0.4172  0.1034  0.4982
 1105YOPC   PO415740   0.710   1.045   6.278  0.0799 -0.0811 -0.0340
 1105YOPC   GL115741   0.758   0.964   6.701 -0.6245 -0.0094  0.2522
 1105YOPC   GL215742   1.034   0.760   6.657 -0.0369  0.1783  0.3553
 1105YOPC   C1A15743   0.704   0.989   7.176 -0.0941  0.0119 -0.1515
 1105YOPC   D2A15744   0.790   0.701   7.526  0.0622 -0.1157  0.2019
 1105YOPC   C3A15745   0.600   0.536   7.869 -0.0864  0.0327 -0.4645
 1105YOPC   C4A15746   0.515   0.380   8.238 -0.2589 -0.2402  0.0536
 1105YOPC   C1B15747   1.260   1.050   6.889 -0.1418  0.2648 -0.5787
 1105YOPC   C2B15748   1.282   1.166   7.252 -0.1391 -0.1478  0.1737
 1105YOPC   D3B15749   1.621   1.220   7.483  0.0338 -0.0173 -0.0578
 1105YOPC   C4B15750   1.873   1.335   7.689 -0.0504 -0.1128 -0.2178
 1106YOPC   NC315751   1.059  17.585   6.206  0.2476 -0.1702 -0.1632
 1106YOPC   PO415752   1.377  17.879   6.058  0.1782  0.2152 -0.2183
 1106YOPC   GL115753   1.413  17.957   6.484  0.4312  0.1220  0.1210
 1106YOPC   GL215754   1.447  18.323   6.576 -0.0549  0.1931 -0.0799
 1106YOPC   C1A15755   1.238  17.817   6.927  0.1586 -0.1354  0.2361
 1106YOPC   D2A15756   1.194  17.512   7.188  0.0670  0.0856  0.2878
 1106YOPC   C3A15757   1.027  17.583   7.571 -0.1483  0.2124 -0.1107
 1106YOPC   C4A15758   0.848  18.016   7.678  0.1898  0.2186  0.0693
 1106YOPC   C1B15759   1.347  18.370   6.959  0.2143  0.1613 -0.0152
 1106YOPC   C2B15760   1.238  18.569   7.313 -0.1761 -0.5028  0.2545
 1106YOPC   D3B15761   1.373  18.407   7.673 -0.0673 -0.0899 -0.0660
 1106YOPC   C4B15762   1.338  17.962   7.838 -0.2048 -0.0574  0.1005
 1107YOPC   NC315763   6.895   9.490   6.151  0.0616  0.0430 -0.0617
 1107YOPC   PO415764   6.508   9.667   6.180  0.0968 -0.1864  0.4355
 1107YOPC   GL115765   6.409   9.975   6.549 -0.0284 -0.0757  0.1627
 1107YOPC   GL215766   6.005   9.936   6.611  0.1111  0.0765 -0.2365
 1107YOPC   C1A15767   6.206  10.140   6.953 -0.2289 -0.0653 -0.0648
 1107YOPC   D2A15768   6.109  10.213   7.430  0.1683 -0.3015 -0.0003
 1107YOPC   C3A15769   5.705  10.426   7.569  0.1455 -0.0438 -0.2229
 1107YOPC   C4A15770   5.325  10.483   7.818  0.1174 -0.0058 -0.5569
 1107YOPC   C1B15771   5.849   9.819   7.050 -0.2994 -0.2983  0.0134
 1107YOPC   C2B15772   5.789   9.679   7.434  0.1630 -0.3087  0.0857
 1107YOPC   D3B15773   6.030   9.328   7.582 -0.1717 -0.1309  0.0559
 1107YOPC   C4B15774   5.954   8.872   7.597 -0.0873 -0.0407 -0.1927
 1108YOPC   NC315775   0.340   3.105   6.201  0.2812  0.1040 -0.1931
 1108YOPC   PO415776  -0.120   3.157   6.257  0.0521 -0.0962 -0.0535
 1108YOPC   GL115777  -0.014   3.164   6.717  0.1390 -0.2523  0.0177
 1108YOPC   GL215778  -0.224   3.366   6.744 -0.1983 -0.0103 -0.1054
 1108YOPC   C1A15779  -0.183   2.803   7.021 -0.1569 -0.0953 -0.1096
 1108YOPC   D2A15780  -0.035   2.323   7.124 -0.0859 -0.1587 -0.1547
 1108YOPC   C3A15781   0.048   2.331   7.579  0.0690  0.0876  0.3036
 1108YOPC   C4A15782   0.208   2.593   7.868  0.0123  0.0698  0.2162
 1108YOPC   C1B15783  -0.299   3.245   7.213  0.0941  0.1066  0.2416
 1108YOPC   C2B15784  -0.193   2.951   7.558 -0.1192 -0.0969 -0.1612
 1108YOPC   D3B15785  -0.096   3.028   7.919  0.2284  0.0754  0.1294
 1108YOPC   C4B15786  -0.010   3.064   8.286 -0.0397  0.0719  0.1760
 1109YOPC   NC315787  14.317   2.648   6.175  0.0479  0.2056  0.0018
 1109YOPC   PO415788  14.079   2.316   6.236 -0.2577  0.1276  0.1782
 1109YOPC   GL115789  14.131   2.230   6.639 -0.0549  0.1525  0.2232
 1109YOPC   GL215790  14.368   2.505   6.740 -0.0117 -0.0629  0.0523
 1109YOPC   C1A15791  14.071   2.012   7.003 -0.2473  0.2296  0.0138
 1109YOPC   D2A15792  14.375   1.897   7.342 -0.1965 -0.2467  0.0944
 1109YOPC   C3A15793  14.346   1.910   7.752  0.2744  0.4659 -0.1187
 1109YOPC   C4A15794  14.088   1.779   8.089 -0.2872  0.1620  0.1652
 1109YOPC   C1B15795  14.216   2.513   7.171  0.3853  0.1145  0.0292
 1109YOPC   C2B15796  14.099   2.234   7.501 -0.0593 -0.0249  0.0248
 1109YOPC   D3B15797  13.798   2.106   7.857  0.1030  0.1323  0.4507
 1109YOPC   C4B15798  13.631   2.053   8.252  0.1771  0.2419  0.0580
 1110YOPC   NC315799   1.398   9.038   6.324  0.1999  0.1753 -0.0866
 1110YOPC   PO415800   1.662   8.644   6.378 -0.1342 -0.1604  0.1641
 1110YOPC   GL115801   1.490   8.877   6.760 -0.2639  0.1145 -0.0049
 1110YOPC   GL215802   1.228   8.797   6.968  0.0826  0.0255 -0.1400
 1110YOPC   C1A15803   1.608   9.079   7.122 -0.0969 -0.3424 -0.1661
 1110YOPC   D2A15804   1.627   8.991   7.576  0.2831 -0.0215  0.1465
 1110YOPC   C3A15805   1.782   9.139   7.942  0.2328 -0.0046 -0.1164
 1110YOPC   C4A15806   1.873   9.573   8.205  0.1334 -0.1281 -0.0690
 1110YOPC   C1B15807   1.439   8.605   7.245  0.1616 -0.1782 -0.0466
 1110YOPC   C2B15808   1.644   8.504   7.611  0.0554  0.0303  0.1137
 1110YOPC   D3B15809   1.460   8.716   8.053  0.1417  0.2981  0.1276
 1110YOPC   C4B15810   1.381   8.518   8.401 -0.0397 -0.2532 -0.1034
 1111YOPC   NC315811   3.372  15.939   5.805  0.1556 -0.0909  0.1998
 1111YOPC   PO415812   3.590  15.612   5.959  0.0428 -0.0326  0.1287
 1111YOPC   GL115813   3.517  15.503   6.422  0.0744  0.0981  0.0293
 1111YOPC   GL215814   3.142  15.403   6.427 -0.1178 -0.0556  0.0142
 1111YOPC   C1A15815   3.672  15.429   6.918  0.0808  0.0701  0.0753
 1111YOPC   D2A15816   3.625  15.294   7.388 -0.1421  0.0589  0.2209
 1111YOPC   C3A15817   3.374  15.502   7.613 -0.0788 -0.2076  0.0815
 1111YOPC   C4A15818   3.240  15.431   8.067  0.2052  0.1285 -0.1605
 1111YOPC   C1B15819   3.151  15.468   6.905  0.1326  0.1186  0.0058
 1111YOPC   C2B15820   3.008  15.578   7.283  0.0165 -0.3476  0.0019
 1111YOPC   D3B15821   2.805  15.481   7.601  0.0559  0.2885 -0.1040
 1111YOPC   C4B15822   2.645  15.585   8.039 -0.0517 -0.0167  0.0942
 1112YOPC   NC315823  12.995  12.609   6.219  0.2610  0.1973 -0.1062
 1112YOPC   PO415824  12.697  12.330   6.365  0.0858 -0.2190 -0.0969
 1112YOPC   GL115825  12.623  12.611   6.701  0.0652  0.0245  0.3776
 1112YOPC   GL215826  12.389  12.514   6.753 -0.2747  0.0311  0.1988
 1112YOPC   C1A15827  12.651  12.601   7.160  0.2137  0.1017 -0.2835
 1112YOPC   D2A15828  13.129  12.595   7.362 -0.1163  0.1750 -0.1196
 1112YOPC   C3A15829  13.186  12.287   7.671 -0.0336  0.0403 -0.0140
 1112YOPC   C4A15830  13.330  12.116   8.102  0.1256  0.0033  0.2302
 1112YOPC   C1B15831  12.184  12.418   7.115 -0.1046  0.0386 -0.1507
 1112YOPC   C2B15832  12.264  12.494   7.539 -0.1714 -0.0153  0.2010
 1112YOPC   D3B15833  12.699  12.597   7.720 -0.0348 -0.0932 -0.1771
 1112YOPC   C4B15834  13.093  12.746   7.876  0.0986  0.1705 -0.2436
 1113YOPC   NC315835  16.942  10.457   6.271  0.1304  0.1310 -0.0383
 1113YOPC   PO415836  17.250  10.203   6.135  0.0611  0.1107  0.0523
 1113YOPC   GL115837  17.275  10.084   6.544 -0.0780 -0.0192 -0.1311
 1113YOPC   GL215838  16.914   9.993   6.774 -0.2509  0.2505 -0.0815
 1113YOPC   C1A15839  17.416  10.171   6.964 -0.4978 -0.0727  0.0273
 1113YOPC   D2A15840  17.737  10.071   7.170 -0.0324 -0.1036 -0.0395
 1113YOPC   C3A15841  17.721   9.865   7.545 -0.0109 -0.1036  0.2711
 1113YOPC   C4A15842  17.956   9.955   7.971  0.3532 -0.1386 -0.1851
 1113YOPC   C1B15843  16.904   9.928   7.212  0.0948 -0.0196 -0.2396
 1113YOPC   C2B15844  17.178  10.119   7.440 -0.0657 -0.0005 -0.0526
 1113YOPC   D3B15845  17.077  10.171   7.894 -0.2544  0.1878  0.1039
 1113YOPC   C4B15846  17.146  10.133   8.284 -0.0320  0.1820  0.1830
 1114YOPC   NC315847   1.063   4.588   6.120 -0.0406  0.1417 -0.1546
 1114YOPC   PO415848   0.699   4.462   6.219  0.3051  0.1063  0.1229
 1114YOPC   GL115849   0.906   4.241   6.544 -0.0941 -0.2866 -0.1122
 1114YOPC   GL215850   0.717   4.248   6.762 -0.1031  0.0542  0.0278
 1114YOPC   C1A15851   1.320   4.311   6.822  0.0197 -0.2970 -0.0612
 1114YOPC   D2A15852   1.344   4.370   7.275 -0.0617  0.0070  0.0713
 1114YOPC   C3A15853   1.259   4.042   7.498  0.1462 -0.0908 -0.0352
 1114YOPC   C4A15854   1.256   3.651   7.730 -0.1272  0.1675 -0.1960
 1114YOPC   C1B15855   0.893   4.133   7.128 -0.1585  0.0009  0.4780
 1114YOPC   C2B15856   0.841   3.785   7.341 -0.3153  0.0722 -0.1639
 1114YOPC   D3B15857   0.766   3.782   7.690  0.1806  0.0464 -0.2926
 1114YOPC   C4B15858   0.825   3.691   8.115 -0.0437 -0.3080  0.1792
 1115ERGO   ROH15859  17.831  16.496   7.103  0.0829  0.0983  0.0811
 1115ERGO    R115860  17.852  16.486   7.385  0.2558  0.0172  0.0659
 1115ERGO    R215861  17.674  16.346   7.543  0.1488  0.2545  0.1546
 1115ERGO    R315862  17.900  16.228   7.637  0.0410 -0.1024 -0.0121
 1115ERGO    R415863  17.698  16.181   7.845  0.0644  0.0527  0.0542
 1115ERGO    R515864  17.895  16.271   7.873  0.2044 -0.2217  0.0173
 1115ERGO    C115865  17.925  15.974   8.111 -0.0860 -0.4000 -0.1608
 1115ERGO    C215866  17.936  15.813   8.356  0.0039 -0.0259 -0.1223
 1116ERGO   ROH15867   3.800   1.520   8.425  0.0959  0.1057 -0.0797
 1116ERGO    R115868   3.849   1.282   8.571 -0.0105  0.1020 -0.0504
 1116ERGO    R215869   4.094   1.225   8.686 -0.0317 -0.0021 -0.0630
 1116ERGO    R315870   3.945   1.195   8.911 -0.0271  0.0999 -0.0453
 1116ERGO    R415871   4.199   1.062   8.972 -0.1869 -0.2864 -0.1637
 1116ERGO    R515872   4.000   0.976   8.990 -0.3104 -0.0209 -0.1626
 1116ERGO    C115873   4.120   0.939   9.350 -0.2730 -0.3562 -0.2057
 1116ERGO    C215874   4.207   1.024   9.696  0.1983  0.2351  0.0872
 1117ERGO   ROH15875   5.567   0.892   6.214  0.0476 -0.1863  0.1560
 1117ERGO    R115876   5.478   0.841   6.477  0.0202 -0.0334  0.1770
 1117ERGO    R215877   5.572   0.981   6.696 -0.0662  0.1508  0.0951
 1117ERGO    R315878   5.307   1.026   6.740 -0.0895  0.0909  0.0209
 1117ERGO    R415879   5.417   0.969   7.005 -0.1739 -0.0359  0.0359
 1117ERGO    R515880   5.247   0.870   6.911 -0.1285 -0.0120 -0.0815
 1117ERGO    C115881   5.079   1.005   7.226 -0.2585 -0.2007 -0.0682
 1117ERGO    C215882   5.053   1.105   7.505  0.0413 -0.1523 -0.2636
 1118ERGO   ROH15883   0.413   0.692   6.883  0.0131 -0.2310  0.0929
 1118ERGO    R115884   0.337   0.520   7.095  0.1068 -0.2077  0.1461
 1118ERGO    R215885   0.422   0.258   7.112  0.1294 -0.2016  0.1476
 1118ERGO    R315886   0.507   0.335   7.359  0.2228 -0.1624  0.1038
 1118ERGO    R415887   0.353   0.089   7.405 -0.1535  0.0939  0.2572
 1118ERGO    R515888   0.323   0.281   7.503  0.1262  0.2087  0.1268
 1118ERGO    C115889   0.391   0.062   7.807 -0.2305  0.3028  0.2799
 1118ERGO    C215890   0.466  -0.072   8.136  0.2304  0.1943  0.2727
 1119ERGO   ROH15891   9.712  14.389   6.672  0.2112  0.1876  0.1402
 1119ERGO    R115892   9.596  14.294   6.912  0.1943  0.0351  0.0727
 1119ERGO    R215893   9.676  14.383   7.161  0.0929 -0.0317  0.1294
 1119ERGO    R315894   9.412  14.437   7.191  0.0602 -0.1640  0.0878
 1119ERGO    R415895   9.524  14.462   7.461  0.0567  0.1729  0.0600
 1119ERGO    R515896   9.355  14.338   7.402  0.1302  0.0088  0.1895
 1119ERGO    C115897   9.187  14.557   7.664  0.0049  0.1679 -0.0194
 1119ERGO    C215898   9.146  14.703   8.016 -0.1384 -0.2041  0.0223
 1120ERGO   ROH15899  15.972  15.310   6.651  0.0839 -0.0056 -0.0265
 1120ERGO    R115900  15.964  15.224   6.920  0.1084  0.0218 -0.0171
 1120ERGO    R215901  16.164  15.070   7.032  0.0655 -0.0591 -0.0515
 1120ERGO    R315902  16.168  15.269   7.218  0.1999 -0.0442 -0.0692
 1120ERGO    R415903  16.302  15.043   7.348  0.0431 -0.1259 -0.0473
 1120ERGO    R515904  16.133  15.156   7.426  0.1195 -0.0020 -0.0593
 1120ERGO    C115905  16.386  15.213   7.706  0.1563 -0.1508 -0.0615
 1120ERGO    C215906  16.739  15.444   7.871  0.0900  0.2171 -0.0824
 1121ERGO   ROH15907   8.084  17.293   6.869 -0.0752 -0.0028 -0.1016
 1121ERGO    R115908   7.885  17.266   7.068 -0.1612  0.0679 -0.1762
 1121ERGO    R215909   7.942  17.275   7.338 -0.2102 -0.2734 -0.1468
 1121ERGO    R315910   7.752  17.470   7.339  0.0500 -0.0146 -0.0091
 1121ERGO    R415911   7.735  17.350   7.605 -0.1851 -0.2565 -0.1331
 1121ERGO    R515912   7.571  17.377   7.465 -0.1120  0.1046 -0.1532
 1121ERGO    C115913   7.437  17.576   7.761  0.0739 -0.0035  0.0042
 1121ERGO    C215914   7.390  17.618   8.109  0.1040 -0.3418  0.0508
 1122ERGO   ROH15915  16.060   2.218   6.567  0.0338 -0.1216  0.0956
 1122ERGO    R115916  16.070   2.141   6.840  0.2548 -0.0667  0.1085
 1122ERGO    R215917  16.280   2.211   7.007  0.2015  0.3359  0.0472
 1122ERGO    R315918  16.079   2.310   7.162  0.0558  0.0119  0.0672
 1122ERGO    R415919  16.293   2.251   7.350  0.0677  0.2161  0.0646
 1122ERGO    R515920  16.088   2.182   7.363  0.1730 -0.0442  0.0074
 1122ERGO    C115921  16.112   2.367   7.695 -0.1473 -0.1579  0.0935
 1122ERGO    C215922  16.112   2.273   8.062 -0.0837  0.1419 -0.4886
 1123ERGO   ROH15923   3.385   0.222   6.369  0.1222  0.0997  0.0573
 1123ERGO    R115924   3.345   0.398   6.587  0.0529  0.1668 -0.0090
 1123ERGO    R215925   3.098   0.502   6.651  0.0083  0.0781 -0.0383
 1123ERGO    R315926   3.152   0.396   6.895  0.0688  0.1982  0.0013
 1123ERGO    R415927   2.877   0.495   6.916 -0.0184 -0.0268 -0.0626
 1123ERGO    R515928   3.042   0.543   7.049 -0.0740  0.1543 -0.0568
 1123ERGO    C115929   2.799   0.391   7.300  0.0229  0.0249 -0.0396
 1123ERGO    C215930   2.806   0.415   7.649  0.2182 -0.0521 -0.0533
 1124ERGO   ROH15931   3.095   8.730   6.779  0.1049  0.2645 -0.1443
 1124ERGO    R115932   3.132   8.677   7.055  0.0103  0.1167 -0.1590
 1124ERGO    R215933   3.209   8.873   7.235  0.1176 -0.0190 -0.0592
 1124ERGO    R315934   2.986   8.793   7.367  0.0319  0.0872 -0.1372
 1124ERGO    R415935   3.190   8.818   7.575 -0.0510  0.0912 -0.0492
 1124ERGO    R515936   3.066   8.643   7.535 -0.0857  0.1132 -0.0535
 1124ERGO    C115937   2.970   8.711   7.898 -0.2297  0.2550 -0.1165
 1124ERGO    C215938   2.886   8.484   8.170  0.3198  0.4259 -0.1303
 1125ERGO   ROH15939   5.101  11.094   6.579  0.0061  0.0157 -0.1793
 1125ERGO    R115940   4.905  11.014   6.766  0.0554 -0.1055 -0.1782
 1125ERGO    R215941   4.897  10.761   6.875  0.2358 -0.1000 -0.1488
 1125ERGO    R315942   4.900  10.896   7.110  0.1278 -0.0689 -0.1645
 1125ERGO    R415943   4.822  10.623   7.183  0.1793 -0.0807 -0.1537
 1125ERGO    R515944   4.715  10.806   7.233  0.1144 -0.1028 -0.2092
 1125ERGO    C115945   4.782  10.670   7.583  0.0451 -0.0402 -0.1712
 1125ERGO    C215946   4.711  10.674   7.881 -0.0546 -0.1061  0.2709
 1126ERGO   ROH15947   5.369  13.915   6.411  0.0534 -0.0106  0.0932
 1126ERGO    R115948   5.341  13.992   6.682  0.0380 -0.0112  0.0923
 1126ERGO    R215949   5.139  13.895   6.844 -0.0467  0.0822  0.0485
 1126ERGO    R315950   5.347  13.825   7.005 -0.1126 -0.0338  0.0830
 1126ERGO    R415951   5.127  13.883   7.189 -0.0832  0.1660  0.0500
 1126ERGO    R515952   5.326  13.969   7.195 -0.0226  0.0207  0.0490
 1126ERGO    C115953   5.314  13.809   7.542 -0.1663  0.1059  0.0832
 1126ERGO    C215954   5.120  13.866   7.902 -0.0757  0.1884  0.0865
 1127ERGO   ROH15955  12.545  17.258   6.985  0.0796  0.0260 -0.0812
 1127ERGO    R115956  12.461  17.396   7.218 -0.0648  0.0512 -0.1472
 1127ERGO    R215957  12.210  17.362   7.329  0.0067 -0.2436 -0.0687
 1127ERGO    R315958  12.353  17.307   7.554  0.1434  0.1000 -0.0661
 1127ERGO    R415959  12.077  17.334   7.647  0.1157 -0.2775 -0.0256
 1127ERGO    R515960  12.251  17.441   7.724 -0.0289  0.0372 -0.1186
 1127ERGO    C115961  12.135  17.267   8.043  0.3076  0.0253  0.0019
 1127ERGO    C215962  11.873  17.072   8.320  0.0521  0.2928  0.1213
 1128ERGO   ROH15963  15.836   4.873   6.458  0.2469 -0.1436 -0.1006
 1128ERGO    R115964  15.884   4.863   6.737 -0.0404  0.2519 -0.0278
 1128ERGO    R215965  15.698   4.946   6.923 -0.5664 -0.2087 -0.3163
 1128ERGO    R315966  15.736   4.697   7.024  0.1638 -0.0255 -0.0789
 1128ERGO    R415967  15.625   4.851   7.247 -0.4674 -0.1638 -0.2805
 1128ERGO    R515968  15.809   4.734   7.249 -0.0823  0.4047 -0.0608
 1128ERGO    C115969  15.618   4.561   7.531  0.2758  0.0343 -0.0366
 1128ERGO    C215970  15.576   4.417   7.772  0.0924  0.2462  0.1392
 1129ERGO   ROH15971  16.613  12.658   6.405  0.1008  0.0351  0.0520
 1129ERGO    R115972  16.604  12.479   6.624  0.0445  0.0025  0.0248
 1129ERGO    R215973  16.829  12.411   6.770  0.0127 -0.0284  0.0690
 1129ERGO    R315974  16.678  12.495   6.980 -0.0345 -0.0492  0.0424
 1129ERGO    R415975  16.868  12.305   7.097 -0.1771 -0.1812  0.0429
 1129ERGO    R515976  16.651  12.300   7.116 -0.1829 -0.0894 -0.0493
 1129ERGO    C115977  16.749  12.322   7.484 -0.3316 -0.2897  0.0027
 1129ERGO    C215978  16.902  12.261   7.817  0.2039 -0.1690  0.1248
 1130ERGO   ROH15979   1.841   7.492   6.957  0.1898  0.3937 -0.1100
 1130ERGO    R115980   1.976   7.624   7.169 -0.0447  0.3252  0.0880
 1130ERGO    R215981   1.862   7.662   7.418 -0.1586 -0.1562  0.1219
 1130ERGO    R315982   2.088   7.539   7.504  0.0042  0.0554  0.0057
 1130ERGO    R415983   1.935   7.594   7.748  0.0079 -0.2140  0.0729
 1130ERGO    R515984   2.142   7.650   7.709 -0.0627  0.0309  0.0369
 1130ERGO    C115985   2.191   7.438   8.022  0.2576 -0.0490 -0.0647
 1130ERGO    C215986   2.214   7.173   8.344 -0.0168  0.2674 -0.0900
 1131ERGO   ROH15987   4.381   9.488   6.947 -0.2718 -0.3618  0.0084
 1131ERGO    R115988   4.180   9.463   7.145 -0.1196 -0.3142  0.1719
 1131ERGO    R215989   4.169   9.248   7.319  0.0189 -0.2696  0.2402
 1131ERGO    R315990   4.168   9.443   7.509  0.1626 -0.2181  0.1885
 1131ERGO    R415991   4.116   9.195   7.657 -0.1669 -0.1240  0.2357
 1131ERGO    R515992   3.996   9.377   7.662  0.0308  0.0116  0.1429
 1131ERGO    C115993   4.086   9.347   8.031 -0.1401  0.0090  0.1845
 1131ERGO    C215994   3.908   9.219   8.225 -0.0262  0.1705  0.0969
 1132ERGO   ROH15995   6.901  12.305   6.756  0.0130  0.0249  0.1392
 1132ERGO    R115996   6.857  12.145   6.986  0.0916  0.0057  0.1413
 1132ERGO    R215997   6.979  12.197   7.229  0.1364  0.0158  0.1177
 1132ERGO    R315998   6.723  12.196   7.321  0.1561 -0.0335  0.1725
 1132ERGO    R415999   6.890  12.198   7.562  0.2032  0.2944  0.1376
 1132ERGO    R516000   6.731  12.056   7.515  0.2710  0.1609  0.3097
 1132ERGO    C116001   6.598  12.197   7.843  0.2606  0.4106  0.2007
 1132ERGO    C216002   6.508  12.061   8.123  0.2478  0.0569  0.2860
 1133ERGO   ROH16003   1.730   6.741   7.978  0.0558 -0.1522 -0.0139
 1133ERGO    R116004   1.917   6.720   8.190  0.1115 -0.1777 -0.0659
 1133ERGO    R216005   2.067   6.491   8.234  0.1793 -0.1535 -0.1801
 1133ERGO    R316006   2.275   6.664   8.221  0.1341 -0.0978 -0.1682
 1133ERGO    R416007   2.392   6.416   8.323  0.1461  0.0022  0.0820
 1133ERGO    R516008   2.407   6.613   8.414  0.0272  0.0743 -0.0437
 1133ERGO    C116009   2.777   6.535   8.363  0.0844  0.1451  0.2459
 1133ERGO    C216010   3.110   6.581   8.195  0.0794 -0.0861 -0.0889
 1134ERGO   ROH16011   7.099   1.576   6.581 -0.1776 -0.0592 -0.1879
 1134ERGO    R116012   7.023   1.577   6.854 -0.3302  0.0057 -0.2308
 1134ERGO    R216013   7.208   1.581   7.060 -0.4354 -0.3361 -0.1306
 1134ERGO    R316014   7.065   1.798   7.139 -0.1316 -0.1178 -0.1596
 1134ERGO    R416015   7.251   1.746   7.360 -0.2391 -0.4026 -0.1199
 1134ERGO    R516016   7.034   1.766   7.375 -0.2235 -0.0792 -0.1610
 1134ERGO    C116017   7.142   2.046   7.610  0.1604 -0.2363 -0.1408
 1134ERGO    C216018   7.151   2.159   8.001  0.2123  0.1496  0.3408
 1135ERGO   ROH16019   5.438   9.890   6.723  0.0221 -0.1080  0.0426
 1135ERGO    R116020   5.285   9.739   6.906 -0.3263  0.1152 -0.0531
 1135ERGO    R216021   5.396   9.621   7.131 -0.5445 -0.4199 -0.2077
 1135ERGO    R316022   5.200   9.759   7.260 -0.1294  0.0004  0.0016
 1135ERGO    R416023   5.276   9.545   7.446 -0.5646 -0.3360 -0.1954
 1135ERGO    R516024   5.075   9.590   7.375 -0.5023  0.2327 -0.0519
 1135ERGO    C116025   5.023   9.631   7.751 -0.1866  0.1074  0.0082
 1135ERGO    C216026   5.282   9.617   8.028 -0.3572  0.3026 -0.1776
 1136ERGO   ROH16027  16.040   2.661   6.678  0.1686  0.3427  0.0870
 1136ERGO    R116028  16.197   2.656   6.914  0.0381  0.1812  0.1734
 1136ERGO    R216029  16.253   2.884   7.060  0.2486  0.1378  0.1634
 1136ERGO    R316030  16.150   2.738   7.265 -0.0489  0.3000  0.1349
 1136ERGO    R416031  16.330   2.931   7.393  0.4427 -0.1500  0.1626
 1136ERGO    R516032  16.332   2.714   7.418 -0.0567 -0.1783  0.0865
 1136ERGO    C116033  16.278   2.822   7.780  0.2763 -0.1652  0.1355
 1136ERGO    C216034  16.585   3.055   8.039  0.0180 -0.0722 -0.0364
 1137ERGO   ROH16035   7.790   4.703   6.840  0.0920 -0.1778 -0.0539
 1137ERGO    R116036   7.963   4.684   7.063 -0.1402 -0.3180  0.1179
 1137ERGO    R216037   8.040   4.904   7.211  0.2235 -0.3122 -0.0744
 1137ERGO    R316038   7.945   4.758   7.419 -0.2934  0.1288  0.0251
 1137ERGO    R416039   8.107   4.967   7.544  0.3890 -0.2824 -0.1117
 1137ERGO    R516040   8.126   4.752   7.575 -0.3105 -0.3466  0.0468
 1137ERGO    C116041   8.057   4.866   7.933  0.0000  0.1488 -0.0401
 1137ERGO    C216042   7.968   4.988   8.154  0.1303 -0.0354  0.0796
 1138ERGO   ROH16043  11.621   7.162   6.686 -0.1160 -0.1461 -0.0011
 1138ERGO    R116044  11.606   7.032   6.937 -0.0857 -0.0340  0.0587
 1138ERGO    R216045  11.789   6.839   7.016 -0.0349  0.0551  0.1522
 1138ERGO    R316046  11.817   7.002   7.231 -0.0859  0.1613  0.0805
 1138ERGO    R416047  11.967   6.760   7.301  0.0417  0.2589  0.1637
 1138ERGO    R516048  11.810   6.854   7.419  0.0094  0.2339  0.1446
 1138ERGO    C116049  12.097   6.866   7.670  0.0384  0.4772  0.1032
 1138ERGO    C216050  12.341   6.755   7.891  0.0876 -0.1706 -0.0437
 1139ERGO   ROH16051  12.301  14.265   6.732  0.0214  0.0759  0.0259
 1139ERGO    R116052  12.484  14.306   6.943  0.0776  0.3232 -0.0669
 1139ERGO    R216053  12.508  14.548   7.075 -0.3491  0.3019  0.0738
 1139ERGO    R316054  12.466  14.396   7.296  0.1067  0.0549  0.0040
 1139ERGO    R416055  12.586  14.643   7.398 -0.3503  0.2422  0.0915
 1139ERGO    R516056  12.655  14.440   7.435  0.1044  0.3562 -0.0858
 1139ERGO    C116057  12.591  14.555   7.793  0.0770 -0.0243  0.0363
 1139ERGO    C216058  12.730  14.691   8.056  0.0007 -0.2468  0.3701
 1140ERGO   ROH16059   2.924   5.422   6.789  0.0047 -0.0275 -0.0694
 1140ERGO    R116060   3.130   5.375   6.977  0.0383 -0.1050 -0.1244
 1140ERGO    R216061   3.150   5.516   7.213  0.2341 -0.0144 -0.1906
 1140ERGO    R316062   3.152   5.268   7.324  0.0788  0.0301 -0.0853
 1140ERGO    R416063   3.190   5.450   7.550  0.1892  0.0979 -0.1628
 1140ERGO    R516064   3.317   5.281   7.497  0.0837 -0.0021 -0.0902
 1140ERGO    C116065   3.215   5.177   7.850  0.0174  0.2051 -0.0477
 1140ERGO    C216066   3.246   4.983   8.267  0.0959  0.0339 -0.2203
 1141ERGO   ROH16067  12.242  15.905   7.103  0.1299 -0.1485  0.0789
 1141ERGO    R116068  12.074  15.734   7.253  0.0686 -0.2459 -0.0952
 1141ERGO    R216069  12.172  15.532   7.414  0.0194 -0.2016  0.0021
 1141ERGO    R316070  12.023  15.656   7.605 -0.2401 -0.2804 -0.1466
 1141ERGO    R416071  12.105  15.403   7.728  0.1190 -0.0465  0.0880
 1141ERGO    R516072  11.902  15.478   7.710  0.0060 -0.3839 -0.0412
 1141ERGO    C116073  11.926  15.443   8.089 -0.0666 -0.0302 -0.0016
 1141ERGO    C216074  11.830  15.482   8.425 -0.2488  0.1232  0.2636
 1142ERGO   ROH16075   5.768  12.857   6.435 -0.1771 -0.0919 -0.0360
 1142ERGO    R116076   5.869  12.968   6.675 -0.1176 -0.0595 -0.0757
 1142ERGO    R216077   5.711  13.012   6.897 -0.0616 -0.0367 -0.0388
 1142ERGO    R316078   5.901  12.863   7.022 -0.0244 -0.0167 -0.0714
 1142ERGO    R416079   5.736  12.972   7.239 -0.0813 -0.1497 -0.0504
 1142ERGO    R516080   5.953  12.988   7.220 -0.0859 -0.0700 -0.0226
 1142ERGO    C116081   5.929  12.808   7.556 -0.0578 -0.1967 -0.0878
 1142ERGO    C216082   5.924  12.742   7.954  0.0697 -0.1016 -0.0425
 1143ERGO   ROH16083   2.181   3.226   6.699  0.0445 -0.0495  0.1263
 1143ERGO    R116084   2.051   3.213   6.950 -0.0230 -0.0986  0.0901
 1143ERGO    R216085   2.000   2.974   7.079  0.0252 -0.1217  0.0751
 1143ERGO    R316086   2.132   3.094   7.284 -0.0730 -0.0736  0.1100
 1143ERGO    R416087   1.954   2.901   7.414  0.1023 -0.2678  0.0538
 1143ERGO    R516088   1.968   3.114   7.457 -0.0817 -0.2719  0.1226
 1143ERGO    C116089   2.051   2.970   7.801  0.0551 -0.3078  0.0741
 1143ERGO    C216090   2.175   2.852   8.024  0.1385  0.2638  0.0685
 1144ERGO   ROH16091  16.804  17.729   6.962  0.2834 -0.0774 -0.0286
 1144ERGO    R116092  16.858  17.774   7.236  0.2832 -0.0378 -0.0350
 1144ERGO    R216093  16.807  17.585   7.432  0.1770  0.0324  0.0065
 1144ERGO    R316094  17.069  17.626   7.492  0.1919 -0.0780  0.0177
 1144ERGO    R416095  16.941  17.572   7.750  0.1768 -0.1335  0.0006
 1144ERGO    R516096  17.065  17.744   7.700  0.2341 -0.1551  0.0635
 1144ERGO    C116097  17.265  17.603   7.992  0.1908 -0.3341  0.0076
 1144ERGO    C216098  17.389  17.554   8.306  0.2722  0.0077  0.2322
 1145ERGO   ROH16099   2.244  10.551   6.332 -0.1402 -0.1099  0.0902
 1145ERGO    R116100   2.449  10.688   6.472 -0.0001 -0.1823 -0.0418
 1145ERGO    R216101   2.405  10.814   6.714  0.1388  0.0532 -0.1365
 1145ERGO    R316102   2.613  10.659   6.796  0.0072 -0.0726 -0.0356
 1145ERGO    R416103   2.669  10.924   6.909  0.1830 -0.0726 -0.1241
 1145ERGO    R516104   2.803  10.804   6.785  0.1195 -0.2196 -0.0513
 1145ERGO    C116105   3.017  10.842   7.099  0.0852 -0.2639 -0.0221
 1145ERGO    C216106   3.133  11.125   7.310 -0.0568 -0.3218  0.0754
 1146ERGO   ROH16107   1.305   6.755   6.483 -0.0166 -0.0975  0.0916
 1146ERGO    R116108   1.277   6.721   6.763  0.1167 -0.1906  0.0949
 1146ERGO    R216109   1.487   6.644   6.926  0.2811  0.0747  0.0170
 1146ERGO    R316110   1.421   6.869   7.063  0.0023 -0.0401  0.0761
 1146ERGO    R416111   1.550   6.697   7.261  0.1005  0.0188  0.0603
 1146ERGO    R516112   1.354   6.790   7.279 -0.0002 -0.1848  0.0218
 1146ERGO    C116113   1.524   6.938   7.586 -0.2663 -0.1215  0.1411
 1146ERGO    C216114   1.569   7.249   7.782 -0.0470 -0.1736  0.1791
 1147ERGO   ROH16115   1.684  16.966   6.606  0.1127  0.1035  0.1381
 1147ERGO    R116116   1.590  16.902   6.865  0.0208  0.0990  0.1034
 1147ERGO    R216117   1.630  17.067   7.084 -0.0653  0.0990  0.1179
 1147ERGO    R316118   1.360  17.048   7.106 -0.0733  0.0884  0.0213
 1147ERGO    R416119   1.454  17.102   7.379 -0.1888  0.3187  0.0204
 1147ERGO    R516120   1.325  16.938   7.316 -0.1455  0.2522  0.0986
 1147ERGO    C116121   1.097  17.105   7.571 -0.2682  0.4365 -0.1271
 1147ERGO    C216122   1.048  17.043   7.801  0.0797 -0.1103 -0.1916
 1148ERGO   ROH16123   5.848   7.382   6.765 -0.1504 -0.0851 -0.0006
 1148ERGO    R116124   5.836   7.252   7.016 -0.2239  0.0008  0.0420
 1148ERGO    R216125   6.062   7.185   7.161 -0.2500 -0.2245 -0.0100
 1148ERGO    R316126   5.938   7.325   7.358 -0.0255 -0.0158 -0.0142
 1148ERGO    R416127   6.126   7.149   7.498 -0.1802 -0.1738 -0.0182
 1148ERGO    R516128   5.912   7.167   7.536 -0.1452  0.0798  0.0496
 1148ERGO    C116129   6.047   7.261   7.880  0.0712  0.0517 -0.0270
 1148ERGO    C216130   5.873   7.232   8.160  0.0007  0.3081 -0.2140
 1149ERGO   ROH16131   4.954   4.151   6.569  0.0873 -0.0161 -0.1014
 1149ERGO    R116132   4.828   4.095   6.816  0.0165  0.0252 -0.1274
 1149ERGO    R216133   4.971   4.040   7.046 -0.0493 -0.0644 -0.1063
 1149ERGO    R316134   4.821   4.243   7.149  0.0326  0.0019 -0.1169
 1149ERGO    R416135   4.974   4.140   7.377  0.2595  0.1915 -0.1812
 1149ERGO    R516136   4.758   4.165   7.366  0.2462  0.1638  0.0066
 1149ERGO    C116137   4.835   4.388   7.666  0.5163  0.4027 -0.2347
 1149ERGO    C216138   4.886   4.562   7.948  0.0120  0.1145 -0.1069
 1150ERGO   ROH16139   7.932   3.615   6.484 -0.0669 -0.0979 -0.0676
 1150ERGO    R116140   7.846   3.610   6.754  0.0174 -0.0123 -0.0392
 1150ERGO    R216141   7.996   3.494   6.955  0.0965  0.0810 -0.0432
 1150ERGO    R316142   7.968   3.738   7.072  0.0989  0.1206 -0.1234
 1150ERGO    R416143   8.018   3.554   7.295  0.0434  0.1929 -0.0582
 1150ERGO    R516144   7.851   3.693   7.276  0.0613  0.2002 -0.1294
 1150ERGO    C116145   8.005   3.817   7.603  0.0146  0.2952 -0.1422
 1150ERGO    C216146   7.863   3.909   7.929  0.0831  0.2428 -0.1401
 1151ERGO   ROH16147   6.687  17.552   6.574 -0.1082 -0.0559 -0.0321
 1151ERGO    R116148   6.658  17.809   6.688 -0.0299 -0.0990  0.0861
 1151ERGO    R216149   6.497  18.004   6.577  0.1471  0.0531  0.0893
 1151ERGO    R316150   6.387  18.008   6.826 -0.0007 -0.0176  0.0260
 1151ERGO    R416151   6.340  18.277   6.720 -0.0137 -0.0150  0.0451
 1151ERGO    R516152   6.435  18.227   6.909 -0.1114 -0.0186  0.0922
 1151ERGO    C116153   6.145  18.440   7.036 -0.2460 -0.1210 -0.0400
 1151ERGO    C216154   5.962  18.775   7.005  0.0095 -0.0395 -0.1397
 1152ERGO   ROH16155   6.355   2.908   6.627 -0.0189  0.0646  0.0900
 1152ERGO    R116156   6.381   3.014   6.889  0.0144  0.0108  0.1080
 1152ERGO    R216157   6.621   3.019   7.024  0.0343  0.0024  0.0683
 1152ERGO    R316158   6.566   3.284   7.048  0.0161 -0.0066  0.1368
 1152ERGO    R416159   6.708   3.215   7.295  0.0029 -0.0675  0.1298
 1152ERGO    R516160   6.513   3.313   7.280 -0.0034 -0.0744  0.1423
 1152ERGO    C116161   6.706   3.577   7.476 -0.0324 -0.1165  0.2299
 1152ERGO    C216162   6.866   3.804   7.572 -0.1558  0.2050  0.2450
 1153ERGO   ROH16163   7.832  12.779   6.604  0.2071 -0.2605  0.1690
 1153ERGO    R116164   7.879  12.764   6.883  0.1949 -0.1131  0.1795
 1153ERGO    R216165   7.790  12.958   7.058  0.0430 -0.1026  0.0929
 1153ERGO    R316166   7.676  12.746   7.184  0.1826 -0.1330  0.1704
 1153ERGO    R416167   7.759  12.926   7.401 -0.0974  0.0936  0.1002
 1153ERGO    R516168   7.809  12.714   7.380  0.1175  0.1245  0.2618
 1153ERGO    C116169   7.633  12.707   7.719 -0.0481  0.1796  0.1772
 1153ERGO    C216170   7.608  12.501   8.035  0.2626  0.1762  0.3369
 1154ERGO   ROH16171  13.840   7.813   6.382 -0.3470  0.3899 -0.0129
 1154ERGO    R116172  13.783   7.727   6.646 -0.4931  0.2287 -0.0934
 1154ERGO    R216173  13.967   7.744   6.850 -0.3883 -0.4422 -0.1004
 1154ERGO    R316174  13.768   7.880   6.976 -0.0443 -0.0868  0.0804
 1154ERGO    R416175  13.914   7.744   7.192 -0.1903 -0.4602 -0.0689
 1154ERGO    R516176  13.699   7.733   7.153 -0.2357 -0.0126  0.0604
 1154ERGO    C116177  13.695   7.871   7.508  0.2479 -0.1370  0.1192
 1154ERGO    C216178  13.638   7.838   7.821  0.1999 -0.0602  0.1303
 1155ERGO   ROH16179  15.792  11.618   6.545  0.0972 -0.1679 -0.1151
 1155ERGO    R116180  15.672  11.691   6.791  0.1678 -0.0184 -0.1231
 1155ERGO    R216181  15.623  11.509   6.993 -0.0699  0.0378 -0.1228
 1155ERGO    R316182  15.765  11.686   7.143  0.1405 -0.1314 -0.1178
 1155ERGO    R416183  15.671  11.486   7.335 -0.1650  0.0173 -0.1114
 1155ERGO    R516184  15.643  11.702   7.348  0.1210  0.0577 -0.1438
 1155ERGO    C116185  15.831  11.640   7.674 -0.0229 -0.1535 -0.1000
 1155ERGO    C216186  16.115  11.698   7.929  0.0389  0.1022 -0.0531
 1156ERGO   ROH16187   8.467  14.191   6.485  0.1236  0.0479 -0.0421
 1156ERGO    R116188   8.469  13.976   6.669  0.1338  0.0660 -0.0223
 1156ERGO    R216189   8.702  13.875   6.778  0.1322  0.1269  0.0297
 1156ERGO    R316190   8.575  13.924   7.014  0.0787  0.1185  0.0038
 1156ERGO    R416191   8.752  13.697   7.070  0.1081  0.1471  0.0471
 1156ERGO    R516192   8.537  13.706   7.107  0.0968  0.1140  0.0059
 1156ERGO    C116193   8.661  13.638   7.461  0.0440  0.1509  0.0328
 1156ERGO    C216194   8.728  13.650   7.766  0.0502 -0.0734  0.0123
 1157ERGO   ROH16195  13.257  16.302   7.010  0.1783 -0.3030 -0.1442
 1157ERGO    R116196  13.283  16.398   7.275 -0.0468 -0.1860 -0.1611
 1157ERGO    R216197  13.080  16.378   7.461 -0.1219 -0.3252 -0.2536
 1157ERGO    R316198  13.273  16.255   7.609 -0.0694 -0.0864 -0.1196
 1157ERGO    R416199  13.055  16.305   7.798 -0.1381 -0.0914 -0.2024
 1157ERGO    R516200  13.263  16.364   7.822 -0.1842  0.0658 -0.2025
 1157ERGO    C116201  13.220  16.147   8.133 -0.0983  0.2689 -0.0469
 1157ERGO    C216202  13.052  16.183   8.413  0.0898  0.0159  0.0231
 1158ERGO   ROH16203  13.472  11.330   6.381  0.0281  0.0626  0.0597
 1158ERGO    R116204  13.475  11.263   6.655  0.2124 -0.0485  0.0324
 1158ERGO    R216205  13.705  11.268   6.808  0.2358  0.3650 -0.0067
 1158ERGO    R316206  13.557  11.430   6.968 -0.0796 -0.0003  0.0865
 1158ERGO    R416207  13.715  11.267   7.153  0.3953  0.3253 -0.0106
 1158ERGO    R516208  13.499  11.292   7.155  0.3241 -0.1790  0.0920
 1158ERGO    C116209  13.582  11.419   7.505  0.1920 -0.0411  0.0746
 1158ERGO    C216210  13.553  11.511   7.822 -0.1721  0.0267 -0.1939
 1159ERGO   ROH16211   4.732   7.672   6.734 -0.0930  0.0994  0.0465
 1159ERGO    R116212   4.876   7.732   6.970 -0.1095  0.0635  0.0664
 1159ERGO    R216213   4.751   7.773   7.214 -0.1307  0.0650  0.0585
 1159ERGO    R316214   4.923   7.579   7.297 -0.1676  0.0339  0.0601
 1159ERGO    R416215   4.807   7.686   7.544 -0.1025  0.0909  0.0601
 1159ERGO    R516216   5.019   7.667   7.498 -0.1169  0.0324  0.0336
 1159ERGO    C116217   5.001   7.454   7.814 -0.1207  0.0767  0.0624
 1159ERGO    C216218   4.981   7.519   8.169 -0.1762  0.0921 -0.0439
 1160ERGO   ROH16219  16.857   8.910   6.728  0.1477 -0.3005  0.0393
 1160ERGO    R116220  16.952   8.887   6.993  0.1575 -0.1717  0.0485
 1160ERGO    R216221  17.128   9.068   7.105  0.0051 -0.0015  0.0236
 1160ERGO    R316222  16.937   9.085   7.298 -0.0201 -0.1240  0.0097
 1160ERGO    R416223  17.189   9.138   7.438 -0.0638  0.0148  0.0323
 1160ERGO    R516224  17.040   8.990   7.492  0.0195 -0.0749  0.0117
 1160ERGO    C116225  17.046   9.196   7.813 -0.1277 -0.0907  0.0244
 1160ERGO    C216226  16.989   9.113   8.114 -0.1125  0.0533 -0.2895
 1161ERGO   ROH16227  14.880  11.324   8.443  0.0222  0.0400 -0.2362
 1161ERGO    R116228  14.620  11.434   8.446 -0.0097 -0.0356 -0.1286
 1161ERGO    R216229  14.460  11.445   8.221 -0.0497  0.0527 -0.0980
 1161ERGO    R316230  14.282  11.316   8.380  0.0140 -0.0942 -0.1444
 1161ERGO    R416231  14.118  11.442   8.171 -0.0743  0.1413  0.0619
 1161ERGO    R516232  14.092  11.462   8.387  0.0314 -0.0793  0.0982
 1161ERGO    C116233  13.751  11.319   8.292 -0.0288  0.0548  0.1114
 1161ERGO    C216234  13.428  11.334   8.241 -0.2050  0.1346 -0.0748
 1162ERGO   ROH16235   6.122   4.154   6.641 -0.1195 -0.0765 -0.1596
 1162ERGO    R116236   6.147   4.129   6.922 -0.0707  0.0941 -0.1478
 1162ERGO    R216237   6.151   4.348   7.090 -0.1670  0.1919 -0.2702
 1162ERGO    R316238   5.948   4.216   7.214 -0.0809  0.1508 -0.1713
 1162ERGO    R416239   6.064   4.388   7.422  0.0102  0.1465 -0.2170
 1162ERGO    R516240   6.032   4.172   7.435  0.0473  0.1404 -0.2210
 1162ERGO    C116241   5.823   4.288   7.732  0.1942  0.0816 -0.0933
 1162ERGO    C216242   5.801   4.583   7.897  0.0349 -0.0507 -0.2087
 1163ERGO   ROH16243  16.142   9.398   6.517  0.1383  0.3217  0.1555
 1163ERGO    R116244  16.181   9.476   6.786  0.0160  0.2211  0.2036
 1163ERGO    R216245  15.972   9.548   6.952 -0.0713  0.0512  0.1704
 1163ERGO    R316246  16.077   9.357   7.114 -0.0344  0.0274  0.1185
 1163ERGO    R416247  15.976   9.562   7.297 -0.0321 -0.0191  0.1727
 1163ERGO    R516248  16.177   9.479   7.294 -0.0246  0.0001  0.1319
 1163ERGO    C116249  16.076   9.390   7.651  0.0251 -0.0823  0.1255
 1163ERGO    C216250  15.855   9.275   7.967  0.0649 -0.0181 -0.1333
 1164ERGO   ROH16251  15.042   9.686   6.559  0.0562  0.0602 -0.0009
 1164ERGO    R116252  15.128   9.630   6.823 -0.0158 -0.1266 -0.0162
 1164ERGO    R216253  15.010   9.745   7.045  0.1781  0.0208  0.0097
 1164ERGO    R316254  14.981   9.486   7.124 -0.2291  0.0465 -0.0340
 1164ERGO    R416255  14.988   9.640   7.374  0.2639 -0.0135  0.0051
 1164ERGO    R516256  15.114   9.470   7.323 -0.0842 -0.2408 -0.1465
 1164ERGO    C116257  14.948   9.337   7.639 -0.0684 -0.0092 -0.0387
 1164ERGO    C216258  14.916   9.192   7.911  0.1874 -0.0859 -0.1785
 1165ERGO   ROH16259   1.888   5.869   8.769  0.0100  0.0407  0.0960
 1165ERGO    R116260   1.948   5.758   9.022  0.0179 -0.0215  0.0671
 1165ERGO    R216261   1.969   5.911   9.251  0.0022 -0.0800  0.1094
 1165ERGO    R316262   1.785   5.735   9.347  0.0168 -0.1221  0.0597
 1165ERGO    R416263   1.841   5.914   9.572 -0.1259 -0.0777  0.0589
 1165ERGO    R516264   1.853   5.696   9.573 -0.0615 -0.0734  0.0908
 1165ERGO    C116265   1.595   5.750   9.849 -0.1867 -0.1159 -0.0173
 1165ERGO    C216266   1.247   5.797   9.982  0.2458 -0.3435 -0.1596
 1166ERGO   ROH16267  11.358  12.257   6.585 -0.0975 -0.0174 -0.0493
 1166ERGO    R116268  11.433  12.486   6.733 -0.0905  0.0049 -0.0866
 1166ERGO    R216269  11.283  12.719   6.733 -0.1625 -0.0390 -0.0078
 1166ERGO    R316270  11.290  12.685   7.003 -0.0125 -0.0410 -0.0119
 1166ERGO    R416271  11.241  12.971   6.966 -0.0859 -0.0521  0.0201
 1166ERGO    R516272  11.400  12.881   7.085 -0.0065 -0.0231 -0.0661
 1166ERGO    C116273  11.224  13.085   7.355  0.0997 -0.0617  0.0325
 1166ERGO    C216274  11.211  13.325   7.650 -0.0678  0.0741 -0.2923
 1167ERGO   ROH16275   7.107  16.833   6.563  0.2246 -0.0524 -0.0923
 1167ERGO    R116276   6.978  16.734   6.795  0.1599 -0.0603 -0.1312
 1167ERGO    R216277   7.117  16.631   7.010  0.1069  0.0549 -0.0398
 1167ERGO    R316278   6.974  16.815   7.150 -0.0477  0.0201 -0.1506
 1167ERGO    R416279   7.077  16.632   7.354 -0.1388  0.0626 -0.0668
 1167ERGO    R516280   6.869  16.690   7.324 -0.1357 -0.0004 -0.2182
 1167ERGO    C116281   6.919  16.806   7.684 -0.4269  0.0346 -0.1867
 1167ERGO    C216282   6.862  16.944   7.983 -0.0950 -0.1858  0.0019
 1168ERGO   ROH16283   9.232   5.557   6.758 -0.2611  0.0295 -0.0073
 1168ERGO    R116284   9.152   5.723   6.973 -0.1129 -0.0613  0.1208
 1168ERGO    R216285   9.122   5.629   7.231  0.1099 -0.1621  0.1154
 1168ERGO    R316286   9.293   5.831   7.290  0.1303 -0.1600  0.0473
 1168ERGO    R416287   9.197   5.736   7.550  0.1148 -0.0490  0.0760
 1168ERGO    R516288   9.192   5.942   7.477  0.1409 -0.0786  0.0018
 1168ERGO    C116289   9.401   5.989   7.792  0.1369  0.0188 -0.0108
 1168ERGO    C216290   9.585   5.889   8.035  0.0213  0.1921  0.2289
 1169ERGO   ROH16291   0.423   1.440   7.102  0.0555  0.2014  0.0413
 1169ERGO    R116292   0.474   1.502   7.373  0.0503  0.3105  0.0187
 1169ERGO    R216293   0.530   1.308   7.562 -0.2881  0.3482  0.1730
 1169ERGO    R316294   0.751   1.461   7.606 -0.0827  0.0683  0.1350
 1169ERGO    R416295   0.686   1.349   7.868 -0.0890  0.0520  0.1143
 1169ERGO    R516296   0.714   1.559   7.821  0.1411  0.0328  0.1864
 1169ERGO    C116297   0.983   1.515   8.088  0.2197 -0.3833  0.0445
 1169ERGO    C216298   1.132   1.593   8.333  0.0900 -0.0907 -0.3972
 1170ERGO   ROH16299  17.590  11.206   6.555 -0.0707 -0.3934  0.1090
 1170ERGO    R116300  17.549  11.053   6.789  0.0781 -0.2759  0.2144
 1170ERGO    R216301  17.688  11.100   7.024  0.0475  0.0091  0.1828
 1170ERGO    R316302  17.439  11.117   7.130  0.0336 -0.1454  0.1756
 1170ERGO    R416303  17.616  11.081   7.361  0.0257 -0.2287  0.1661
 1170ERGO    R516304  17.441  10.961   7.312  0.0724 -0.2586  0.0775
 1170ERGO    C116305  17.340  11.087   7.658 -0.0003 -0.5123  0.1496
 1170ERGO    C216306  17.368  11.334   7.817 -0.1240 -0.0920  0.2881
 1171ERGO   ROH16307  15.164   7.165   6.363  0.0875 -0.0419  0.0003
 1171ERGO    R116308  15.078   7.126   6.630  0.0171  0.0625 -0.0069
 1171ERGO    R216309  15.212   6.961   6.807 -0.1227  0.0027  0.0419
 1171ERGO    R316310  15.212   7.184   6.963  0.0018  0.0293  0.0058
 1171ERGO    R416311  15.137   6.966   7.144 -0.1070  0.0942  0.0449
 1171ERGO    R516312  15.028   7.152   7.112 -0.0113  0.1492  0.0190
 1171ERGO    C116313  15.094   7.177   7.487  0.0191  0.1724  0.0127
 1171ERGO    C216314  15.093   7.260   7.768 -0.2307 -0.0146 -0.1165
 1172ERGO   ROH16315   6.590   6.358   6.680  0.1497 -0.0181  0.0394
 1172ERGO    R116316   6.662   6.403   6.950 -0.0416 -0.0194  0.0906
 1172ERGO    R216317   6.494   6.341   7.161 -0.0690 -0.3070 -0.0188
 1172ERGO    R316318   6.709   6.199   7.248  0.0713 -0.0636  0.0451
 1172ERGO    R416319   6.563   6.267   7.492 -0.2441 -0.4585 -0.0136
 1172ERGO    R516320   6.773   6.306   7.452 -0.2558 -0.1181  0.1873
 1172ERGO    C116321   6.805   6.091   7.765 -0.2144 -0.3182  0.0494
 1172ERGO    C216322   6.697   6.106   8.089  0.1849  0.0881  0.0139
 1173ERGO   ROH16323  10.802   6.697   6.881 -0.0295 -0.0076  0.1481
 1173ERGO    R116324  10.855   6.721   7.158 -0.0875  0.1647  0.1454
 1173ERGO    R216325  10.865   6.965   7.287 -0.2509  0.2371  0.0232
 1173ERGO    R316326  10.681   6.849   7.450 -0.2097  0.2127  0.0526
 1173ERGO    R416327  10.866   6.986   7.632 -0.1635  0.1843  0.0265
 1173ERGO    R516328  10.808   6.776   7.640 -0.1619  0.1833  0.0094
 1173ERGO    C116329  10.695   6.889   7.986 -0.0739  0.1308  0.0559
 1173ERGO    C216330  10.685   6.796   8.392 -0.0167 -0.3680 -0.4001
 1174ERGO   ROH16331   1.589  17.414   6.320  0.1960  0.0333  0.0728
 1174ERGO    R116332   1.704  17.424   6.578  0.2035 -0.1410  0.0772
 1174ERGO    R216333   1.688  17.648   6.739  0.4511 -0.1480  0.1150
 1174ERGO    R316334   1.586  17.471   6.919  0.2477 -0.0666  0.0825
 1174ERGO    R416335   1.686  17.693   7.082  0.2192 -0.0732  0.1060
 1174ERGO    R516336   1.736  17.482   7.105  0.1165 -0.0880  0.1902
 1174ERGO    C116337   1.589  17.553   7.450 -0.1068  0.0466  0.0702
 1174ERGO    C216338   1.558  17.491   7.795 -0.1798  0.0216 -0.0255
 1175ERGO   ROH16339  16.706  10.515   6.753  0.2107 -0.1168  0.0206
 1175ERGO    R116340  16.757  10.424   7.016  0.0989 -0.0314  0.0714
 1175ERGO    R216341  16.695  10.573   7.240 -0.2603 -0.0835  0.0023
 1175ERGO    R316342  16.561  10.348   7.313 -0.0596 -0.2339 -0.0800
 1175ERGO    R416343  16.586  10.503   7.560 -0.4562 -0.1461 -0.0748
 1175ERGO    R516344  16.647  10.296   7.530 -0.1793 -0.0893  0.0100
 1175ERGO    C116345  16.398  10.251   7.815 -0.3819 -0.3236 -0.1970
 1175ERGO    C216346  16.192  10.290   8.053  0.1429  0.3919  0.0191
 1176ERGO   ROH16347  15.665  12.737   6.671  0.1528 -0.2407 -0.0544
 1176ERGO    R116348  15.770  12.749   6.933  0.0387  0.0569 -0.0182
 1176ERGO    R216349  15.637  12.874   7.141 -0.3055 -0.1548 -0.1003
 1176ERGO    R316350  15.670  12.634   7.264  0.1577 -0.0632 -0.0240
 1176ERGO    R416351  15.625  12.824   7.483 -0.3106 -0.0928 -0.0911
 1176ERGO    R516352  15.792  12.685   7.463 -0.0095  0.2460  0.0023
 1176ERGO    C116353  15.648  12.569   7.797  0.1213  0.0293 -0.0141
 1176ERGO    C216354  15.657  12.558   8.152  0.0774  0.1835  0.0701
 1177ERGO   ROH16355   0.802  10.721   6.772 -0.1028 -0.1220 -0.0549
 1177ERGO    R116356   0.752  10.640   7.039 -0.0153 -0.0146 -0.0073
 1177ERGO    R216357   0.919  10.709   7.249 -0.0403  0.2068 -0.0713
 1177ERGO    R316358   0.689  10.804   7.358 -0.0892  0.1064 -0.0798
 1177ERGO    R416359   0.845  10.707   7.586  0.1443  0.5348 -0.0234
 1177ERGO    R516360   0.640  10.652   7.536  0.1620  0.2571  0.1368
 1177ERGO    C116361   0.586  10.796   7.885  0.2059  0.6314 -0.0035
 1177ERGO    C216362   0.523  10.673   8.232  0.0608 -0.0351  0.3169
 1178ERGO   ROH16363  10.140   7.747   6.855  0.0529 -0.0147  0.1031
 1178ERGO    R116364  10.286   7.863   7.068 -0.0237  0.0497  0.1218
 1178ERGO    R216365  10.195   7.861   7.329 -0.0112 -0.0741  0.1301
 1178ERGO    R316366  10.438   7.749   7.378  0.0750  0.0945  0.0886
 1178ERGO    R416367  10.401   7.941   7.595 -0.1128 -0.0891  0.2134
 1178ERGO    R516368  10.572   7.929   7.460 -0.0844  0.1450  0.2322
 1178ERGO    C116369  10.750   7.883   7.795 -0.0912  0.0602  0.2231
 1178ERGO    C216370  10.666   7.807   8.175 -0.1645  0.0055 -0.0850
 1179ERGO   ROH16371  11.166   0.423   6.271 -0.1847 -0.0924 -0.1452
 1179ERGO    R116372  11.042   0.292   6.489 -0.0953 -0.0133 -0.0461
 1179ERGO    R216373  11.095   0.358   6.752 -0.0374  0.1284 -0.0944
 1179ERGO    R316374  10.825   0.387   6.765 -0.0411  0.0730 -0.0323
 1179ERGO    R416375  10.908   0.334   7.041  0.0467  0.1713 -0.0358
 1179ERGO    R516376  10.756   0.227   6.929  0.0388  0.1035  0.0347
 1179ERGO    C116377  10.546   0.349   7.223  0.0922  0.1443  0.0567
 1179ERGO    C216378  10.306   0.530   7.403 -0.0544 -0.0455  0.0299
 1180ERGO   ROH16379   7.788   9.117   6.887  0.1300  0.0119  0.0498
 1180ERGO    R116380   7.711   9.063   7.154  0.0345 -0.0644  0.0078
 1180ERGO    R216381   7.841   8.878   7.312  0.0538 -0.0253  0.0399
 1180ERGO    R316382   7.864   9.088   7.484 -0.1252 -0.0376  0.0809
 1180ERGO    R416383   7.924   8.852   7.647  0.0906 -0.0185  0.0311
 1180ERGO    R516384   7.776   9.006   7.691 -0.0448 -0.1574  0.0681
 1180ERGO    C116385   7.994   9.033   8.003 -0.0561 -0.0263  0.0645
 1180ERGO    C216386   8.146   8.939   8.327  0.0066 -0.0289 -0.0488
 1181ERGO   ROH16387  10.155   0.361   5.829  0.0497 -0.0548  0.0390
 1181ERGO    R116388  10.087   0.148   6.003  0.1395 -0.0530  0.0774
 1181ERGO    R216389  10.220   0.102   6.241  0.0546  0.1442  0.1673
 1181ERGO    R316390   9.969   0.114   6.345 -0.0136 -0.0309  0.0272
 1181ERGO    R416391  10.100  -0.102   6.493  0.1383  0.2276  0.2754
 1181ERGO    R516392   9.911  -0.114   6.387  0.2041 -0.0596  0.1863
 1181ERGO    C116393   9.795  -0.210   6.737  0.1232  0.1118  0.2068
 1181ERGO    C216394   9.566  -0.379   7.018  0.1632 -0.2857 -0.0627
 1182ERGO   ROH16395   6.589   5.447   6.692 -0.0964 -0.0379  0.0998
 1182ERGO    R116396   6.645   5.277   6.912  0.0009 -0.1267  0.0073
 1182ERGO    R216397   6.896   5.170   6.957  0.1183  0.1640  0.0634
 1182ERGO    R316398   6.865   5.285   7.202 -0.1652 -0.0500  0.1335
 1182ERGO    R416399   7.050   5.062   7.247  0.2425  0.2548  0.0321
 1182ERGO    R516400   6.865   5.100   7.354  0.1339 -0.1599  0.0099
 1182ERGO    C116401   7.112   5.106   7.645  0.0487  0.1068  0.0798
 1182ERGO    C216402   7.143   5.104   7.982 -0.0903 -0.1297 -0.1785
 1183ERGO   ROH16403  10.191  12.051   6.291 -0.2081 -0.0458 -0.1210
 1183ERGO    R116404  10.082  12.257   6.451 -0.1534 -0.0639 -0.0602
 1183ERGO    R216405   9.819  12.257   6.536 -0.0945 -0.1319  0.1262
 1183ERGO    R316406   9.932  12.284   6.782  0.0717 -0.0801  0.0458
 1183ERGO    R416407   9.677  12.427   6.802  0.1171 -0.0124  0.1651
 1183ERGO    R516408   9.874  12.506   6.850  0.1694 -0.0434  0.0127
 1183ERGO    C116409   9.701  12.551   7.187  0.3965  0.1058  0.1123
 1183ERGO    C216410   9.559  12.388   7.474  0.0693 -0.3804  0.0087
 1184ERGO   ROH16411   0.791  16.098   6.668  0.4769 -0.0224 -0.2295
 1184ERGO    R116412   0.796  16.182   6.938  0.2623  0.0826 -0.2567
 1184ERGO    R216413   0.752  16.008   7.149  0.0631  0.1734 -0.2266
 1184ERGO    R316414   0.991  16.104   7.235  0.0036  0.1736 -0.0581
 1184ERGO    R416415   0.866  15.989   7.474 -0.2175  0.2550 -0.1203
 1184ERGO    R516416   0.944  16.191   7.454 -0.1760  0.2454 -0.1186
 1184ERGO    C116417   1.157  16.068   7.745 -0.4368  0.3025  0.0998
 1184ERGO    C216418   1.283  16.114   8.074 -0.0535  0.0692  0.1897
 1185ERGO   ROH16419  15.139   3.263   6.767 -0.0016  0.1836  0.0079
 1185ERGO    R116420  15.221   3.343   7.026  0.0029  0.1035  0.0323
 1185ERGO    R216421  15.090   3.264   7.255 -0.0110  0.0550  0.0100
 1185ERGO    R316422  15.338   3.180   7.329 -0.0220  0.0061 -0.0108
 1185ERGO    R416423  15.186   3.192   7.580  0.0094  0.0573  0.0040
 1185ERGO    R516424  15.377   3.288   7.539  0.0252  0.0116 -0.0235
 1185ERGO    C116425  15.474   3.072   7.838  0.0111  0.0127 -0.0190
 1185ERGO    C216426  15.445   2.990   8.174 -0.3477  0.1041 -0.2116
 1186ERGO   ROH16427   2.923   9.642   6.718 -0.0116 -0.0690 -0.0283
 1186ERGO    R116428   2.861   9.604   6.992 -0.2593 -0.1485 -0.0928
 1186ERGO    R216429   2.905   9.799   7.183 -0.0511 -0.3459  0.0625
 1186ERGO    R316430   2.642   9.758   7.238 -0.1642  0.0643 -0.1386
 1186ERGO    R416431   2.745   9.905   7.469 -0.0112 -0.4017  0.1063
 1186ERGO    R516432   2.636   9.716   7.473 -0.3653 -0.2195 -0.1874
 1186ERGO    C116433   2.404   9.930   7.688 -0.0940 -0.0492 -0.0570
 1186ERGO    C216434   2.258   9.856   7.995 -0.0417 -0.0202  0.0750
 1187ERGO   ROH16435   1.616  12.790   6.685 -0.0941 -0.0105  0.0600
 1187ERGO    R116436   1.637  12.699   6.953  0.0660 -0.0221  0.0447
 1187ERGO    R216437   1.842  12.779   7.121  0.0907  0.0836 -0.0277
 1187ERGO    R316438   1.637  12.850   7.284  0.1104 -0.0490  0.0556
 1187ERGO    R416439   1.875  12.870   7.453  0.1545  0.0848 -0.0347
 1187ERGO    R516440   1.694  12.757   7.496  0.2423 -0.0237  0.0278
 1187ERGO    C116441   1.701  12.990   7.799  0.2101 -0.0389  0.0394
 1187ERGO    C216442   1.530  13.108   8.048 -0.1380 -0.4036  0.0122
 1188ERGO   ROH16443   8.002  15.376   6.720 -0.0369  0.0247 -0.1097
 1188ERGO    R116444   7.824  15.438   6.931  0.0301  0.0996 -0.0751
 1188ERGO    R216445   7.704  15.243   7.086 -0.0794  0.1477 -0.1019
 1188ERGO    R316446   7.813  15.385   7.291  0.0391  0.0334 -0.0839
 1188ERGO    R416447   7.648  15.180   7.421 -0.2727  0.2546 -0.1122
 1188ERGO    R516448   7.638  15.395   7.455 -0.0064  0.2764 -0.1413
 1188ERGO    C116449   7.717  15.276   7.809 -0.2741  0.2095 -0.1013
 1188ERGO    C216450   7.829  15.048   7.954  0.1143  0.2112 -0.1253
 1189ERGO   ROH16451  13.743   0.313   6.964  0.0476  0.0775 -0.0601
 1189ERGO    R116452  13.825   0.385   7.225 -0.1268  0.0703 -0.0023
 1189ERGO    R216453  13.674   0.327   7.449 -0.2061 -0.0697 -0.0892
 1189ERGO    R316454  13.904   0.210   7.534 -0.1779  0.0501 -0.0012
 1189ERGO    R416455  13.719   0.184   7.761 -0.1868  0.1188 -0.0046
 1189ERGO    R516456  13.919   0.271   7.766 -0.2162  0.1837 -0.0345
 1189ERGO    C116457  13.961  -0.008   8.023 -0.1490  0.3408  0.1273
 1189ERGO    C216458  13.857  -0.325   8.221 -0.0653  0.0872  0.0537
 1190ERGO   ROH16459   2.780  13.944   6.666  0.2429  0.0181 -0.0339
 1190ERGO    R116460   2.692  13.991   6.931  0.0059 -0.0320 -0.1017
 1190ERGO    R216461   2.468  13.869   7.038  0.1001 -0.3107 -0.2182
 1190ERGO    R316462   2.642  13.793   7.233  0.0808 -0.0247 -0.0840
 1190ERGO    R416463   2.380  13.797   7.364 -0.0183 -0.3512 -0.2580
 1190ERGO    R516464   2.560  13.901   7.431 -0.1994 -0.0849 -0.1617
 1190ERGO    C116465   2.493  13.684   7.737 -0.1055 -0.1064 -0.1551
 1190ERGO    C216466   2.303  13.725   8.020 -0.1081 -0.0739  0.0297
 1191ERGO   ROH16467   1.697   1.072   6.513 -0.0929  0.1405  0.2122
 1191ERGO    R116468   1.674   0.889   6.728 -0.0718  0.0823  0.1646
 1191ERGO    R216469   1.892   0.805   6.876 -0.0454 -0.0263  0.0627
 1191ERGO    R316470   1.742   0.891   7.085  0.0530 -0.0465  0.1427
 1191ERGO    R416471   1.929   0.698   7.202  0.1240 -0.0424  0.0395
 1191ERGO    R516472   1.712   0.696   7.221  0.1322 -0.0566  0.1475
 1191ERGO    C116473   1.810   0.717   7.589  0.3150 -0.0709  0.1012
 1191ERGO    C216474   1.690   0.898   7.921  0.1798  0.1906 -0.0046
 1192ERGO   ROH16475   5.895  17.232   6.528  0.0608 -0.0233  0.0877
 1192ERGO    R116476   5.820  17.142   6.785 -0.0264  0.0607  0.0925
 1192ERGO    R216477   5.962  16.949   6.923 -0.2399 -0.1111  0.0785
 1192ERGO    R316478   5.967  17.138   7.118 -0.0022 -0.1169  0.0807
 1192ERGO    R416479   5.949  16.883   7.262 -0.3225 -0.1004  0.0773
 1192ERGO    R516480   5.817  17.055   7.285 -0.1089  0.0681  0.0795
 1192ERGO    C116481   5.945  17.023   7.643 -0.1476 -0.0996  0.0788
 1192ERGO    C216482   5.962  17.127   8.040 -0.0449 -0.2919 -0.0305
 1193ERGO   ROH16483   3.566  13.511   6.578  0.1799 -0.0258 -0.0184
 1193ERGO    R116484   3.685  13.531   6.834  0.0231 -0.1766  0.0673
 1193ERGO    R216485   3.669  13.759   6.988  0.1823 -0.1640  0.0591
 1193ERGO    R316486   3.571  13.587   7.175 -0.1522 -0.0561 -0.0079
 1193ERGO    R416487   3.629  13.833   7.323  0.3944 -0.2229  0.0993
 1193ERGO    R516488   3.701  13.633   7.371 -0.0119 -0.4106 -0.0042
 1193ERGO    C116489   3.515  13.715   7.694  0.2039 -0.1558  0.0598
 1193ERGO    C216490   3.413  13.992   7.928  0.1421 -0.0264 -0.0202
 1194ERGO   ROH16491   0.505  11.902   6.414  0.3139  0.1520 -0.1219
 1194ERGO    R116492   0.404  12.027   6.647  0.0275 -0.0642 -0.1248
 1194ERGO    R216493   0.338  11.885   6.875  0.2991 -0.2174 -0.1384
 1194ERGO    R316494   0.508  12.062   6.994 -0.0732  0.1377 -0.1132
 1194ERGO    R416495   0.329  11.974   7.209  0.1021 -0.2772 -0.1269
 1194ERGO    R516496   0.370  12.180   7.151 -0.3355 -0.1715 -0.0998
 1194ERGO    C116497   0.482  12.191   7.515 -0.3620  0.0212 -0.0965
 1194ERGO    C216498   0.443  12.190   7.854  0.2048  0.0412  0.0450
 1195ERGO   ROH16499   0.397   5.860   6.736  0.0608  0.0597  0.0971
 1195ERGO    R116500   0.215   5.848   6.952  0.0514 -0.0260  0.0849
 1195ERGO    R216501   0.266   5.966   7.196  0.0325 -0.1063  0.1281
 1195ERGO    R316502   0.026   6.087   7.152  0.0269 -0.1063  0.1584
 1195ERGO    R416503   0.074   6.118   7.440  0.1332  0.0227  0.1285
 1195ERGO    R516504  -0.104   6.033   7.346  0.0916 -0.0061  0.2311
 1195ERGO    C116505  -0.264   6.319   7.540  0.1867  0.0979  0.1572
 1195ERGO    C216506  -0.392   6.650   7.795  0.3653  0.1889 -0.1230
 1196ERGO   ROH16507  11.954   0.279   6.774 -0.3453  0.1608 -0.0936
 1196ERGO    R116508  11.960   0.288   7.057 -0.2137 -0.0368 -0.0873
 1196ERGO    R216509  11.955   0.526   7.198  0.0913 -0.1197  0.0809
 1196ERGO    R316510  11.743   0.410   7.322  0.0218  0.0114  0.0846
 1196ERGO    R416511  11.831   0.620   7.507  0.0315  0.0710 -0.0001
 1196ERGO    R516512  11.803   0.409   7.554 -0.0471  0.1086  0.0993
 1196ERGO    C116513  11.560   0.565   7.803 -0.0687  0.3052 -0.0439
 1196ERGO    C216514  11.433   0.719   7.911  0.2570 -0.0398  0.0629
 1197ERGO   ROH16515   9.641   9.198   7.041  0.0836 -0.2327  0.0486
 1197ERGO    R116516   9.548   9.284   7.294 -0.0695 -0.1802 -0.0239
 1197ERGO    R216517   9.367   9.138   7.443 -0.0054 -0.2501 -0.0137
 1197ERGO    R316518   9.558   9.159   7.636 -0.0849 -0.0045  0.0416
 1197ERGO    R416519   9.352   8.986   7.753  0.1878 -0.4388 -0.0936
 1197ERGO    R516520   9.434   9.169   7.841 -0.1569 -0.3285  0.0184
 1197ERGO    C116521   9.521   8.918   8.115  0.2257 -0.3181 -0.0883
 1197ERGO    C216522   9.457   8.710   8.402  0.1780 -0.0347 -0.3868
 1198ERGO   ROH16523   4.513  16.432   6.613  0.0641 -0.1766 -0.1599
 1198ERGO    R116524   4.675  16.495   6.836  0.0009 -0.1081 -0.1327
 1198ERGO    R216525   4.602  16.684   7.024 -0.0858 -0.1004 -0.1718
 1198ERGO    R316526   4.643  16.479   7.198 -0.0742 -0.0690 -0.1378
 1198ERGO    R416527   4.542  16.699   7.364 -0.1547 -0.0731 -0.1849
 1198ERGO    R516528   4.726  16.585   7.396 -0.1368 -0.0275 -0.1350
 1198ERGO    C116529   4.546  16.516   7.726 -0.1839 -0.0277 -0.1607
 1198ERGO    C216530   4.548  16.383   8.067  0.1585  0.0608 -0.2959
 1199ERGO   ROH16531   0.765   2.385   6.755  0.2057  0.2590  0.0861
 1199ERGO    R116532   0.745   2.497   7.014 -0.0901  0.1320  0.1215
 1199ERGO    R216533   0.558   2.414   7.198  0.0646 -0.3579  0.0644
 1199ERGO    R316534   0.776   2.380   7.357  0.1258  0.0829  0.0882
 1199ERGO    R416535   0.553   2.425   7.544  0.0076 -0.3086  0.0626
 1199ERGO    R516536   0.742   2.535   7.537 -0.1899  0.0577  0.0608
 1199ERGO    C116537   0.755   2.401   7.894  0.0320  0.1340  0.0839
 1199ERGO    C216538   0.599   2.408   8.195 -0.1441  0.0047  0.1191
 1200ERGO   ROH16539  12.738  12.100   6.853 -0.3274 -0.2349  0.1499
 1200ERGO    R116540  12.602  12.099   7.101 -0.2238 -0.3379  0.2081
 1200ERGO    R216541  12.665  11.923   7.304  0.0553 -0.2351  0.2196
 1200ERGO    R316542  12.689  12.151   7.450 -0.1302 -0.1778  0.1611
 1200ERGO    R416543  12.735  11.934   7.643  0.0423 -0.0862  0.2171
 1200ERGO    R516544  12.591  12.096   7.662 -0.0872 -0.1990  0.1728
 1200ERGO    C116545  12.798  12.155   7.977 -0.1396  0.0544  0.1607
 1200ERGO    C216546  12.914  12.409   8.159 -0.0096  0.0107 -0.2258
 1201ERGO   ROH16547  11.739   8.524   6.681  0.1017  0.1433 -0.1598
 1201ERGO    R116548  11.742   8.508   6.964  0.0369 -0.0257 -0.1679
 1201ERGO    R216549  11.933   8.635   7.118  0.0041 -0.1206 -0.0477
 1201ERGO    R316550  11.715   8.740   7.243 -0.0225 -0.1912 -0.0342
 1201ERGO    R416551  11.917   8.718   7.453  0.0315 -0.0306 -0.0684
 1201ERGO    R516552  11.715   8.638   7.459  0.0716 -0.1287 -0.0040
 1201ERGO    C116553  11.703   8.865   7.765  0.0224 -0.0444 -0.0677
 1201ERGO    C216554  11.771   8.916   8.133  0.2341 -0.1544  0.1747
 1202ERGO   ROH16555  16.029   7.075   6.486  0.0810 -0.1168 -0.0811
 1202ERGO    R116556  16.142   6.991   6.732 -0.0391 -0.0736 -0.0107
 1202ERGO    R216557  16.269   7.165   6.904  0.0170 -0.0719 -0.0572
 1202ERGO    R316558  16.093   7.064   7.085 -0.0941  0.1177 -0.0565
 1202ERGO    R416559  16.275   7.229   7.244  0.2105 -0.2273 -0.0288
 1202ERGO    R516560  16.225   7.020   7.279 -0.1029 -0.1730 -0.1096
 1202ERGO    C116561  16.112   7.172   7.611  0.2190 -0.1399 -0.0115
 1202ERGO    C216562  16.085   7.246   8.022 -0.0843 -0.2208  0.0787
 1203ERGO   ROH16563   3.968  14.699   6.473 -0.2977 -0.1659  0.2689
 1203ERGO    R116564   3.951  14.616   6.743 -0.1184 -0.0895  0.3045
 1203ERGO    R216565   4.160  14.492   6.874 -0.0040  0.0190  0.2249
 1203ERGO    R316566   4.124  14.692   7.054  0.0328  0.0617  0.1857
 1203ERGO    R416567   4.283  14.491   7.197  0.1340  0.1323  0.1739
 1203ERGO    R516568   4.095  14.579   7.264  0.1441  0.1128  0.2299
 1203ERGO    C116569   4.321  14.679   7.554  0.2489  0.2382  0.1073
 1203ERGO    C216570   4.440  14.589   7.891  0.3476  0.0553  0.0074
 1204ERGO   ROH16571   8.304   1.944   6.134  0.0392 -0.3412 -0.0012
 1204ERGO    R116572   8.439   1.741   6.279  0.2879 -0.1996 -0.0275
 1204ERGO    R216573   8.713   1.709   6.270  0.3491  0.2120  0.0642
 1204ERGO    R316574   8.692   1.727   6.540  0.2132  0.0823  0.0627
 1204ERGO    R416575   8.900   1.526   6.496  0.1818  0.0534  0.0766
 1204ERGO    R516576   8.722   1.502   6.618  0.1142  0.0387 -0.0301
 1204ERGO    C116577   8.989   1.437   6.881 -0.0431 -0.1606  0.0824
 1204ERGO    C216578   9.238   1.315   7.098 -0.2720 -0.3613 -0.6409
 1205ERGO   ROH16579   4.156  15.582   6.680 -0.1753  0.0403 -0.0372
 1205ERGO    R116580   4.173  15.686   6.942 -0.0187 -0.0348 -0.0161
 1205ERGO    R216581   3.968  15.830   7.059  0.1328  0.1205  0.0690
 1205ERGO    R316582   3.993  15.645   7.256  0.0196  0.0490  0.0165
 1205ERGO    R416583   3.902  15.887   7.394  0.0589  0.0282  0.0702
 1205ERGO    R516584   4.078  15.768   7.443  0.0056 -0.0416  0.0803
 1205ERGO    C116585   3.888  15.746   7.773 -0.0903 -0.0927  0.0214
 1205ERGO    C216586   3.655  15.649   7.970 -0.1613  0.1723  0.3521
 1206ERGO   ROH16587  12.720   9.612   6.717  0.1001  0.2745  0.1735
 1206ERGO    R116588  12.716   9.429   6.933 -0.0532  0.1217  0.0432
 1206ERGO    R216589  12.920   9.413   7.118 -0.0552 -0.2031  0.0139
 1206ERGO    R316590  12.718   9.450   7.296 -0.0040 -0.1450  0.0620
 1206ERGO    R416591  12.960   9.529   7.441  0.0451 -0.0316 -0.0583
 1206ERGO    R516592  12.811   9.385   7.507  0.0845 -0.0273  0.0663
 1206ERGO    C116593  12.794   9.632   7.796  0.1515  0.1228 -0.0552
 1206ERGO    C216594  12.804   9.885   8.054  0.1447 -0.3580  0.2822
 1207ERGO   ROH16595   3.651   6.723   7.051 -0.0312 -0.0429 -0.0178
 1207ERGO    R116596   3.767   6.695   7.308  0.0544 -0.1634 -0.0689
 1207ERGO    R216597   3.674   6.833   7.529  0.2850 -0.0771 -0.0246
 1207ERGO    R316598   3.658   6.584   7.637  0.0876 -0.0655 -0.0238
 1207ERGO    R416599   3.620   6.765   7.864  0.0263 -0.0334 -0.0554
 1207ERGO    R516600   3.765   6.603   7.850 -0.0431 -0.1091  0.0489
 1207ERGO    C116601   3.573   6.491   8.159 -0.3096  0.0028 -0.0725
 1207ERGO    C216602   3.504   6.317   8.484  0.1445 -0.1245 -0.0764
 1208ERGO   ROH16603   4.642  15.467   6.713  0.0299  0.1678  0.1455
 1208ERGO    R116604   4.784  15.289   6.881  0.1248  0.1354  0.0332
 1208ERGO    R216605   5.044  15.336   6.963  0.0506  0.3032  0.1891
 1208ERGO    R316606   4.938  15.303   7.211 -0.0304 -0.0354  0.1139
 1208ERGO    R416607   5.224  15.246   7.244  0.0337  0.3524  0.2156
 1208ERGO    R516608   5.059  15.117   7.302  0.1887  0.0685  0.0358
 1208ERGO    C116609   5.230  15.163   7.640 -0.0521  0.0633  0.1603
 1208ERGO    C216610   5.395  15.039   7.846  0.2253  0.0461  0.0279
 1209ERGO   ROH16611  12.570   4.380   6.823  0.0275 -0.1200 -0.1266
 1209ERGO    R116612  12.476   4.312   7.081 -0.0815 -0.1783 -0.1817
 1209ERGO    R216613  12.524   4.066   7.198  0.1677 -0.0813 -0.0806
 1209ERGO    R316614  12.623   4.217   7.400 -0.1975  0.1118 -0.0373
 1209ERGO    R416615  12.484   3.996   7.534  0.2754 -0.2469 -0.1006
 1209ERGO    R516616  12.453   4.209   7.569 -0.2143 -0.3094 -0.0609
 1209ERGO    C116617  12.554   4.097   7.920 -0.0049 -0.1621 -0.0716
 1209ERGO    C216618  12.468   3.938   8.269  0.3301  0.1693 -0.2136
 1210ERGO   ROH16619   6.933  15.792   7.157 -0.0755  0.2246 -0.0318
 1210ERGO    R116620   6.780  15.674   7.364 -0.0830  0.1053 -0.1067
 1210ERGO    R216621   6.828  15.723   7.632 -0.1178 -0.0197 -0.0820
 1210ERGO    R316622   6.564  15.790   7.633 -0.1283 -0.0546 -0.0716
 1210ERGO    R416623   6.644  15.793   7.916 -0.0631  0.1534 -0.0870
 1210ERGO    R516624   6.477  15.683   7.829 -0.0695  0.0673  0.0254
 1210ERGO    C116625   6.290  15.898   8.083 -0.0410  0.2215 -0.0801
 1210ERGO    C216626   6.144  16.076   8.356  0.2951  0.4604  0.0082
 1211ERGO   ROH16627   6.907   9.689   6.664  0.0244 -0.2313 -0.0415
 1211ERGO    R116628   6.733   9.783   6.866  0.1396 -0.0870 -0.0058
 1211ERGO    R216629   6.502   9.650   6.936 -0.0346  0.1724 -0.0541
 1211ERGO    R316630   6.609   9.661   7.186 -0.0117 -0.0563 -0.0532
 1211ERGO    R416631   6.322   9.703   7.227  0.0386  0.2594 -0.0258
 1211ERGO    R516632   6.483   9.832   7.297  0.1899  0.0430  0.0231
 1211ERGO    C116633   6.318   9.744   7.630  0.1026  0.0953 -0.0084
 1211ERGO    C216634   6.152   9.651   7.954  0.0036 -0.0094 -0.0146
 1212ERGO   ROH16635  10.462  16.823   6.654 -0.2200 -0.4421 -0.0614
 1212ERGO    R116636  10.367  16.902   6.909 -0.1738 -0.2282 -0.1077
 1212ERGO    R216637  10.134  16.800   7.019 -0.0958 -0.2233  0.0684
 1212ERGO    R316638  10.298  16.739   7.227 -0.0010  0.0574  0.0801
 1212ERGO    R416639  10.046  16.821   7.352 -0.0266 -0.0167  0.0749
 1212ERGO    R516640  10.244  16.901   7.395 -0.0711  0.1557 -0.0369
 1212ERGO    C116641  10.148  16.776   7.742  0.1028  0.3671  0.0897
 1212ERGO    C216642  10.001  16.615   7.938  0.0524 -0.0368 -0.1266
 1213ERGO   ROH16643   4.399   0.974   6.447 -0.3396  0.2506 -0.1195
 1213ERGO    R116644   4.294   1.059   6.696 -0.4437  0.1281 -0.1198
 1213ERGO    R216645   4.059   0.956   6.800 -0.2562 -0.2625 -0.0490
 1213ERGO    R316646   4.216   0.904   7.016 -0.1139  0.0614 -0.0700
 1213ERGO    R416647   3.942   0.867   7.113 -0.0283 -0.2190  0.0496
 1213ERGO    R516648   4.094   0.995   7.201 -0.1555  0.0220 -0.0829
 1213ERGO    C116649   4.021   0.766   7.498  0.2379  0.1104  0.0873
 1213ERGO    C216650   4.079   0.693   7.792 -0.3833  0.0369 -0.0295
 1214ERGO   ROH16651  14.378   5.170   6.937 -0.0692 -0.0917  0.1696
 1214ERGO    R116652  14.354   5.331   7.169 -0.0643 -0.0414  0.1352
 1214ERGO    R216653  14.219   5.247   7.395 -0.0316 -0.0052  0.1675
 1214ERGO    R316654  14.454   5.308   7.519 -0.0265  0.0504  0.1307
 1214ERGO    R416655  14.268   5.242   7.737  0.0134  0.0449  0.1622
 1214ERGO    R516656  14.387   5.424   7.717 -0.0209  0.0629  0.1252
 1214ERGO    C116657  14.517   5.296   8.052  0.0445  0.1263  0.1247
 1214ERGO    C216658  14.531   5.224   8.392 -0.2248 -0.0890 -0.0381
 1215ERGO   ROH16659   0.204  13.869   6.132  0.0121 -0.0726  0.1025
 1215ERGO    R116660   0.266  13.863   6.407  0.1145 -0.0941  0.0817
 1215ERGO    R216661   0.473  14.009   6.517  0.1404 -0.0682  0.0289
 1215ERGO    R316662   0.277  14.101   6.682  0.1762 -0.1187  0.0960
 1215ERGO    R416663   0.528  14.158   6.824  0.1845 -0.0755  0.0227
 1215ERGO    R516664   0.356  14.049   6.902  0.2412 -0.1084  0.0649
 1215ERGO    C116665   0.377  14.332   7.157  0.2439 -0.1272  0.0820
 1215ERGO    C216666   0.405  14.351   7.460  0.0202 -0.2038 -0.0472
 1216ERGO   ROH16667  14.087  16.578   6.741 -0.1243  0.0827 -0.0993
 1216ERGO    R116668  14.176  16.654   6.999  0.0451 -0.0146 -0.1288
 1216ERGO    R216669  14.018  16.795   7.176  0.2175  0.0590 -0.0322
 1216ERGO    R316670  14.076  16.589   7.343  0.1652 -0.0051 -0.0918
 1216ERGO    R416671  14.002  16.809   7.521  0.1898 -0.0507 -0.0281
 1216ERGO    R516672  14.186  16.692   7.529  0.1672 -0.0858 -0.0486
 1216ERGO    C116673  14.048  16.623   7.878  0.1245 -0.1745 -0.0816
 1216ERGO    C216674  14.119  16.490   8.182 -0.1103 -0.0174  0.2525
 1217ERGO   ROH16675   9.256  14.694   6.833 -0.0721  0.1707 -0.0354
 1217ERGO    R116676   9.144  14.836   7.051  0.0478  0.1281  0.0545
 1217ERGO    R216677   9.252  14.827   7.305  0.0958 -0.0503  0.0289
 1217ERGO    R316678   9.252  15.098   7.279  0.2343 -0.0360  0.1574
 1217ERGO    R416679   9.302  15.051   7.564 -0.0347 -0.1929  0.1806
 1217ERGO    R516680   9.146  15.177   7.478  0.0928 -0.0864  0.1032
 1217ERGO    C116681   9.331  15.435   7.690  0.0194 -0.2626  0.3896
 1217ERGO    C216682   9.453  15.556   7.996 -0.1134 -0.3004  0.4886
 1218ERGO   ROH16683   9.340  13.393   6.679  0.0557  0.0224  0.0140
 1218ERGO    R116684   9.376  13.431   6.957  0.1291 -0.1477  0.0278
 1218ERGO    R216685   9.169  13.499   7.126  0.2132 -0.0559  0.0881
 1218ERGO    R316686   9.251  13.279   7.264  0.0458 -0.1948 -0.0278
 1218ERGO    R416687   9.103  13.439   7.460  0.3899 -0.0443  0.1267
 1218ERGO    R516688   9.307  13.362   7.481  0.3189 -0.3068 -0.0468
 1218ERGO    C116689   9.142  13.198   7.784  0.3356 -0.1678  0.0404
 1218ERGO    C216690   8.939  13.340   8.124  0.0395  0.1988  0.1617
 1219ERGO   ROH16691  10.391  11.134   6.394 -0.1916 -0.0521  0.1503
 1219ERGO    R116692  10.574  11.173   6.606 -0.2167 -0.0298  0.1684
 1219ERGO    R216693  10.749  11.387   6.614 -0.0487 -0.1565  0.0467
 1219ERGO    R316694  10.636  11.429   6.858 -0.0860  0.1209 -0.0160
 1219ERGO    R416695  10.924  11.448   6.906 -0.0887 -0.1264  0.0642
 1219ERGO    R516696  10.783  11.320   7.012 -0.2450  0.0844  0.1074
 1219ERGO    C116697  10.919  11.523   7.304 -0.1470  0.1516  0.0154
 1219ERGO    C216698  10.864  11.623   7.662 -0.1376 -0.0699  0.0241
 1220ERGO   ROH16699  14.683   3.394   6.711  0.3052  0.0049 -0.0120
 1220ERGO    R116700  14.778   3.385   6.978  0.1683  0.1149  0.0427
 1220ERGO    R216701  14.677   3.546   7.178 -0.0163  0.1180 -0.0471
 1220ERGO    R316702  14.639   3.309   7.305  0.0269  0.1295 -0.0141
 1220ERGO    R416703  14.557   3.512   7.500 -0.0997  0.1324 -0.0767
 1220ERGO    R516704  14.702   3.353   7.532 -0.0565  0.1901 -0.0044
 1220ERGO    C116705  14.453   3.269   7.808 -0.1075  0.1517 -0.0629
 1220ERGO    C216706  14.401   3.038   8.084 -0.1201 -0.3438 -0.0311
 1221ERGO   ROH16707   6.150   8.394   6.284 -0.0729  0.2751  0.1945
 1221ERGO    R116708   6.235   8.416   6.553 -0.1391  0.1871  0.2232
 1221ERGO    R216709   6.078   8.331   6.766 -0.0704 -0.1560  0.1440
 1221ERGO    R316710   6.300   8.187   6.828  0.0979  0.0676  0.0705
 1221ERGO    R416711   6.208   8.294   7.084  0.0800 -0.0174  0.0997
 1221ERGO    R516712   6.408   8.314   7.000  0.0325  0.1810  0.0288
 1221ERGO    C116713   6.492   8.137   7.328  0.3256  0.2733  0.0048
 1221ERGO    C216714   6.668   8.092   7.541  0.1432  0.1009 -0.0392
 1222ERGO   ROH16715  15.724   1.073   6.930 -0.0421 -0.1376  0.0625
 1222ERGO    R116716  15.729   0.986   7.200  0.1077 -0.0234  0.0975
 1222ERGO    R216717  15.963   0.966   7.345  0.1738  0.1533  0.0122
 1222ERGO    R316718  15.829   1.125   7.520  0.1665  0.1587  0.0029
 1222ERGO    R416719  15.978   0.938   7.690 -0.0630 -0.0322  0.0106
 1222ERGO    R516720  15.764   0.978   7.698 -0.0475  0.1085 -0.1100
 1222ERGO    C116721  15.862   1.071   8.054 -0.2077 -0.1352  0.0009
 1222ERGO    C216722  16.032   1.139   8.282  0.0158 -0.1443  0.2354
 1223ERGO   ROH16723   1.890   5.689   6.886  0.1136  0.2567  0.0156
 1223ERGO    R116724   1.912   5.491   7.086  0.1309  0.1324 -0.1065
 1223ERGO    R216725   2.108   5.498   7.281  0.1533  0.0098 -0.1194
 1223ERGO    R316726   1.896   5.480   7.450  0.1682 -0.0867 -0.1110
 1223ERGO    R416727   2.118   5.361   7.598  0.2231  0.0226 -0.1164
 1223ERGO    R516728   1.924   5.269   7.560  0.2677 -0.0680 -0.1063
 1223ERGO    C116729   1.925   5.265   7.942  0.2778 -0.0605 -0.1068
 1223ERGO    C216730   1.898   5.152   8.285  0.2113 -0.0152 -0.2853
 1224ERGO   ROH16731  12.865  17.617   6.847  0.0300 -0.1336  0.1277
 1224ERGO    R116732  12.851  17.619   7.130  0.1794  0.0556  0.1367
 1224ERGO    R216733  12.864  17.852   7.279 -0.0542  0.1891 -0.0438
 1224ERGO    R316734  12.630  17.761   7.383  0.1199 -0.0529  0.1468
 1224ERGO    R416735  12.752  17.914   7.600  0.0255  0.3002 -0.0374
 1224ERGO    R516736  12.682  17.708   7.610  0.3120  0.2046  0.1682
 1224ERGO    C116737  12.467  17.864   7.884  0.2354  0.1379  0.1453
 1224ERGO    C216738  12.332  17.823   8.118  0.4423 -0.0129  0.4146
 1225ERGO   ROH16739   7.113  17.341   6.630  0.2169 -0.0819 -0.0400
 1225ERGO    R116740   7.041  17.220   6.875  0.1282  0.0148 -0.0161
 1225ERGO    R216741   7.165  17.282   7.114  0.1060  0.0440 -0.0064
 1225ERGO    R316742   6.911  17.330   7.197  0.1052  0.1583 -0.0754
 1225ERGO    R416743   7.064  17.293   7.444  0.0020  0.0412 -0.0385
 1225ERGO    R516744   6.883  17.186   7.387 -0.0303  0.1452 -0.1097
 1225ERGO    C116745   6.766  17.344   7.714 -0.0593  0.1469 -0.1219
 1225ERGO    C216746   6.842  17.437   8.074 -0.1426 -0.0712 -0.0924
 1226ERGO   ROH16747  17.376   4.774   6.659 -0.0423  0.1326  0.1120
 1226ERGO    R116748  17.437   4.829   6.930  0.0102  0.1820  0.0899
 1226ERGO    R216749  17.502   5.083   7.019 -0.0600  0.2134  0.0460
 1226ERGO    R316750  17.300   5.038   7.195  0.0048  0.1572  0.1075
 1226ERGO    R416751  17.520   5.140   7.359  0.0787  0.0847  0.0618
 1226ERGO    R516752  17.409   4.956   7.391  0.0800  0.0759  0.0347
 1226ERGO    C116753  17.341   5.132   7.722  0.2200 -0.0429  0.1287
 1226ERGO    C216754  17.317   5.248   8.130 -0.2327 -0.1969 -0.1970
 1227ERGO   ROH16755   1.954   4.292   8.023  0.0440  0.4360  0.0466
 1227ERGO    R116756   2.043   4.297   8.292  0.0622  0.2796  0.0447
 1227ERGO    R216757   2.308   4.262   8.362  0.0615  0.1905  0.0112
 1227ERGO    R316758   2.271   4.498   8.492  0.1151  0.1320  0.1338
 1227ERGO    R416759   2.529   4.399   8.590  0.1531  0.0872 -0.0153
 1227ERGO    R516760   2.358   4.460   8.711  0.2035  0.0331  0.0811
 1227ERGO    C116761   2.623   4.700   8.844  0.2568 -0.0278  0.0844
 1227ERGO    C216762   2.856   4.768   9.125  0.0379 -0.0153 -0.1765
 1228ERGO   ROH16763   7.760  10.342   6.848  0.1071 -0.0465  0.0079
 1228ERGO    R116764   7.714  10.112   7.006  0.0578 -0.0768 -0.0509
 1228ERGO    R216765   7.807  10.088   7.265  0.0775 -0.1739 -0.0679
 1228ERGO    R316766   7.545  10.036   7.320  0.0680 -0.1159 -0.0546
 1228ERGO    R416767   7.687   9.979   7.571  0.0532 -0.0429 -0.0296
 1228ERGO    R516768   7.552   9.845   7.464  0.0363 -0.0636  0.0170
 1228ERGO    C116769   7.372   9.867   7.800  0.0300  0.0878  0.0050
 1228ERGO    C216770   7.296  10.053   8.088 -0.2087  0.1090  0.1149
 1229ERGO   ROH16771   1.224   3.871   6.668 -0.0977 -0.0636 -0.0525
 1229ERGO    R116772   1.141   3.759   6.915 -0.1293 -0.0841 -0.0739
 1229ERGO    R216773   1.050   3.499   6.938  0.0566 -0.1441 -0.0763
 1229ERGO    R316774   1.244   3.483   7.128 -0.0220  0.0275  0.0237
 1229ERGO    R416775   1.077   3.246   7.171  0.2619 -0.2313 -0.1893
 1229ERGO    R516776   1.132   3.396   7.320 -0.0219 -0.2218 -0.0797
 1229ERGO    C116777   1.274   3.083   7.486  0.3076 -0.1211 -0.1613
 1229ERGO    C216778   1.478   3.000   7.696 -0.0147  0.1654  0.0445
 1230ERGO   ROH16779   3.824  11.549   6.189 -0.1475  0.1021  0.0679
 1230ERGO    R116780   3.900  11.499   6.456 -0.2945  0.1190  0.1137
 1230ERGO    R216781   4.141  11.584   6.561 -0.1792 -0.2095  0.1263
 1230ERGO    R316782   3.982  11.698   6.750 -0.0497  0.1467  0.0288
 1230ERGO    R416783   4.236  11.652   6.887 -0.1635 -0.2328  0.1266
 1230ERGO    R516784   4.040  11.586   6.953 -0.3040  0.1293  0.0958
 1230ERGO    C116785   4.142  11.798   7.253 -0.0328  0.0880  0.0353
 1230ERGO    C216786   4.311  11.816   7.520 -0.1659 -0.0728 -0.1332
 1231ERGO   ROH16787   3.545  16.778   6.414  0.2016  0.1194  0.1487
 1231ERGO    R116788   3.639  16.802   6.680  0.1579 -0.0635  0.1829
 1231ERGO    R216789   3.517  16.965   6.867  0.3580  0.1211  0.1607
 1231ERGO    R316790   3.510  16.736   7.014 -0.0640  0.1086  0.1328
 1231ERGO    R416791   3.524  16.950   7.212  0.2996  0.0597  0.1593
 1231ERGO    R516792   3.657  16.779   7.198 -0.0031 -0.1781  0.1522
 1231ERGO    C116793   3.521  16.727   7.551 -0.1304  0.0121  0.1323
 1231ERGO    C216794   3.487  16.819   7.838 -0.2351 -0.1151  0.1636
 1232ERGO   ROH16795   3.543  12.455   6.551 -0.0759 -0.1296 -0.1484
 1232ERGO    R116796   3.356  12.465   6.763  0.0326 -0.0391 -0.0551
 1232ERGO    R216797   3.240  12.238   6.870 -0.0708  0.0185 -0.0391
 1232ERGO    R316798   3.335  12.339   7.104  0.1139 -0.0857 -0.0678
 1232ERGO    R416799   3.176  12.106   7.183 -0.2010  0.1466 -0.0108
 1232ERGO    R516800   3.155  12.309   7.259  0.0982  0.1864 -0.0311
 1232ERGO    C116801   3.228  12.124   7.585 -0.1034  0.1232 -0.0212
 1232ERGO    C216802   3.267  12.007   7.927 -0.0131 -0.2389  0.3090
 1233ERGO   ROH16803   8.405   3.609   6.758  0.3407  0.1743 -0.0605
 1233ERGO    R116804   8.547   3.668   6.995  0.2337  0.0664  0.0324
 1233ERGO    R216805   8.495   3.541   7.235  0.1375 -0.0574 -0.0499
 1233ERGO    R316806   8.762   3.488   7.227  0.1441 -0.0351  0.0369
 1233ERGO    R416807   8.691   3.467   7.511  0.0407 -0.1154  0.0030
 1233ERGO    R516808   8.849   3.591   7.425  0.0628 -0.0821  0.0957
 1233ERGO    C116809   9.054   3.375   7.663 -0.0094 -0.1283  0.1153
 1233ERGO    C216810   9.241   3.116   7.776 -0.0859 -0.0647 -0.1597
 1234ERGO   ROH16811  16.456  13.424   7.026  0.1285  0.0977 -0.0526
 1234ERGO    R116812  16.451  13.289   7.275  0.2051  0.0373 -0.0834
 1234ERGO    R216813  16.669  13.282   7.444  0.1966  0.1600 -0.0639
 1234ERGO    R316814  16.491  13.378   7.625  0.1066 -0.0113 -0.0600
 1234ERGO    R416815  16.730  13.312   7.783  0.0877  0.0030 -0.0295
 1234ERGO    R516816  16.526  13.243   7.820  0.1066 -0.1009 -0.1228
 1234ERGO    C116817  16.598  13.420   8.150 -0.0601 -0.2491 -0.0059
 1234ERGO    C216818  16.904  13.562   8.302  0.0357  0.1144 -0.1112
 1235ERGO   ROH16819  17.295   2.386   6.788  0.0158  0.2493 -0.0671
 1235ERGO    R116820  17.226   2.458   7.053 -0.0301  0.1173 -0.0413
 1235ERGO    R216821  17.257   2.286   7.267  0.0854  0.0642 -0.0960
 1235ERGO    R316822  17.400   2.492   7.371 -0.0477  0.1259 -0.0334
 1235ERGO    R416823  17.311   2.339   7.604 -0.0818  0.0918 -0.0731
 1235ERGO    R516824  17.282   2.552   7.571 -0.1580  0.0775 -0.0852
 1235ERGO    C116825  17.478   2.563   7.898 -0.3042  0.1658 -0.0009
 1235ERGO    C216826  17.629   2.368   8.115  0.1569 -0.1719  0.0204
 1236ERGO   ROH16827   4.807   5.445   6.465 -0.1173 -0.0291 -0.0223
 1236ERGO    R116828   5.029   5.464   6.638 -0.0414 -0.0966 -0.1108
 1236ERGO    R216829   5.059   5.671   6.819  0.1664 -0.0257 -0.2219
 1236ERGO    R316830   5.084   5.468   6.998  0.0875  0.0439 -0.1309
 1236ERGO    R416831   5.105   5.712   7.160 -0.1038  0.1060 -0.1987
 1236ERGO    R516832   5.247   5.546   7.155 -0.0535  0.1437 -0.0328
 1236ERGO    C116833   5.155   5.545   7.525 -0.3352  0.2481 -0.1000
 1236ERGO    C216834   5.158   5.494   7.862 -0.0850 -0.1934  0.0619
 1237ERGO   ROH16835  13.587   9.689   6.473 -0.1083 -0.0733 -0.0747
 1237ERGO    R116836  13.561   9.857   6.699 -0.0152 -0.0117 -0.1080
 1237ERGO    R216837  13.434   9.776   6.931 -0.0497  0.0999 -0.0823
 1237ERGO    R316838  13.668   9.851   7.047 -0.0048  0.0040 -0.1122
 1237ERGO    R416839  13.482   9.814   7.271 -0.0626  0.3469 -0.1062
 1237ERGO    R516840  13.601   9.991   7.230  0.0888  0.2121 -0.2385
 1237ERGO    C116841  13.730   9.905   7.578 -0.0280  0.4008 -0.1482
 1237ERGO    C216842  13.851   9.755   7.953 -0.0405 -0.0670 -0.0112
 1238ERGO   ROH16843   0.586  12.452   6.224  0.1534  0.1272 -0.0565
 1238ERGO    R116844   0.653  12.468   6.498  0.0525  0.2736 -0.0388
 1238ERGO    R216845   0.614  12.698   6.648 -0.1835  0.2970 -0.1249
 1238ERGO    R316846   0.475  12.529   6.810 -0.1011  0.2348 -0.1192
 1238ERGO    R416847   0.542  12.757   6.981 -0.1425  0.2242 -0.1030
 1238ERGO    R516848   0.584  12.548   7.023 -0.0718  0.2362 -0.1383
 1238ERGO    C116849   0.370  12.634   7.327 -0.0413  0.1234 -0.0848
 1238ERGO    C216850   0.183  12.542   7.632 -0.0372 -0.1272  0.2245
 1239ERGO   ROH16851  15.852   5.822   6.649 -0.3138  0.0004 -0.0415
 1239ERGO    R116852  15.834   5.804   6.931 -0.2839 -0.0851 -0.0445
 1239ERGO    R216853  15.896   6.015   7.098 -0.0683 -0.1971  0.0232
 1239ERGO    R316854  15.647   5.969   7.195 -0.0954 -0.0110  0.0444
 1239ERGO    R416855  15.798   6.070   7.424  0.0733 -0.3620  0.0948
 1239ERGO    R516856  15.684   5.885   7.416 -0.1278 -0.2355 -0.0329
 1239ERGO    C116857  15.506   6.059   7.706  0.1301 -0.2833  0.1565
 1239ERGO    C216858  15.563   6.005   8.062  0.4252  0.0340  0.1396
 1240ERGO   ROH16859   1.381  11.297   6.394  0.2709  0.3317 -0.0299
 1240ERGO    R116860   1.264  11.461   6.593  0.2320  0.3742 -0.0891
 1240ERGO    R216861   1.194  11.364   6.842 -0.0582  0.3673 -0.1781
 1240ERGO    R316862   1.350  11.569   6.930  0.0292  0.2223  0.0154
 1240ERGO    R416863   1.154  11.527   7.144 -0.4130  0.5185 -0.3000
 1240ERGO    R516864   1.198  11.715   7.043 -0.0170  0.4399 -0.3051
 1240ERGO    C116865   1.277  11.814   7.403 -0.5374  0.4705 -0.1892
 1240ERGO    C216866   1.454  11.956   7.596 -0.0398  0.0022  0.0635
 1241ERGO   ROH16867  15.589   6.778   6.608 -0.0048 -0.1551  0.1093
 1241ERGO    R116868  15.691   6.838   6.865 -0.0137  0.1201  0.0531
 1241ERGO    R216869  15.634   7.074   6.997 -0.3469  0.0986 -0.0312
 1241ERGO    R316870  15.553   6.907   7.195 -0.0238  0.0473  0.0621
 1241ERGO    R416871  15.685   7.128   7.334 -0.1189  0.1791 -0.0776
 1241ERGO    R516872  15.729   6.915   7.356  0.0979  0.2287 -0.0846
 1241ERGO    C116873  15.639   7.002   7.717  0.3171  0.1778 -0.0170
 1241ERGO    C216874  15.633   6.958   8.070  0.3993 -0.0590 -0.2954
 1242ERGO   ROH16875   6.568   0.127   8.599 -0.1097 -0.1087  0.0087
 1242ERGO    R116876   6.773   0.187   8.785 -0.1418  0.0002  0.0079
 1242ERGO    R216877   6.755   0.398   8.962 -0.3385 -0.1238  0.1312
 1242ERGO    R316878   6.803   0.205   9.148 -0.0969 -0.1793  0.0154
 1242ERGO    R416879   6.956   0.438   9.241 -0.4492 -0.0009  0.1955
 1242ERGO    R516880   7.033   0.237   9.207 -0.1460  0.1229  0.0774
 1242ERGO    C116881   7.119   0.280   9.577 -0.2869  0.0186  0.1241
 1242ERGO    C216882   7.160   0.240   9.967 -0.2234  0.1263  0.0686
 1243ERGO   ROH16883   2.698   4.493   6.438  0.0124 -0.0107 -0.0605
 1243ERGO    R116884   2.837   4.342   6.632 -0.0113  0.0216 -0.0167
 1243ERGO    R216885   3.040   4.448   6.787 -0.0326  0.0506 -0.0017
 1243ERGO    R316886   2.889   4.356   6.992 -0.0638  0.0804 -0.0125
 1243ERGO    R416887   3.156   4.391   7.107  0.0059 -0.2707 -0.0708
 1243ERGO    R516888   3.035   4.210   7.113 -0.1795 -0.1476 -0.1469
 1243ERGO    C116889   3.081   4.270   7.487 -0.0009 -0.4299 -0.1211
 1243ERGO    C216890   3.237   4.191   7.734 -0.0498  0.2361  0.1504
 1244ERGO   ROH16891  12.790   6.816   6.759  0.1073  0.0289 -0.1192
 1244ERGO    R116892  12.974   6.883   6.964 -0.0731  0.0942  0.0248
 1244ERGO    R216893  12.934   6.811   7.228 -0.1814 -0.0489 -0.0250
 1244ERGO    R316894  13.182   6.702   7.201 -0.0753  0.1622  0.0770
 1244ERGO    R416895  13.099   6.632   7.473 -0.2669 -0.1945 -0.0732
 1244ERGO    R516896  13.284   6.732   7.416 -0.2881  0.0047  0.2007
 1244ERGO    C116897  13.427   6.426   7.591 -0.2170 -0.0811 -0.0055
 1244ERGO    C216898  13.405   6.215   7.789 -0.1767 -0.0672 -0.0023
 1245ERGO   ROH16899  13.282   5.322   6.799  0.0226  0.0111  0.0820
 1245ERGO    R116900  13.179   5.323   7.063  0.0473  0.1042  0.0918
 1245ERGO    R216901  13.202   5.105   7.233 -0.1604  0.0694  0.0787
 1245ERGO    R316902  13.313   5.289   7.399  0.0459 -0.0519  0.0774
 1245ERGO    R416903  13.291   5.046   7.561 -0.3330  0.0017  0.1143
 1245ERGO    R516904  13.215   5.244   7.613 -0.0785  0.1182  0.0581
 1245ERGO    C116905  13.448   5.184   7.909 -0.2398 -0.1516  0.1338
 1245ERGO    C216906  13.499   4.900   8.164  0.0531  0.0248  0.1750
 1246ERGO   ROH16907   9.811   1.499   6.295  0.1266 -0.1870 -0.0418
 1246ERGO    R116908   9.876   1.435   6.563  0.1117  0.1248  0.0402
 1246ERGO    R216909   9.788   1.584   6.778 -0.3279  0.0898 -0.1101
 1246ERGO    R316910   9.694   1.345   6.865  0.1208 -0.0585 -0.0065
 1246ERGO    R416911   9.776   1.486   7.109 -0.4527  0.3622 -0.0306
 1246ERGO    R516912   9.839   1.287   7.047  0.0734  0.4343  0.2075
 1246ERGO    C116913   9.681   1.204   7.384 -0.1042  0.3816  0.1129
 1246ERGO    C216914   9.437   1.369   7.616  0.1107  0.1633  0.3584
 1247ERGO   ROH16915   8.340   0.204   6.379 -0.0621  0.0067 -0.1501
 1247ERGO    R116916   8.236   0.417   6.534  0.0215  0.0007 -0.0855
 1247ERGO    R216917   7.984   0.408   6.649  0.0067  0.0769 -0.1140
 1247ERGO    R316918   8.122   0.463   6.876  0.0090 -0.0664 -0.0801
 1247ERGO    R416919   7.856   0.576   6.923  0.0439  0.0141 -0.0578
 1247ERGO    R516920   8.046   0.680   6.942  0.0827 -0.0631  0.0004
 1247ERGO    C116921   7.911   0.724   7.296  0.0679 -0.1571  0.0068
 1247ERGO    C216922   7.733   0.921   7.491  0.5197  0.0259 -0.1463
 1248ERGO   ROH16923  14.886  11.885   6.488 -0.0562 -0.1434  0.0704
 1248ERGO    R116924  14.745  11.902   6.733  0.1461 -0.0142  0.1831
 1248ERGO    R216925  14.594  11.692   6.832 -0.2437  0.2254  0.1347
 1248ERGO    R316926  14.749  11.727   7.052  0.0035 -0.2634  0.0495
 1248ERGO    R416927  14.500  11.612   7.155 -0.2063  0.2824  0.1584
 1248ERGO    R516928  14.596  11.796   7.223  0.2868  0.0203  0.1932
 1248ERGO    C116929  14.592  11.599   7.550  0.0478 -0.1432  0.0921
 1248ERGO    C216930  14.590  11.702   7.843 -0.0247  0.0948  0.0285
 1249ERGO   ROH16931   3.655  10.326   6.611  0.1474 -0.1609 -0.0951
 1249ERGO    R116932   3.684  10.264   6.885  0.1112 -0.1182 -0.0821
 1249ERGO    R216933   3.873  10.387   7.046  0.0482 -0.0533 -0.0628
 1249ERGO    R316934   3.657  10.444   7.201  0.0089 -0.0875 -0.1074
 1249ERGO    R416935   3.861  10.349   7.389  0.1042  0.2540 -0.0243
 1249ERGO    R516936   3.658  10.273   7.369  0.1629  0.0645  0.0535
 1249ERGO    C116937   3.651  10.381   7.735  0.0998  0.4008 -0.0437
 1249ERGO    C216938   3.696  10.500   8.003 -0.1642  0.0162 -0.1395
 1250ERGO   ROH16939  13.392  15.880   6.891  0.1827  0.1373  0.0508
 1250ERGO    R116940  13.529  15.902   7.138 -0.0545  0.1414  0.1848
 1250ERGO    R216941  13.397  15.917   7.380 -0.2861 -0.1326  0.0817
 1250ERGO    R316942  13.555  15.706   7.443 -0.1202 -0.0056  0.0977
 1250ERGO    R416943  13.527  15.856   7.694 -0.3278 -0.0613  0.1127
 1250ERGO    R516944  13.714  15.795   7.599 -0.2436  0.1133  0.1586
 1250ERGO    C116945  13.751  15.622   7.937 -0.1963  0.0992  0.1459
 1250ERGO    C216946  13.648  15.772   8.265  0.3259 -0.0597  0.0274
 1251ERGO   ROH16947   0.001   8.570   6.911 -0.1551  0.1589  0.1520
 1251ERGO    R116948   0.112   8.454   7.144 -0.0665  0.0582  0.0599
 1251ERGO    R216949   0.355   8.533   7.248 -0.0833  0.0926  0.0646
 1251ERGO    R316950   0.210   8.568   7.475 -0.0551 -0.1105  0.1165
 1251ERGO    R416951   0.489   8.560   7.565 -0.0002  0.2735  0.0158
 1251ERGO    R516952   0.325   8.437   7.640  0.1901  0.0411  0.0742
 1251ERGO    C116953   0.432   8.609   7.964  0.0747  0.1880  0.0360
 1251ERGO    C216954   0.359   8.886   8.210  0.0062 -0.2538 -0.2658
 1252ERGO   ROH16955  10.602   9.860   6.733 -0.2830 -0.1291  0.2291
 1252ERGO    R116956  10.779   9.940   6.939 -0.0242 -0.3471  0.0957
 1252ERGO    R216957  10.693  10.002   7.194  0.1935  0.0916  0.0652
 1252ERGO    R316958  10.878   9.816   7.266 -0.2048 -0.2790  0.1796
 1252ERGO    R416959  10.789   9.934   7.519  0.1735  0.2357  0.1028
 1252ERGO    R516960  10.994   9.916   7.450  0.1197 -0.3317  0.0171
 1252ERGO    C116961  11.018   9.720   7.776 -0.2118 -0.0285  0.2322
 1252ERGO    C216962  11.033   9.583   7.916 -0.2907  0.3737 -0.0500
 1253ERGO   ROH16963  16.878   4.065   6.603  0.1010 -0.0193  0.1715
 1253ERGO    R116964  16.867   3.958   6.865  0.3139 -0.0777  0.1577
 1253ERGO    R216965  17.071   3.991   7.047  0.1950  0.4401  0.2082
 1253ERGO    R316966  16.872   4.089   7.204 -0.1106 -0.0868  0.1740
 1253ERGO    R416967  17.092   4.030   7.390  0.0838  0.6016  0.1986
 1253ERGO    R516968  16.886   3.959   7.405  0.2701 -0.0024  0.2128
 1253ERGO    C116969  16.917   4.144   7.737 -0.2681  0.2011  0.1607
 1253ERGO    C216970  16.899   4.217   8.040 -0.1605  0.1910  0.1103
 1254ERGO   ROH16971  13.930   6.392   6.495 -0.0486  0.0064  0.0200
 1254ERGO    R116972  13.999   6.484   6.754  0.0924  0.2154 -0.0894
 1254ERGO    R216973  14.045   6.312   6.965 -0.3734  0.3920  0.1684
 1254ERGO    R316974  14.280   6.446   6.982 -0.0485 -0.1303  0.0344
 1254ERGO    R416975  14.234   6.343   7.253 -0.3351  0.2991  0.1548
 1254ERGO    R516976  14.274   6.550   7.198  0.1611  0.1515 -0.0898
 1254ERGO    C116977  14.565   6.486   7.436 -0.0078 -0.2455  0.0209
 1254ERGO    C216978  14.435   6.339   7.795 -0.0683  0.1092  0.2871
 1255ERGO   ROH16979  15.090  15.697   6.859  0.1334  0.2911  0.0368
 1255ERGO    R116980  15.149  15.814   7.109  0.1415  0.1201  0.1170
 1255ERGO    R216981  15.048  15.717   7.348  0.1142 -0.0170  0.0511
 1255ERGO    R316982  15.310  15.710   7.419  0.1094 -0.1069  0.0591
 1255ERGO    R416983  15.167  15.757   7.670  0.0965 -0.3795  0.1063
 1255ERGO    R516984  15.330  15.876   7.590  0.1061 -0.2959  0.2473
 1255ERGO    C116985  15.482  15.774   7.924  0.0814 -0.6750  0.1458
 1255ERGO    C216986  15.730  15.698   8.109 -0.1046  0.0999 -0.2166
 1256ERGO   ROH16987   1.992   7.491   8.703 -0.2314 -0.0124 -0.0854
 1256ERGO    R116988   1.852   7.534   8.946 -0.2760 -0.3535 -0.0457
 1256ERGO    R216989   1.829   7.339   9.141  0.4351 -0.3654  0.0552
 1256ERGO    R316990   1.933   7.533   9.301 -0.1057  0.0578 -0.0781
 1256ERGO    R416991   1.782   7.359   9.482  0.6391 -0.4556  0.0900
 1256ERGO    R516992   1.761   7.575   9.462 -0.1430 -0.5104  0.0491
 1256ERGO    C116993   1.851   7.552   9.832  0.2503 -0.1108 -0.0149
 1256ERGO    C216994   1.768   7.578  10.141  0.0394  0.0267 -0.1484
 1257ERGO   ROH16995   3.472   7.013   6.617  0.1645 -0.1482  0.1360
 1257ERGO    R116996   3.428   7.156   6.857  0.2858 -0.0590  0.1056
 1257ERGO    R216997   3.256   7.067   7.054  0.1086  0.1920  0.0668
 1257ERGO    R316998   3.475   7.096   7.213  0.1050 -0.0792  0.1273
 1257ERGO    R416999   3.247   7.116   7.396  0.0702  0.2533  0.0576
 1257ERGO    R517000   3.410   7.260   7.375  0.2738  0.0356  0.0838
 1257ERGO    C117001   3.448   7.172   7.745  0.0443  0.0344  0.1092
 1257ERGO    C217002   3.573   7.271   8.105  0.0787 -0.0831  0.0973
 1258ERGO   ROH17003   7.152   7.690   6.490  0.1514 -0.0847  0.0957
 1258ERGO    R117004   7.112   7.436   6.608  0.2819 -0.0780  0.1567
 1258ERGO    R217005   7.253   7.352   6.830  0.1722  0.1330  0.3136
 1258ERGO    R317006   7.005   7.308   6.932  0.1205 -0.0505  0.1139
 1258ERGO    R417007   7.188   7.197   7.132  0.0436  0.1965  0.3186
 1258ERGO    R517008   7.021   7.094   7.038  0.2201  0.0077  0.2132
 1258ERGO    C117009   6.917   7.066   7.404 -0.0798  0.0613  0.1341
 1258ERGO    C217010   6.601   7.032   7.624 -0.1746 -0.2665  0.0861
 1259ERGO   ROH17011   8.975   4.614   6.897  0.0768 -0.0678 -0.0261
 1259ERGO    R117012   9.043   4.742   7.140  0.1203 -0.0302 -0.0582
 1259ERGO    R217013   8.875   4.746   7.359  0.1236  0.0782 -0.0583
 1259ERGO    R317014   9.091   4.644   7.487  0.0913  0.0399 -0.0339
 1259ERGO    R417015   8.914   4.735   7.702  0.0195 -0.0546 -0.0497
 1259ERGO    R517016   9.124   4.789   7.674  0.0259 -0.0311  0.0341
 1259ERGO    C117017   9.141   4.632   8.022 -0.0714 -0.1680 -0.0217
 1259ERGO    C217018   9.230   4.583   8.345 -0.0106 -0.1899 -0.2096
 1260ERGO   ROH17019   3.832   5.937   6.546  0.1764 -0.0642 -0.1301
 1260ERGO    R117020   4.000   5.874   6.765  0.0297 -0.0368 -0.0088
 1260ERGO    R217021   3.983   6.005   7.008 -0.1531 -0.0270 -0.0282
 1260ERGO    R317022   3.957   5.753   7.105 -0.1954 -0.0244 -0.0310
 1260ERGO    R417023   4.067   5.908   7.329 -0.2126 -0.0327 -0.0138
 1260ERGO    R517024   4.148   5.723   7.246 -0.2187 -0.0432 -0.0010
 1260ERGO    C117025   4.090   5.615   7.607 -0.2868 -0.0337 -0.0081
 1260ERGO    C217026   4.132   5.346   7.804  0.3457 -0.0731  0.1542
 1261ERGO   ROH17027  15.049   1.699   6.853  0.0148 -0.0644  0.0266
 1261ERGO    R117028  15.100   1.782   7.119 -0.1485  0.0945  0.0092
 1261ERGO    R217029  14.898   1.850   7.295 -0.2809 -0.1493 -0.0474
 1261ERGO    R317030  15.017   1.665   7.453 -0.0270  0.0717  0.0324
 1261ERGO    R417031  14.832   1.807   7.631 -0.4154 -0.2634 -0.0863
 1261ERGO    R517032  15.046   1.776   7.664 -0.3673  0.1372  0.0510
 1261ERGO    C117033  14.906   1.607   7.976 -0.2553 -0.1223 -0.0341
 1261ERGO    C217034  14.818   1.532   8.286  0.0356  0.3422  0.4339
 1262ERGO   ROH17035  13.917   4.374   6.761  0.0442  0.1338 -0.1548
 1262ERGO    R117036  13.819   4.397   7.025 -0.1316 -0.1959 -0.1876
 1262ERGO    R217037  13.795   4.179   7.195  0.4915 -0.3020 -0.2256
 1262ERGO    R317038  13.946   4.333   7.360 -0.0421  0.1706 -0.1451
 1262ERGO    R417039  13.786   4.167   7.540  0.3580 -0.3563 -0.2297
 1262ERGO    R517040  13.801   4.384   7.544 -0.3082 -0.2806 -0.2079
 1262ERGO    C117041  13.922   4.304   7.896 -0.2208  0.0558 -0.1565
 1262ERGO    C217042  14.160   4.241   8.186 -0.0215 -0.0517  0.0860
 1263ERGO   ROH17043   7.684  11.594   6.705 -0.1524  0.1425 -0.1331
 1263ERGO    R117044   7.846  11.578   6.937 -0.2338 -0.1100 -0.0891
 1263ERGO    R217045   7.942  11.803   7.067  0.2247 -0.2494 -0.1617
 1263ERGO    R317046   7.823  11.689   7.283 -0.0827  0.0909 -0.1429
 1263ERGO    R417047   8.023  11.870   7.396  0.1212 -0.1328 -0.1595
 1263ERGO    R517048   8.001  11.658   7.439 -0.2277 -0.0669 -0.0118
 1263ERGO    C117049   7.959  11.801   7.790 -0.2276  0.2546 -0.1405
 1263ERGO    C217050   7.912  11.826   8.138  0.0455 -0.2150 -0.1094
 1264ERGO   ROH17051  15.242  14.562   6.791  0.3496 -0.1201 -0.1224
 1264ERGO    R117052  15.297  14.506   7.063  0.2032 -0.0937 -0.0867
 1264ERGO    R217053  15.238  14.683   7.266  0.3148  0.0297 -0.1609
 1264ERGO    R317054  15.104  14.470   7.369  0.0633  0.1946 -0.1374
 1264ERGO    R417055  15.278  14.561   7.587  0.2944 -0.0810 -0.1997
 1264ERGO    R517056  15.266  14.359   7.507 -0.0240 -0.0554 -0.2301
 1264ERGO    C117057  15.177  14.291   7.871  0.0463  0.0092 -0.2003
 1264ERGO    C217058  14.941  14.297   8.130 -0.0352  0.2871 -0.1477
 1265ERGO   ROH17059   9.870   3.506   6.503 -0.1321  0.0814 -0.0282
 1265ERGO    R117060  10.021   3.436   6.733  0.0224  0.1201 -0.1169
 1265ERGO    R217061  10.140   3.626   6.895 -0.0199  0.1558 -0.1298
 1265ERGO    R317062  10.000   3.499   7.091  0.1547  0.0192 -0.0907
 1265ERGO    R417063  10.232   3.613   7.228 -0.0328  0.4474 -0.1122
 1265ERGO    R517064  10.169   3.405   7.233  0.2916  0.3429 -0.0292
 1265ERGO    C117065  10.155   3.486   7.605  0.1236  0.4889 -0.0653
 1265ERGO    C217066  10.033   3.594   7.904 -0.2444 -0.1764 -0.0744
 1266ERGO   ROH17067   5.013   2.598   6.482 -0.1714 -0.1007 -0.1246
 1266ERGO    R117068   4.933   2.642   6.750 -0.0801 -0.2074 -0.0788
 1266ERGO    R217069   4.976   2.456   6.951  0.0911 -0.2408 -0.1427
 1266ERGO    R317070   5.097   2.665   7.074  0.0454 -0.2155 -0.1415
 1266ERGO    R417071   5.098   2.453   7.274  0.0954 -0.2141 -0.1442
 1266ERGO    R517072   5.021   2.654   7.300  0.0515 -0.2331 -0.1417
 1266ERGO    C117073   5.283   2.648   7.578  0.0550 -0.1748 -0.1440
 1266ERGO    C217074   5.431   2.571   7.875  0.1773 -0.2660  0.1094
 1267ERGO   ROH17075   1.919  13.820   6.783 -0.1476 -0.0833  0.0288
 1267ERGO    R117076   2.026  13.816   7.045 -0.1007 -0.1652  0.0080
 1267ERGO    R217077   1.962  14.006   7.235  0.0901 -0.1103  0.0148
 1267ERGO    R317078   1.895  13.789   7.384 -0.0574 -0.0531  0.0350
 1267ERGO    R417079   1.911  14.009   7.577  0.2353 -0.0675  0.0373
 1267ERGO    R517080   2.015  13.818   7.589  0.0595 -0.1719 -0.0129
 1267ERGO    C117081   1.818  13.807   7.916  0.1813  0.0111  0.0694
 1267ERGO    C217082   1.626  13.959   8.127  0.0338 -0.0276  0.3224
 1268ERGO   ROH17083   7.370   3.857   6.820  0.2330  0.3959  0.0684
 1268ERGO    R117084   7.472   3.791   7.075 -0.0180 -0.0120  0.0716
 1268ERGO    R217085   7.518   3.980   7.271  0.3061 -0.2439  0.2288
 1268ERGO    R317086   7.359   3.817   7.420 -0.1169 -0.0178  0.0405
 1268ERGO    R417087   7.449   4.022   7.608  0.0058 -0.1721  0.1608
 1268ERGO    R517088   7.466   3.807   7.633 -0.3588 -0.2094  0.1599
 1268ERGO    C117089   7.260   3.894   7.942 -0.5662  0.0819 -0.0555
 1268ERGO    C217090   7.073   3.908   8.225  0.1327 -0.2395 -0.3408
 1269ERGO   ROH17091  13.745   8.715   6.683 -0.0954 -0.0444 -0.0514
 1269ERGO    R117092  13.780   8.857   6.925  0.0946  0.0669 -0.1410
 1269ERGO    R217093  13.639   8.796   7.155 -0.0627  0.4580 -0.1205
 1269ERGO    R317094  13.888   8.780   7.264 -0.1042  0.1100 -0.0676
 1269ERGO    R417095  13.719   8.885   7.480 -0.0001  0.3509 -0.1072
 1269ERGO    R517096  13.904   8.973   7.405  0.1407  0.0901 -0.0687
 1269ERGO    C117097  13.999   8.921   7.771 -0.0026 -0.0382 -0.0498
 1269ERGO    C217098  13.899   8.843   8.044  0.0706  0.5043  0.0204
 1270ERGO   ROH17099   8.116  11.487   6.636  0.4458  0.0932  0.0187
 1270ERGO    R117100   8.278  11.351   6.824  0.2116 -0.0284  0.1378
 1270ERGO    R217101   8.277  11.411   7.093  0.0788 -0.0116  0.1347
 1270ERGO    R317102   8.225  11.145   7.119 -0.1540  0.0300  0.1173
 1270ERGO    R417103   8.249  11.244   7.395 -0.0107 -0.0186  0.1225
 1270ERGO    R517104   8.358  11.077   7.306 -0.1770 -0.1088  0.0839
 1270ERGO    C117105   8.185  10.897   7.594 -0.2815  0.0162  0.0993
 1270ERGO    C217106   7.985  10.807   7.800 -0.1663 -0.0378 -0.4405
 1271ERGO   ROH17107   3.448   2.698   6.635 -0.1750 -0.0429  0.0440
 1271ERGO    R117108   3.419   2.628   6.907  0.0512 -0.0129  0.0780
 1271ERGO    R217109   3.537   2.772   7.111 -0.0395  0.2000 -0.0139
 1271ERGO    R317110   3.283   2.782   7.207 -0.0109 -0.1154  0.1020
 1271ERGO    R417111   3.452   2.855   7.436 -0.0021  0.2145 -0.0085
 1271ERGO    R517112   3.301   2.698   7.431  0.2129  0.0002  0.1285
 1271ERGO    C117113   3.164   2.913   7.715  0.0467 -0.0731  0.1034
 1271ERGO    C217114   3.331   3.008   7.971  0.6683 -0.1299 -0.2169
 1272ERGO   ROH17115  13.422  13.659   6.354 -0.2361 -0.0031 -0.0531
 1272ERGO    R117116  13.297  13.681   6.607 -0.1566 -0.0535 -0.0092
 1272ERGO    R217117  13.207  13.461   6.748  0.0364 -0.0945  0.0513
 1272ERGO    R317118  13.363  13.565   6.945  0.0434  0.0283 -0.0188
 1272ERGO    R417119  13.180  13.383   7.084  0.0667  0.0951  0.0992
 1272ERGO    R517120  13.214  13.593   7.131  0.0559  0.1239 -0.0232
 1272ERGO    C117121  13.311  13.435   7.464  0.0909  0.3207  0.0613
 1272ERGO    C217122  13.303  13.225   7.714  0.2466  0.0489 -0.1494
 1273ERGO   ROH17123   2.479   1.464   6.515 -0.2530 -0.0151  0.1220
 1273ERGO    R117124   2.577   1.358   6.759 -0.2725 -0.0328  0.1219
 1273ERGO    R217125   2.665   1.518   6.967  0.0350 -0.0510  0.0078
 1273ERGO    R317126   2.484   1.375   7.110 -0.0833  0.2449  0.1631
 1273ERGO    R417127   2.663   1.491   7.311  0.3696 -0.1300  0.0062
 1273ERGO    R517128   2.612   1.280   7.289 -0.0501 -0.0409 -0.0010
 1273ERGO    C117129   2.493   1.340   7.647  0.4534  0.1017  0.1511
 1273ERGO    C217130   2.341   1.269   7.941 -0.2332 -0.0135 -0.3913
 1274ERGO   ROH17131  10.733   5.268   6.849 -0.0795 -0.2445 -0.0664
 1274ERGO    R117132  10.553   5.225   7.064 -0.1089 -0.1450 -0.0701
 1274ERGO    R217133  10.570   5.004   7.229 -0.1936 -0.1206 -0.0272
 1274ERGO    R317134  10.578   5.192   7.426 -0.1438 -0.0858 -0.0623
 1274ERGO    R417135  10.639   4.940   7.562 -0.2459 -0.0814 -0.0091
 1274ERGO    R517136  10.484   5.083   7.617 -0.1997 -0.0155 -0.0499
 1274ERGO    C117137  10.686   5.080   7.940 -0.2296 -0.0260 -0.0315
 1274ERGO    C217138  10.647   5.024   8.290  0.0049 -0.1759 -0.1707
 1275ERGO   ROH17139   6.127   5.441   6.810  0.0044  0.2380  0.2007
 1275ERGO    R117140   6.279   5.481   7.045 -0.0962  0.0943  0.2891
 1275ERGO    R217141   6.181   5.425   7.297 -0.1207 -0.2789  0.1927
 1275ERGO    R317142   6.406   5.275   7.317  0.0041 -0.1133  0.0903
 1275ERGO    R417143   6.323   5.320   7.594 -0.0665 -0.3942  0.1288
 1275ERGO    R517144   6.520   5.361   7.509 -0.0847 -0.1643  0.1735
 1275ERGO    C117145   6.618   5.117   7.785  0.0822 -0.3060 -0.0045
 1275ERGO    C217146   6.737   5.093   8.231 -0.2649 -0.2332  0.0695
 1276ERGO   ROH17147   9.116   7.593   6.734 -0.0569  0.0958 -0.0394
 1276ERGO    R117148   9.288   7.534   6.951 -0.1171  0.0702  0.0010
 1276ERGO    R217149   9.210   7.560   7.214 -0.2092 -0.0196 -0.0197
 1276ERGO    R317150   9.291   7.301   7.231 -0.1610 -0.0078 -0.0619
 1276ERGO    R417151   9.227   7.378   7.507 -0.2646 -0.0870 -0.0579
 1276ERGO    R517152   9.415   7.291   7.436 -0.2217 -0.0313 -0.0235
 1276ERGO    C117153   9.313   7.028   7.693 -0.2515 -0.1152 -0.1196
 1276ERGO    C217154   9.199   6.742   7.805 -0.2258  0.0293 -0.2589
 1277ERGO   ROH17155  10.840   3.038   6.614  0.0366  0.0626  0.0357
 1277ERGO    R117156  10.848   2.867   6.839 -0.1441  0.0837  0.0611
 1277ERGO    R217157  11.083   2.758   6.935 -0.2626 -0.2540  0.0044
 1277ERGO    R317158  11.001   2.871   7.169 -0.0263 -0.0843  0.0070
 1277ERGO    R417159  11.183   2.656   7.250 -0.3151 -0.3196 -0.0009
 1277ERGO    R517160  10.979   2.686   7.320 -0.2451 -0.0117  0.0572
 1277ERGO    C117161  11.165   2.702   7.652 -0.1240 -0.1984 -0.0016
 1277ERGO    C217162  11.207   2.850   7.882  0.1413  0.0496  0.2240
 1278ERGO   ROH17163   0.501   4.664   6.943  0.1981 -0.0377 -0.1081
 1278ERGO    R117164   0.627   4.622   7.193  0.1253  0.0945 -0.0487
 1278ERGO    R217165   0.498   4.663   7.433 -0.0283 -0.0357 -0.1133
 1278ERGO    R317166   0.576   4.407   7.482  0.2134  0.0442 -0.0676
 1278ERGO    R417167   0.523   4.521   7.747 -0.0207  0.0226 -0.0876
 1278ERGO    R517168   0.706   4.422   7.682  0.1165  0.2010 -0.0075
 1278ERGO    C117169   0.611   4.198   7.976  0.2106  0.1315 -0.0296
 1278ERGO    C217170   0.385   4.070   8.201  0.1890 -0.0729  0.2176
 1279ERGO   ROH17171   9.172   2.762   6.445 -0.1240 -0.1209 -0.1191
 1279ERGO    R117172   8.960   2.747   6.631 -0.1063 -0.1659 -0.1015
 1279ERGO    R217173   8.897   2.514   6.766 -0.0301 -0.1755 -0.0741
 1279ERGO    R317174   8.924   2.671   6.985 -0.0552 -0.1458 -0.0932
 1279ERGO    R417175   8.756   2.448   7.075 -0.1002 -0.1026 -0.0909
 1279ERGO    R517176   8.711   2.660   7.093 -0.0748 -0.0976 -0.1337
 1279ERGO    C117177   8.700   2.558   7.461 -0.1645 -0.0322 -0.1185
 1279ERGO    C217178   8.650   2.483   7.794 -0.2195  0.2664  0.4773
 1280ERGO   ROH17179   7.658   5.743   6.813 -0.0660 -0.1282  0.1504
 1280ERGO    R117180   7.762   5.742   7.076 -0.0352  0.0885  0.1410
 1280ERGO    R217181   7.768   5.968   7.235 -0.3738  0.1345  0.0926
 1280ERGO    R317182   7.635   5.809   7.411 -0.1089 -0.0404  0.1407
 1280ERGO    R417183   7.769   6.011   7.578 -0.4237  0.2354  0.0802
 1280ERGO    R517184   7.783   5.794   7.600 -0.0665  0.2544  0.1385
 1280ERGO    C117185   7.645   5.888   7.943 -0.2040  0.1299  0.1181
 1280ERGO    C217186   7.717   6.102   8.175 -0.0779  0.2601 -0.1151
 1281ERGO   ROH17187  10.703   1.639   6.646 -0.1244  0.0632 -0.0613
 1281ERGO    R117188  10.756   1.788   6.881 -0.0766  0.0279 -0.0482
 1281ERGO    R217189  10.721   1.684   7.135 -0.0337 -0.0092 -0.0518
 1281ERGO    R317190  10.980   1.760   7.166 -0.0254 -0.0239 -0.0950
 1281ERGO    R417191  10.884   1.711   7.438 -0.0148  0.1155 -0.0732
 1281ERGO    R517192  10.980   1.892   7.366  0.0010  0.0670 -0.1590
 1281ERGO    C117193  11.223   1.797   7.644  0.0037  0.1742 -0.1261
 1281ERGO    C217194  11.418   1.531   7.749 -0.0675  0.1268 -0.2754
 1282ERGO   ROH17195  11.116   5.369   6.728  0.0540  0.0581 -0.0048
 1282ERGO    R117196  11.101   5.601   6.890 -0.0241  0.0661 -0.0230
 1282ERGO    R217197  11.007   5.595   7.150 -0.0387  0.0583 -0.0276
 1282ERGO    R317198  11.245   5.714   7.204 -0.0762  0.1317 -0.0227
 1282ERGO    R417199  11.081   5.768   7.440 -0.0738  0.0238  0.0020
 1282ERGO    R517200  11.188   5.915   7.320 -0.1367  0.0864  0.0246
 1282ERGO    C117201  11.349   5.979   7.660 -0.1295  0.0727  0.0237
 1282ERGO    C217202  11.647   6.091   7.948 -0.0782  0.0135 -0.0254
 1283ERGO   ROH17203  12.208  12.986   6.545 -0.4663 -0.2317 -0.1364
 1283ERGO    R117204  12.323  12.978   6.804 -0.2424 -0.4562 -0.2387
 1283ERGO    R217205  12.268  13.168   6.997  0.4716 -0.2058 -0.2515
 1283ERGO    R317206  12.202  12.950   7.146 -0.0204  0.0234 -0.1129
 1283ERGO    R417207  12.256  13.161   7.342  0.4737  0.0300 -0.2453
 1283ERGO    R517208  12.347  12.963   7.337  0.0254 -0.1898 -0.1316
 1283ERGO    C117209  12.188  12.953   7.684  0.0130  0.3824 -0.1115
 1283ERGO    C217210  12.088  12.994   8.069  0.2245 -0.0716  0.0439
 1284ERGO   ROH17211  17.224   7.934   6.700 -0.0362 -0.0089  0.0270
 1284ERGO    R117212  17.318   7.977   6.964 -0.0333  0.0390  0.0183
 1284ERGO    R217213  17.154   7.956   7.186 -0.0445  0.1333  0.0201
 1284ERGO    R317214  17.346   7.782   7.270 -0.0852  0.1121  0.0698
 1284ERGO    R417215  17.246   7.908   7.515 -0.0986  0.1593  0.0392
 1284ERGO    R517216  17.454   7.896   7.450 -0.0916  0.1164  0.0704
 1284ERGO    C117217  17.480   7.717   7.786 -0.1681  0.1545  0.0969
 1284ERGO    C217218  17.521   7.730   8.038 -0.0440 -0.1162  0.3570
 1285ERGO   ROH17219   4.320  10.375   8.722 -0.0326 -0.1852 -0.0790
 1285ERGO    R117220   4.304  10.531   8.958  0.0873 -0.0678 -0.1461
 1285ERGO    R217221   4.077  10.540   9.115  0.0857  0.1877 -0.1533
 1285ERGO    R317222   4.250  10.469   9.312  0.0236  0.1284 -0.1208
 1285ERGO    R417223   4.048  10.633   9.447 -0.0337  0.0572 -0.1270
 1285ERGO    R517224   4.264  10.662   9.452 -0.0403  0.0739 -0.0416
 1285ERGO    C117225   4.194  10.620   9.825 -0.1615 -0.0745 -0.0811
 1285ERGO    C217226   4.156  10.640  10.201  0.1019  0.0082 -0.0890
 1286ERGO   ROH17227   4.917  13.891   6.456  0.1895 -0.1754 -0.0451
 1286ERGO    R117228   4.771  13.720   6.627  0.0412  0.0109  0.0178
 1286ERGO    R217229   4.860  13.468   6.697 -0.2338 -0.0895  0.0083
 1286ERGO    R317230   4.824  13.560   6.950 -0.0423 -0.0266  0.0143
 1286ERGO    R417231   4.856  13.270   6.979 -0.2690 -0.0592  0.0292
 1286ERGO    R517232   4.691  13.391   7.056 -0.1379  0.0907  0.0917
 1286ERGO    C117233   4.820  13.240   7.382 -0.1098  0.0177  0.0471
 1286ERGO    C217234   4.942  12.985   7.627  0.2089  0.0794  0.1280
 1287ERGO   ROH17235   1.221   9.374   7.034  0.2182  0.2005  0.0581
 1287ERGO    R117236   1.091   9.322   7.281  0.1622  0.0752  0.0037
 1287ERGO    R217237   1.159   9.110   7.444  0.1499  0.0131 -0.0702
 1287ERGO    R317238   1.186   9.305   7.631  0.0754 -0.0636  0.0214
 1287ERGO    R417239   1.204   9.055   7.783  0.1264 -0.1297 -0.0900
 1287ERGO    R517240   1.069   9.222   7.822  0.0760 -0.1835 -0.0294
 1287ERGO    C117241   1.254   9.207   8.155  0.0428 -0.2849 -0.0155
 1287ERGO    C217242   1.508   9.162   8.368  0.0593 -0.1919 -0.2768
 1288ERGO   ROH17243   3.019  15.022   6.703  0.0084 -0.2101 -0.0435
 1288ERGO    R117244   3.033  14.940   6.974  0.1323 -0.0888 -0.0117
 1288ERGO    R217245   3.203  15.059   7.157 -0.0106  0.2107 -0.0636
 1288ERGO    R317246   2.973  15.092   7.299 -0.0524 -0.0373 -0.0691
 1288ERGO    R417247   3.178  15.036   7.501 -0.0226  0.0864 -0.0724
 1288ERGO    R517248   2.989  14.931   7.476  0.0745 -0.0748 -0.1167
 1288ERGO    C117249   2.949  15.054   7.835 -0.0689 -0.2187 -0.0827
 1288ERGO    C217250   2.734  15.082   8.191  0.1271  0.2686  0.1646
 1289ERGO   ROH17251   9.180   4.270   6.584 -0.0527 -0.0711  0.1947
 1289ERGO    R117252   9.253   4.200   6.848 -0.0298 -0.0355  0.1995
 1289ERGO    R217253   9.470   4.311   6.977  0.0312 -0.0709  0.1430
 1289ERGO    R317254   9.286   4.371   7.168  0.0751  0.0286  0.1526
 1289ERGO    R417255   9.536   4.337   7.316  0.0491 -0.1223  0.1422
 1289ERGO    R517256   9.347   4.236   7.355 -0.0031 -0.0102  0.1440
 1289ERGO    C117257   9.401   4.408   7.691  0.1007 -0.0589  0.1509
 1289ERGO    C217258   9.624   4.510   7.977  0.1266  0.1739  0.2945
 1290ERGO   ROH17259  10.623  15.182   6.578  0.3853  0.0539  0.0060
 1290ERGO    R117260  10.747  15.180   6.832  0.1945  0.3124  0.1051
 1290ERGO    R217261  10.676  15.357   7.032 -0.3270  0.1820  0.0552
 1290ERGO    R317262  10.642  15.129   7.177  0.0222  0.1044  0.0237
 1290ERGO    R417263  10.615  15.347   7.372 -0.5551  0.0546  0.0120
 1290ERGO    R517264  10.750  15.175   7.386 -0.2177  0.3180  0.1034
 1290ERGO    C117265  10.548  15.127   7.706 -0.3601 -0.0926 -0.0428
 1290ERGO    C217266  10.562  15.056   7.950  0.0655  0.1073  0.2536
 1291ERGO   ROH17267   6.176  11.046   6.500 -0.0192  0.1542  0.0214
 1291ERGO    R117268   5.998  11.095   6.715 -0.0177  0.0996  0.0353
 1291ERGO    R217269   5.858  10.893   6.841 -0.0277  0.0681 -0.0240
 1291ERGO    R317270   5.972  10.998   7.065 -0.0228 -0.0022  0.0070
 1291ERGO    R417271   5.726  10.871   7.160 -0.0794  0.0718 -0.0452
 1291ERGO    R517272   5.787  11.078   7.194 -0.0125  0.0450 -0.0084
 1291ERGO    C117273   5.755  10.958   7.555 -0.1050  0.0080 -0.0285
 1291ERGO    C217274   5.638  10.890   7.929 -0.1912  0.1954 -0.2628
 1292ERGO   ROH17275  12.858   8.075   6.562 -0.2247  0.0165 -0.1168
 1292ERGO    R117276  12.694   8.090   6.792 -0.1167 -0.1393 -0.0265
 1292ERGO    R217277  12.686   7.891   6.984  0.0843 -0.2040 -0.0806
 1292ERGO    R317278  12.743   8.097   7.153  0.0658 -0.2250 -0.0494
 1292ERGO    R417279  12.712   7.863   7.327  0.0921 -0.2506 -0.0853
 1292ERGO    R517280  12.608   8.053   7.346  0.0746 -0.2659 -0.0546
 1292ERGO    C117281  12.780   8.038   7.686  0.0793 -0.2976 -0.0588
 1292ERGO    C217282  12.822   8.215   7.998  0.1869  0.3200 -0.2659
 1293ERGO   ROH17283  17.126  15.381   6.936 -0.1587 -0.0540 -0.0205
 1293ERGO    R117284  17.216  15.218   7.149 -0.1368  0.0274  0.0330
 1293ERGO    R217285  17.471  15.111   7.157 -0.1818 -0.0839 -0.0215
 1293ERGO    R317286  17.480  15.233   7.400 -0.0155  0.0524 -0.0939
 1293ERGO    R417287  17.670  15.011   7.422 -0.0313  0.0350 -0.0883
 1293ERGO    R517288  17.503  15.053   7.556  0.0551  0.1340 -0.0076
 1293ERGO    C117289  17.793  15.067   7.804  0.2125  0.2323 -0.1951
 1293ERGO    C217290  17.812  14.823   8.109  0.0470  0.1836  0.0483
 1294ERGO   ROH17291  17.624   7.082   6.702  0.1668  0.0566 -0.0073
 1294ERGO    R117292  17.556   6.961   6.949  0.0885 -0.0003 -0.0574
 1294ERGO    R217293  17.320   7.015   7.082  0.0633 -0.0091 -0.1084
 1294ERGO    R317294  17.292   6.744   7.074  0.0322 -0.0055 -0.1807
 1294ERGO    R417295  17.161   6.827   7.324  0.1479 -0.0648 -0.0937
 1294ERGO    R517296  17.317   6.676   7.303  0.1259 -0.0773 -0.2090
 1294ERGO    C117297  17.041   6.464   7.458  0.1678 -0.0938 -0.1531
 1294ERGO    C217298  16.806   6.207   7.614  0.0171 -0.0231  0.2650
 1295ERGO   ROH17299  17.616  13.101   6.510  0.1350  0.0157  0.1539
 1295ERGO    R117300  17.536  13.044   6.776 -0.1279 -0.0203  0.0704
 1295ERGO    R217301  17.622  13.194   6.993 -0.0036 -0.2974  0.2172
 1295ERGO    R317302  17.355  13.217   7.040 -0.0036  0.1241  0.0633
 1295ERGO    R417303  17.480  13.238   7.305 -0.1269 -0.4089  0.1779
 1295ERGO    R517304  17.322  13.100   7.247 -0.3454 -0.0646 -0.0897
 1295ERGO    C117305  17.147  13.285   7.531 -0.1986 -0.0780  0.0105
 1295ERGO    C217306  17.202  13.363   7.783 -0.2914  0.0712  0.1179
 1296ERGO   ROH17307   5.376   8.599   6.903  0.2147  0.0479 -0.0268
 1296ERGO    R117308   5.334   8.676   7.172  0.2298  0.1545 -0.0544
 1296ERGO    R217309   5.336   8.494   7.381 -0.0332  0.1942 -0.0146
 1296ERGO    R317310   5.523   8.664   7.483  0.1352  0.0050 -0.0017
 1296ERGO    R417311   5.407   8.530   7.717 -0.1896  0.2911  0.0091
 1296ERGO    R517312   5.424   8.745   7.686  0.1182  0.2548 -0.1065
 1296ERGO    C117313   5.623   8.709   8.009 -0.1225  0.1700  0.0351
 1296ERGO    C217314   5.880   8.665   8.214  0.0875  0.0205  0.1656
 1297ERGO   ROH17315   2.286   8.508   6.913 -0.3526  0.2525  0.0732
 1297ERGO    R117316   2.240   8.305   7.104 -0.1272  0.1379  0.0094
 1297ERGO    R217317   2.267   8.347   7.375 -0.1917  0.0888  0.0239
 1297ERGO    R317318   2.013   8.251   7.383 -0.0844 -0.2116 -0.0185
 1297ERGO    R417319   2.109   8.229   7.659 -0.2396  0.2957  0.0845
 1297ERGO    R517320   2.023   8.069   7.539  0.0352  0.0152  0.2460
 1297ERGO    C117321   1.778   8.071   7.832 -0.1666  0.1343  0.0800
 1297ERGO    C217322   1.632   8.142   8.168 -0.1104  0.1091 -0.0645
 1298ERGO   ROH17323   0.359   7.388   6.757 -0.1417  0.0194  0.0287
 1298ERGO    R117324   0.515   7.401   6.993 -0.0912  0.1487 -0.0116
 1298ERGO    R217325   0.483   7.600   7.181 -0.2423  0.0946  0.0165
 1298ERGO    R317326   0.453   7.390   7.351  0.0156  0.0447  0.0054
 1298ERGO    R417327   0.554   7.608   7.519 -0.3195  0.1947  0.0315
 1298ERGO    R517328   0.639   7.408   7.501 -0.0327  0.3060  0.0438
 1298ERGO    C117329   0.568   7.415   7.876 -0.1223  0.2061  0.0298
 1298ERGO    C217330   0.513   7.291   8.188  0.4142 -0.0996 -0.1348
 1299ERGO   ROH17331  17.552   8.253   7.208  0.1359  0.0570  0.0960
 1299ERGO    R117332  17.692   8.265   7.454  0.0029  0.0840  0.1707
 1299ERGO    R217333  17.579   8.368   7.684 -0.1516  0.0290  0.1177
 1299ERGO    R317334  17.650   8.127   7.789 -0.1270  0.0455  0.1400
 1299ERGO    R417335  17.658   8.313   8.016  0.1968  0.1460  0.0587
 1299ERGO    R517336  17.819   8.180   7.951  0.0773  0.0554 -0.0675
 1299ERGO    C117337  17.770   8.054   8.308  0.4230  0.2295  0.0452
 1299ERGO    C217338  17.714   8.099   8.603 -0.2406 -0.3492  0.0002
 1300ERGO   ROH17339  16.251   8.473   6.630  0.3454 -0.3245  0.1586
 1300ERGO    R117340  16.097   8.540   6.858  0.1768 -0.2406  0.0231
 1300ERGO    R217341  15.973   8.350   7.015  0.0813 -0.1865  0.0189
 1300ERGO    R317342  16.110   8.473   7.216 -0.0685 -0.0885  0.0623
 1300ERGO    R417343  15.966   8.253   7.347  0.1631 -0.2795 -0.0065
 1300ERGO    R517344  15.961   8.464   7.403 -0.0725 -0.3003  0.0486
 1300ERGO    C117345  16.090   8.311   7.728  0.0701 -0.2417  0.0193
 1300ERGO    C217346  16.120   8.394   8.157  0.1337  0.3607 -0.2745
 1301ERGO   ROH17347   2.558   6.567   6.599 -0.0452  0.2503  0.0074
 1301ERGO    R117348   2.610   6.573   6.877 -0.3451  0.0702  0.0726
 1301ERGO    R217349   2.479   6.409   7.057 -0.1610 -0.4417 -0.2374
 1301ERGO    R317350   2.732   6.341   7.129 -0.0600  0.0663 -0.0663
 1301ERGO    R417351   2.572   6.301   7.372 -0.1986 -0.4607 -0.2327
 1301ERGO    R517352   2.754   6.421   7.354 -0.4374 -0.0391  0.0134
 1301ERGO    C117353   2.864   6.174   7.623 -0.1258  0.0051 -0.0693
 1301ERGO    C217354   2.889   5.886   7.736  0.3165 -0.1130  0.1320
 1302ERGO   ROH17355   1.394   5.699   7.112 -0.1426  0.1164 -0.0238
 1302ERGO    R117356   1.196   5.765   7.304 -0.1495  0.0067  0.0072
 1302ERGO    R217357   1.005   5.584   7.389  0.0468 -0.1406  0.1365
 1302ERGO    R317358   1.100   5.650   7.635  0.0571  0.0495  0.0837
 1302ERGO    R417359   0.846   5.515   7.688  0.0528  0.0931  0.1961
 1302ERGO    R517360   0.905   5.712   7.760  0.0601  0.1510  0.0420
 1302ERGO    C117361   0.842   5.536   8.093  0.0659  0.4075  0.1811
 1302ERGO    C217362   0.714   5.410   8.416  0.0673 -0.2361  0.1577
 1303ERGO   ROH17363  13.876   2.725   6.669 -0.0289 -0.2301 -0.1243
 1303ERGO    R117364  13.878   2.865   6.915 -0.0206 -0.1640 -0.1623
 1303ERGO    R217365  13.689   3.057   6.978 -0.0970 -0.2446 -0.1535
 1303ERGO    R317366  13.654   2.903   7.200  0.0524 -0.2023 -0.0988
 1303ERGO    R417367  13.432   3.094   7.206 -0.0564 -0.3225 -0.0940
 1303ERGO    R517368  13.575   3.055   7.366  0.0125 -0.1963 -0.1208
 1303ERGO    C117369  13.249   2.971   7.547  0.1075 -0.3282 -0.0079
 1303ERGO    C217370  13.041   2.883   7.696  0.0492 -0.2057  0.0612
 1304ERGO   ROH17371  10.774  14.157   6.520  0.2713 -0.1518  0.1244
 1304ERGO    R117372  10.774  14.067   6.788  0.2399 -0.1159  0.1350
 1304ERGO    R217373  10.809  14.237   7.003  0.0897 -0.0729  0.1166
 1304ERGO    R317374  10.576  14.125   7.087  0.1234 -0.1814  0.0736
 1304ERGO    R417375  10.708  14.217   7.333 -0.1595  0.2990  0.0706
 1304ERGO    R517376  10.633  14.016   7.292  0.0685  0.1588  0.2842
 1304ERGO    C117377  10.430  14.101   7.604 -0.2729  0.4136  0.0036
 1304ERGO    C217378  10.345  14.244   7.980 -0.0285 -0.3390  0.2032
 1305W        W17379   2.908   4.848  15.389 -0.0042  0.3499 -0.3971
 1306W        W17380   5.797  16.032   3.012  0.2634  0.1253 -0.1338
 1307W        W17381  14.641   8.114   4.038 -0.1497  0.2420  0.1439
 1308W        W17382   0.382   3.107   2.275  0.0415 -0.1096 -0.1621
 1309W        W17383   5.656  11.511   2.223  0.1842  0.0049 -0.2870
 1310W        W17384  11.714  11.440   0.478  0.2760  0.0740  0.2902
 1311W        W17385   5.608   0.571  12.523 -0.0331 -0.1832 -0.1431
 1312W        W17386  10.185  16.208   0.748 -0.0265  0.3005 -0.1042
 1313W        W17387   0.732   3.905  12.701 -0.1512 -0.1829 -0.2486
 1314W        W17388  10.487  14.490  14.589  0.0091  0.2968 -0.1040
 1315W        W17389  15.173   0.949  13.893 -0.2105 -0.0755  0.3126
 1316W        W17390  17.533   2.576  15.402 -0.1692 -0.0848 -0.0409
 1317W        W17391   9.587   3.716   4.419 -0.1475 -0.0801 -0.0188
 1318W        W17392  16.849  14.012  14.442  0.1576  0.0275  0.0198
 1319W        W17393   9.613   9.275  14.470  0.0489 -0.3829 -0.0256
 1320W        W17394  15.741   0.553   0.058 -0.0954 -0.0085 -0.1163
 1321W        W17395  12.148   5.829  13.444 -0.1007 -0.1263 -0.0188
 1322W        W17396   8.309  17.347   0.124 -0.2789 -0.2516  0.2147
 1323W        W17397   1.951   9.856  11.751  0.0195  0.0731 -0.3120
 1324W        W17398  16.854   8.410  12.418  0.1622  0.2987 -0.0216
 1325W        W17399   0.601  11.466   0.034 -0.2185  0.0496  0.1784
 1326W        W17400   6.691  15.773   2.097 -0.2877 -0.0894 -0.2710
 1327W        W17401  13.384  17.150  12.047 -0.0235 -0.1556 -0.2287
 1328W        W17402  15.563  11.410   0.266 -0.0882 -0.3536  0.2142
 1329W        W17403   1.918  15.985  16.108  0.1770  0.0976 -0.2132
 1330W        W17404   9.533  15.856  16.858  0.1279 -0.1704 -0.0905
 1331W        W17405  16.950   2.073   3.562  0.1574  0.1890  0.1462
 1332W        W17406  10.465   6.796   4.886 -0.1090  0.2520 -0.1559
 1333W        W17407  15.463  11.221   3.093 -0.0554 -0.0622  0.0545
 1334W        W17408   8.824  12.469   5.605 -0.0530  0.0764  0.0855
 1335W        W17409   7.597  15.466  16.525 -0.0787 -0.5549  0.1062
 1336W        W17410  16.935   3.534   3.327 -0.0275 -0.3116  0.0696
 1337W        W17411  13.302   5.508   2.681 -0.0035 -0.3816  0.1952
 1338W        W17412  11.483   8.345  12.097 -0.0233  0.1405  0.2765
 1339W        W17413   4.506  13.749   3.639  0.1050  0.0955 -0.1424
 1340W        W17414  16.181   9.287  12.933  0.0335 -0.2005 -0.1157
 1341W        W17415   7.645  16.868   2.652 -0.3426 -0.0754  0.1047
 1342W        W17416  17.610   9.781   4.576 -0.1914  0.0511  0.1039
 1343W        W17417  16.674   1.755   3.850 -0.1587  0.2156 -0.0885
 1344W        W17418   7.291   8.878  13.369 -0.2284 -0.0419 -0.0673
 1345W        W17419  17.191  11.929  15.841  0.0442 -0.1355 -0.1206
 1346W        W17420   9.120  12.487   3.304 -0.1623 -0.3903  0.0172
 1347W        W17421   9.969   8.633   4.010 -0.3419 -0.3296  0.0331
 1348W        W17422   2.050   3.139  13.317  0.0399 -0.0770  0.3145
 1349W        W17423  10.886   5.551  12.842 -0.1797  0.2685 -0.1205
 1350W        W17424  17.010   6.799  16.352 -0.0039 -0.0645 -0.1640
 1351W        W17425  14.562  15.234  13.975  0.1212  0.0504  0.1933
 1352W        W17426  14.080   8.083  13.993  0.0352 -0.0566 -0.0931
 1353W        W17427   7.309   6.989  14.850  0.0714  0.1824 -0.1728
 1354W        W17428   8.058   8.265  13.991 -0.0493  0.1126  0.1827
 1355W        W17429   1.406  12.484  16.444  0.2690  0.4001 -0.1797
 1356W        W17430   1.178   8.884   2.732  0.0412  0.0920  0.0029
 1357W        W17431   0.302   0.551   0.754 -0.0674 -0.1789  0.1262
 1358W        W17432   2.708   1.795  12.136  0.2554 -0.2802 -0.2558
 1359W        W17433   8.447  13.965  16.790  0.0207  0.4110  0.3661
 1360W        W17434  14.627  11.175   3.493  0.0359  0.0265  0.2098
 1361W        W17435   9.440  17.481   0.269 -0.0686 -0.2875 -0.0811
 1362W        W17436   3.652   1.855   1.282 -0.0132 -0.0468 -0.0882
 1363W        W17437  13.412  11.792   5.186  0.0437 -0.2032  0.0873
 1364W        W17438   7.250  12.954  12.840  0.2519  0.0753 -0.1783
 1365W        W17439  13.938  12.601   3.215  0.2292 -0.4578 -0.2184
 1366W        W17440   2.949   7.896  13.340  0.0318 -0.0639 -0.0365
 1367W        W17441  10.488   9.575   5.027 -0.2567 -0.0702 -0.2308
 1368W        W17442   9.582   8.748  13.824 -0.0065  0.1535  0.0228
 1369W        W17443   2.186   4.647  14.690  0.3116  0.0917  0.1476
 1370W        W17444  15.561  14.253  14.300  0.3237  0.0191 -0.3291
 1371W        W17445   2.055  17.517   2.685 -0.2994 -0.1885 -0.1414
 1372W        W17446   9.093   1.579  15.680  0.1281 -0.0458 -0.1780
 1373W        W17447   1.260  17.801  13.810  0.4829 -0.2843  0.3539
 1374W        W17448   4.932  13.242   1.030  0.0290  0.1071  0.1220
 1375W        W17449  16.608   2.978   2.755  0.0438 -0.2541 -0.3280
 1376W        W17450  13.108   1.017  13.446 -0.0977  0.0317 -0.0388
 1377W        W17451   0.983   2.032   2.140  0.1318  0.2722 -0.1653
 1378W        W17452   4.319   4.689  15.119 -0.3499  0.1263 -0.1596
 1379W        W17453   7.075   4.855  12.085 -0.1652  0.1791  0.0511
 1380W        W17454  16.129   8.314  14.218 -0.0381 -0.4745 -0.2455
 1381W        W17455  11.324   2.613   2.210 -0.1737  0.3269  0.0952
 1382W        W17456  11.421   9.142  13.456 -0.0542  0.0649 -0.1183
 1383W        W17457   7.922   6.351   1.354 -0.1107 -0.3326  0.0478
 1384W        W17458  14.277   7.335  16.335  0.0123  0.0817 -0.2447
 1385W        W17459  14.850   5.684   0.379 -0.0162 -0.3158  0.1870
 1386W        W17460   2.253   4.384   3.906  0.1200 -0.1592 -0.1934
 1387W        W17461  16.700   6.618  15.670 -0.0913 -0.2035  0.0161
 1388W        W17462  16.072   2.623   0.508  0.1757  0.2975  0.4972
 1389W        W17463  13.794   1.504   4.479 -0.1308  0.2780  0.1707
 1390W        W17464   2.579   1.181  15.991 -0.3224  0.1903 -0.2801
 1391W        W17465  15.530  17.571  15.236  0.1284  0.0917  0.0870
 1392W        W17466  10.594   1.490   1.413 -0.1893 -0.2195  0.0588
 1393W        W17467   5.403  13.684   3.525  0.4356  0.1426 -0.2128
 1394W        W17468  11.081  17.284  16.150 -0.2157  0.1623 -0.0681
 1395W        W17469   4.847   6.845   4.245 -0.2428  0.0408  0.2689
 1396W        W17470   8.905  17.549  15.156 -0.1529  0.0831 -0.0708
 1397W        W17471   7.401   3.107   5.740  0.0232 -0.2451 -0.0204
 1398W        W17472   2.746  15.076  15.467 -0.0463 -0.0703  0.0775
 1399W        W17473  17.619  14.514   4.050  0.0358  0.0762  0.2228
 1400W        W17474  14.730   0.361   1.034  0.1316 -0.0147  0.1389
 1401W        W17475   6.062   0.910   4.834  0.1245 -0.0997 -0.0999
 1402W        W17476   4.049   3.470  12.336 -0.0322 -0.3082  0.2065
 1403W        W17477  11.916   0.688   1.183  0.2462  0.1007 -0.0269
 1404W        W17478   0.687  15.161  16.318 -0.0449 -0.1339 -0.2705
 1405W        W17479  10.377  14.829  15.508 -0.1293 -0.0182  0.2039
 1406W        W17480   0.467   7.406   2.248 -0.0820  0.1204  0.0042
 1407W        W17481   9.488  15.549   2.128 -0.0076  0.0449 -0.3004
 1408W        W17482  11.325  13.466   0.783  0.1690  0.0933  0.0983
 1409W        W17483   3.064  11.585  14.203  0.0764  0.4006  0.1180
 1410W        W17484  12.557  17.770  15.946  0.0602  0.1313 -0.0960
 1411W        W17485  16.480   1.602   2.115  0.2329 -0.1562 -0.0678
 1412W        W17486   1.290  11.878   0.290  0.0098 -0.0690 -0.0236
 1413W        W17487  17.335  16.028  13.856 -0.2423  0.2636  0.0615
 1414W        W17488   0.123  11.781  14.619  0.0673  0.1245 -0.2284
 1415W        W17489   2.262  15.160  16.410  0.2016 -0.1623  0.1924
 1416W        W17490   6.089  15.839   6.060  0.0341  0.1645 -0.3493
 1417W        W17491  11.029   1.435   5.359  0.0100  0.4184  0.2438
 1418W        W17492   6.336  12.519  15.827  0.4041 -0.1032 -0.0208
 1419W        W17493  17.690   5.942   0.155  0.0765 -0.1764 -0.4703
 1420W        W17494  11.501  14.265  15.479  0.0702  0.2285 -0.1392
 1421W        W17495   8.205   0.329  14.302  0.0056  0.1071  0.1709
 1422W        W17496  10.672   1.290  11.776 -0.1985 -0.0542  0.0285
 1423W        W17497   3.105  17.706   1.641 -0.0018  0.2479 -0.3373
 1424W        W17498  10.611  14.362  15.599 -0.1329 -0.2874 -0.3524
 1425W        W17499   1.900   2.272   4.340  0.0088  0.0389  0.0208
 1426W        W17500   3.821   6.617  14.403 -0.1458  0.1815 -0.2185
 1427W        W17501   4.402  14.735  11.527 -0.0710 -0.0705 -0.0954
 1428W        W17502   6.812   1.478  12.192  0.0018  0.0652 -0.0808
 1429W        W17503   9.386   0.010  12.662  0.1840 -0.2091 -0.0978
 1430W        W17504  14.591   6.756   1.331 -0.0649 -0.2947  0.0752
 1431W        W17505   6.935  13.698   2.336 -0.0703 -0.0067  0.1773
 1432W        W17506  13.683   1.624  12.023 -0.0260 -0.0643  0.1208
 1433W        W17507   0.029   0.313   3.622 -0.0877  0.1720 -0.1836
 1434W        W17508  14.259   3.856  13.985  0.0988  0.3590 -0.1847
 1435W        W17509  14.354  15.398  11.958  0.0806 -0.0621  0.0190
 1436W        W17510  16.635  13.258   0.315  0.3384  0.0176 -0.0500
 1437W        W17511  13.761   8.834  14.661  0.2958 -0.1352  0.0194
 1438W        W17512   0.581   6.541   0.497  0.1299 -0.0785 -0.2127
 1439W        W17513   3.377   4.310   3.942  0.0851  0.0162 -0.2971
 1440W        W17514  17.035  11.458   1.878 -0.1788 -0.0088 -0.4130
 1441W        W17515  14.349   9.037   5.989  0.0024  0.2431  0.0571
 1442W        W17516  11.302   1.107   3.269 -0.2371  0.4201  0.1135
 1443W        W17517   2.803   7.388   4.931  0.0015  0.0794 -0.1903
 1444W        W17518  16.097   9.323  16.630 -0.1435 -0.1601  0.0979
 1445W        W17519  11.068  17.650  13.357 -0.2636  0.1635 -0.2311
 1446W        W17520   9.919  15.331   2.765 -0.3392  0.1737  0.0831
 1447W        W17521   5.848  15.756   4.256  0.1933 -0.1910 -0.2409
 1448W        W17522  15.057   9.868  16.968 -0.3841  0.3432 -0.0485
 1449W        W17523  10.512   2.843   3.036  0.3002  0.1821  0.0116
 1450W        W17524  17.109  15.187  14.262 -0.1476  0.1207 -0.0174
 1451W        W17525  16.795   1.521   5.616 -0.0500  0.0886 -0.1007
 1452W        W17526   7.386   9.346  16.186 -0.0481  0.0784 -0.0534
 1453W        W17527  17.547   7.760  14.824 -0.0312 -0.0228  0.1775
 1454W        W17528   1.333  17.459   0.638  0.0683 -0.2421  0.2135
 1455W        W17529   7.263   2.247  12.214  0.2091 -0.0129 -0.3011
 1456W        W17530   0.137  14.570  15.377  0.0592  0.2779  0.1947
 1457W        W17531   1.724  14.623  16.165 -0.1726  0.0873 -0.0085
 1458W        W17532  11.572   3.912   0.659 -0.0689  0.0236 -0.0037
 1459W        W17533  14.723  16.817  13.387 -0.1725 -0.1942  0.1181
 1460W        W17534   0.569   5.326  14.340  0.1416  0.0326  0.1220
 1461W        W17535  11.172  14.604   5.640  0.0163  0.0021 -0.0440
 1462W        W17536   6.907   4.947  15.015 -0.0114 -0.1727 -0.2092
 1463W        W17537   2.774  11.232   3.898  0.0700 -0.2198 -0.1420
 1464W        W17538   2.388   3.470   4.987  0.0499  0.1486  0.1423
 1465W        W17539   0.777  11.281  12.450 -0.1772 -0.0893 -0.1727
 1466W        W17540  17.774   9.574  16.855 -0.0720 -0.0491  0.1430
 1467W        W17541   2.581   2.298   1.899  0.0481  0.2255  0.0514
 1468W        W17542   4.754   2.591  12.689 -0.1989  0.0334  0.2274
 1469W        W17543   4.918   6.002   0.510  0.3036  0.2969  0.2357
 1470W        W17544   8.169   4.883   2.003 -0.3234 -0.3195  0.0500
 1471W        W17545   6.766  17.839   2.290 -0.1757  0.0485  0.1870
 1472W        W17546  17.652  16.752  15.974 -0.1996  0.0176  0.3789
 1473W        W17547   2.563   8.933  12.316 -0.0908 -0.1987 -0.1182
 1474W        W17548  11.819  16.789  14.795  0.0676  0.2656  0.0045
 1475W        W17549   0.987  12.768  16.086 -0.0750  0.0483 -0.0514
 1476W        W17550  11.958   7.425   2.308 -0.0619 -0.0411 -0.3495
 1477W        W17551   2.605  13.323  14.522  0.3229  0.0562 -0.0871
 1478W        W17552   1.181  11.530  15.990  0.0512  0.0457 -0.1806
 1479W        W17553   6.019  12.381  16.180 -0.0069 -0.0119  0.2505
 1480W        W17554  13.635  10.855  12.249 -0.0749 -0.0297  0.0261
 1481W        W17555  14.293   8.668  15.452 -0.3136  0.1775 -0.2141
 1482W        W17556   5.923   4.541   4.075 -0.1625 -0.1490 -0.3689
 1483W        W17557   6.497  17.274   4.058 -0.1669  0.2027 -0.0957
 1484W        W17558   4.097   4.545   5.234 -0.1223 -0.0672 -0.2575
 1485W        W17559  12.121  17.600  15.841 -0.1929 -0.4162  0.0315
 1486W        W17560  10.243   9.196   5.990 -0.0207 -0.1843  0.0552
 1487W        W17561  13.330  13.762   2.623  0.0827 -0.1036 -0.1095
 1488W        W17562   3.968  11.256   2.538 -0.1404  0.3184 -0.0988
 1489W        W17563  13.746   5.174  13.921  0.0733  0.1900  0.0680
 1490W        W17564  15.246  16.756  16.865  0.0591 -0.1011  0.1998
 1491W        W17565  10.203  16.927   4.366  0.3044  0.1552 -0.1250
 1492W        W17566   4.838  12.488   2.218  0.3211  0.1497  0.0097
 1493W        W17567   1.274   7.477   2.580 -0.0599 -0.1351 -0.0054
 1494W        W17568   3.398   8.621   1.433 -0.3923  0.0415 -0.0125
 1495W        W17569  11.028   3.860   0.272  0.0157 -0.2941 -0.0165
 1496W        W17570  15.086   9.346   3.828 -0.2099  0.1777 -0.1352
 1497W        W17571   0.278  12.306  16.556 -0.1295 -0.3127  0.1620
 1498W        W17572   3.293  13.822  12.185  0.2980  0.1050 -0.1449
 1499W        W17573   1.857  12.535  15.737  0.2379 -0.0600  0.3976
 1500W        W17574  13.540   7.633  13.401  0.2729  0.0328  0.3111
 1501W        W17575  17.502  13.831  15.504  0.3950 -0.1274 -0.1739
 1502W        W17576   8.945   8.521  11.026  0.2077 -0.3036  0.0664
 1503W        W17577   9.229   1.774  16.735  0.1563  0.0687 -0.1091
 1504W        W17578   2.849   3.173   1.146 -0.1396 -0.0632 -0.0354
 1505W        W17579   8.910   5.565   2.378 -0.0728 -0.1369  0.1698
 1506W        W17580   1.193  16.939   1.333  0.0336  0.1449  0.0589
 1507W        W17581   3.931   3.247   2.678  0.3810  0.1913  0.0924
 1508W        W17582  12.308   0.593   1.524 -0.0577 -0.0087 -0.1941
 1509W        W17583   6.109  14.119   2.769 -0.1030 -0.5213  0.1862
 1510W        W17584   8.071  16.416  16.163 -0.3245  0.0590 -0.0759
 1511W        W17585  15.151   9.021   2.318 -0.0912  0.1034 -0.1222
 1512W        W17586  11.942   0.093   0.809 -0.2903 -0.0993 -0.0553
 1513W        W17587   4.941   4.654  12.738  0.0508  0.0277 -0.1965
 1514W        W17588   2.050  14.319  15.277  0.4352 -0.0452 -0.0631
 1515W        W17589  15.105  17.047  13.526 -0.1135 -0.0139 -0.2682
 1516W        W17590  17.543   0.694   5.559 -0.1868 -0.0689 -0.2600
 1517W        W17591   6.836   5.211  16.770  0.0521  0.2521  0.0618
 1518W        W17592   6.752  13.125  13.641  0.1229  0.1616  0.0377
 1519W        W17593  16.657   6.106   0.144 -0.0554 -0.0183  0.1421
 1520W        W17594  11.717   6.850  14.213  0.2559  0.2352 -0.1479
 1521W        W17595   2.559  14.556  13.964 -0.1261 -0.0870  0.3508
 1522W        W17596   9.469  12.145   1.752 -0.1174 -0.3498  0.1645
 1523W        W17597   9.625  13.234   5.696 -0.1923  0.1852 -0.2802
 1524W        W17598  12.017   8.558  14.784 -0.1868  0.2070  0.3991
 1525W        W17599   5.451  12.262  15.352  0.0315 -0.0954 -0.0173
 1526W        W17600  13.264   2.705  16.545  0.0155  0.1097 -0.0335
 1527W        W17601  12.371   5.269   1.461 -0.0631 -0.0513 -0.0736
 1528W        W17602  12.662   5.118   3.377 -0.2468  0.1984  0.0794
 1529W        W17603   6.052   1.074   1.846  0.1236  0.1369 -0.0624
 1530W        W17604  17.177   4.099  15.342  0.1799  0.1600  0.0373
 1531W        W17605  17.419   9.464   4.884 -0.0323 -0.1536  0.2717
 1532W        W17606  15.241  10.944  14.043 -0.1610 -0.1122 -0.0628
 1533W        W17607   4.333  12.085   0.325  0.0441  0.1807  0.0668
 1534W        W17608   5.128  15.658   3.371 -0.0384  0.1364  0.0026
 1535W        W17609   5.073  15.418  13.849 -0.1534 -0.0726 -0.2462
 1536W        W17610  14.911   9.677   5.688  0.0638 -0.0148 -0.1195
 1537W        W17611  17.072  14.003   1.345  0.2507 -0.1385 -0.1818
 1538W        W17612  11.974   5.656   5.537 -0.0677  0.1163 -0.0521
 1539W        W17613   2.323   8.161  14.712  0.1709  0.0096 -0.0070
 1540W        W17614  15.000   5.565  15.974  0.1081 -0.1009  0.1716
 1541W        W17615  15.779  10.334  11.663 -0.2226 -0.0952  0.1095
 1542W        W17616   9.413  16.316  14.316 -0.2407 -0.0644  0.2208
 1543W        W17617  16.671   8.917   1.251 -0.2069  0.1960 -0.0000
 1544W        W17618   6.784   0.189   6.130 -0.2570  0.0441 -0.1644
 1545W        W17619  16.835  12.295  15.740  0.0095  0.1417  0.1728
 1546W        W17620   2.928   4.548  13.142 -0.1013 -0.1301  0.0635
 1547W        W17621  15.672  13.032  16.488  0.0262 -0.3023  0.0475
 1548W        W17622  16.078   5.598  14.863 -0.1633  0.0114  0.0755
 1549W        W17623   9.726  11.076   5.092  0.1202 -0.1255 -0.2992
 1550W        W17624   9.815   6.686   6.626 -0.0430 -0.3096  0.1734
 1551W        W17625   2.198  12.590  16.932 -0.0000  0.3219  0.1749
 1552W        W17626   6.025  11.726   2.409 -0.0185 -0.1673  0.1564
 1553W        W17627  10.674   3.417   0.115 -0.1815 -0.2901  0.1411
 1554W        W17628  14.606  17.315  13.577  0.3580 -0.3066 -0.1367
 1555W        W17629  10.030   9.678   4.773 -0.1735 -0.1301  0.1843
 1556W        W17630  15.154  11.579   4.934  0.1781 -0.0610  0.0996
 1557W        W17631   6.538   1.288   2.000 -0.5717 -0.1526  0.1075
 1558W        W17632   1.206   5.655   4.324  0.0926 -0.1270 -0.2566
 1559W        W17633   7.282   4.564   6.444  0.3431 -0.1118  0.0715
 1560W        W17634   9.550   2.557  16.136  0.0010 -0.0894 -0.1234
 1561W        W17635  10.880   0.547  12.571  0.1293 -0.1917  0.0148
 1562W        W17636   3.252  10.842   2.211 -0.1772  0.0097  0.1129
 1563W        W17637  16.149  11.209   1.445  0.2502  0.0970  0.0826
 1564W        W17638  14.648  17.289  12.207 -0.0573 -0.3910  0.0539
 1565W        W17639   2.687   5.790   0.274 -0.1816  0.0774  0.1088
 1566W        W17640  16.338  17.088   2.293 -0.2658  0.1385 -0.1791
 1567W        W17641   9.615   5.810   6.492 -0.0448  0.1783 -0.0462
 1568W        W17642   9.510  14.525  13.894  0.1482 -0.0126  0.2712
 1569W        W17643  12.585   2.366   3.967  0.2560 -0.2431  0.0447
 1570W        W17644   7.425   7.394   4.834  0.2166  0.1767  0.0720
 1571W        W17645   2.405   2.038  12.819 -0.0020 -0.0635  0.0987
 1572W        W17646   7.100   4.095   4.638 -0.1202  0.0402  0.0843
 1573W        W17647   6.808   5.919  14.668  0.0410  0.1798  0.0915
 1574W        W17648   7.198   2.829   1.053 -0.2574 -0.1216  0.1026
 1575W        W17649  10.324  12.946  13.277 -0.3543  0.0211 -0.4442
 1576W        W17650  17.509  12.404  12.055 -0.0817 -0.0890  0.2815
 1577W        W17651   3.072  13.815   5.873  0.0918  0.1448 -0.0963
 1578W        W17652  17.109  11.131  12.823 -0.1025  0.1534 -0.1869
 1579W        W17653  13.944   1.226  12.127 -0.0981 -0.2745  0.2423
 1580W        W17654   6.889   2.080   2.406 -0.2626  0.3116 -0.0635
 1581W        W17655   3.191   6.055  16.087 -0.2750 -0.1420 -0.1751
 1582W        W17656   4.657  15.667   0.373  0.1687  0.2402  0.0153
 1583W        W17657  12.570  17.449  13.960 -0.0904  0.1513  0.1354
 1584W        W17658   3.325   0.558   0.665  0.0980  0.0285  0.0552
 1585W        W17659  10.176   8.886  13.751  0.0185  0.1151  0.0532
 1586W        W17660  15.425   0.279  15.516 -0.0071  0.1103  0.2894
 1587W        W17661  10.056   4.128   2.529  0.0643 -0.2249  0.0006
 1588W        W17662  10.451  15.921  15.019 -0.0089 -0.1317  0.0125
 1589W        W17663   3.979   6.389  12.667  0.0585 -0.0460 -0.2006
 1590W        W17664  14.748   4.391   5.294  0.0577 -0.0168 -0.0291
 1591W        W17665   5.150   1.464   1.282  0.2343  0.2352 -0.1351
 1592W        W17666   2.520   1.836   5.191 -0.2308 -0.0380 -0.1240
 1593W        W17667  12.079  17.276   2.910 -0.1025  0.2688  0.0938
 1594W        W17668   6.931   9.427  12.121 -0.0401  0.2150 -0.0744
 1595W        W17669  16.597   2.723  15.505  0.0982  0.2414  0.0641
 1596W        W17670  17.260   6.184   1.302 -0.1791  0.2323 -0.2869
 1597W        W17671  13.481   7.764   4.610 -0.2373  0.0505  0.0314
 1598W        W17672   6.152   3.113   4.502 -0.0398  0.0225  0.1743
 1599W        W17673   0.609   8.003   1.011  0.1064 -0.3624 -0.1348
 1600W        W17674   5.129  13.682  12.297 -0.0017  0.0210 -0.1196
 1601W        W17675   4.289  14.679   0.608 -0.1157 -0.1136  0.5355
 1602W        W17676   1.713   8.984   2.091  0.1007 -0.0184 -0.3351
 1603W        W17677  15.235   0.234  14.172 -0.0596  0.0772  0.0104
 1604W        W17678   6.075   3.016  15.906  0.0759 -0.1455  0.0259
 1605W        W17679   7.268   0.434  16.420  0.0549  0.0074  0.0618
 1606W        W17680  10.724   1.580   0.902  0.0381 -0.3255  0.3275
 1607W        W17681   6.474   9.378   0.852  0.1590 -0.1945 -0.2446
 1608W        W17682   8.353   9.654   4.197 -0.0033 -0.0905  0.0698
 1609W        W17683   7.803  11.891  14.957 -0.2620  0.0849 -0.1469
 1610W        W17684   5.707   1.891   1.706 -0.1430 -0.1017  0.0501
 1611W        W17685   4.360  11.993   1.454  0.0491 -0.0357  0.1039
 1612W        W17686   6.519   7.986   5.113 -0.0786  0.0778  0.1670
 1613W        W17687  14.906   2.626   5.386  0.2429 -0.2306  0.2080
 1614W        W17688   9.981   6.614   2.290 -0.2864  0.0600  0.0942
 1615W        W17689   1.666  11.106  16.692  0.0973  0.2453  0.0775
 1616W        W17690   3.810  17.204   2.414  0.0819  0.0323 -0.1100
 1617W        W17691  14.434   8.569   4.107  0.1332 -0.0503  0.0196
 1618W        W17692  10.244   7.037  15.193 -0.1338  0.0292  0.1963
 1619W        W17693   6.139  12.092  16.832  0.0989  0.0656  0.2230
 1620W        W17694  17.795   5.141   2.062 -0.0802 -0.2450 -0.1176
 1621W        W17695   5.601   3.950   4.615 -0.0437 -0.0248 -0.0106
 1622W        W17696   7.320  15.088   2.048 -0.1900 -0.2848 -0.2874
 1623W        W17697   1.666   6.378   1.916 -0.3343  0.1360  0.3063
 1624W        W17698   3.597  12.287   2.622 -0.3756 -0.0724 -0.0379
 1625W        W17699   4.098  15.787   0.563 -0.0543  0.0394  0.0673
 1626W        W17700  11.250   8.312  16.549 -0.1084  0.0812 -0.0108
 1627W        W17701   6.678  11.077   4.102  0.1300  0.0172 -0.3796
 1628W        W17702   5.551  13.353   3.183  0.1046 -0.2098 -0.2561
 1629W        W17703   8.932  11.674   0.383  0.3230  0.1300  0.4232
 1630W        W17704   1.125  14.428   0.244 -0.1754 -0.0790 -0.2191
 1631W        W17705   1.626  13.557  12.121 -0.2274 -0.0537 -0.0425
 1632W        W17706  11.788  16.191   1.828  0.0917  0.1857 -0.0451
 1633W        W17707   4.960  15.877  16.446  0.0604  0.0817 -0.4199
 1634W        W17708  11.572   2.639  12.618 -0.1085  0.0440 -0.1173
 1635W        W17709  17.641   7.079  15.018  0.0163 -0.4582  0.3374
 1636W        W17710  16.563   8.897  14.961 -0.0705 -0.1201 -0.0528
 1637W        W17711  12.576   7.218  15.094  0.4144 -0.0010 -0.1904
 1638W        W17712   2.778   4.607   2.811 -0.1602  0.2583 -0.0113
 1639W        W17713  15.880  13.425   2.575  0.0343 -0.1862  0.0117
 1640W        W17714  11.914  16.573  13.524  0.0509  0.0380 -0.0234
 1641W        W17715   5.261   2.121  14.509 -0.1871 -0.0221 -0.1136
 1642W        W17716   5.744   7.972   3.848 -0.2076 -0.0615  0.1040
 1643W        W17717  13.622   6.901   2.666 -0.0085 -0.2120 -0.0687
 1644W        W17718  12.680  14.607  15.842 -0.2443 -0.0782 -0.1144
 1645W        W17719   1.068  16.595   0.842  0.1232  0.3786 -0.3198
 1646W        W17720  16.551   2.845  14.539  0.1914  0.0293 -0.0018
 1647W        W17721  15.904  12.524   3.225  0.0956  0.0934  0.1208
 1648W        W17722   8.873   1.615  12.008 -0.1557  0.2443 -0.0950
 1649W        W17723  12.933   8.257  12.254 -0.0823 -0.2073  0.1636
 1650W        W17724  13.129  14.207  15.103 -0.0757 -0.0840 -0.1053
 1651W        W17725  16.628  10.716  13.971  0.2977 -0.0293 -0.0901
 1652W        W17726   2.245   7.177   4.334  0.1841  0.0475  0.2111
 1653W        W17727   8.080  10.512  15.737 -0.2215  0.0235 -0.0863
 1654W        W17728   7.793  12.764  11.807 -0.0953  0.1478  0.1774
 1655W        W17729   6.439  13.647   5.129 -0.1725  0.1702  0.4052
 1656W        W17730  15.736  11.468  13.198  0.1769  0.0819  0.1841
 1657W        W17731  16.381   4.003   5.633  0.0762 -0.1792  0.1562
 1658W        W17732   7.962  16.250  14.656  0.1162  0.1084 -0.1902
 1659W        W17733   2.156  15.249  13.526 -0.1069 -0.0351  0.1003
 1660W        W17734   4.340  12.432  15.826 -0.0955  0.3013 -0.0683
 1661W        W17735   1.233  17.663  12.996 -0.0708 -0.4935 -0.1085
 1662W        W17736  17.055  10.975   1.111 -0.1046  0.0414  0.0349
 1663W        W17737   1.313   8.938  11.416  0.1321 -0.2971  0.0154
 1664W        W17738  15.473   3.252  16.643 -0.1038 -0.0788 -0.1322
 1665W        W17739   0.956  10.586   5.173  0.0438  0.0283 -0.0685
 1666W        W17740   9.584   2.505  15.309  0.0972  0.0033  0.0248
 1667W        W17741  14.398   7.912  13.361  0.1433  0.3331  0.1073
 1668W        W17742  16.236  16.954   0.003  0.3083 -0.2456  0.1245
 1669W        W17743   9.882   5.443   4.665  0.0152  0.1037  0.0214
 1670W        W17744   9.846  11.059   0.364  0.0251  0.0228 -0.0377
 1671W        W17745  15.868  15.341  16.555 -0.0349  0.2270 -0.1335
 1672W        W17746   2.186  11.771   2.717  0.1509 -0.0373  0.1351
 1673W        W17747   3.862   1.496   2.876 -0.1087  0.2493 -0.1255
 1674W        W17748  16.940  15.099   4.777  0.5319  0.0296  0.4213
 1675W        W17749  10.781   2.009  12.614  0.1955  0.3036 -0.1130
 1676W        W17750  14.628  10.019   2.933  0.3404 -0.2604  0.1546
 1677W        W17751   6.673  10.764   4.565 -0.0565  0.0277  0.2541
 1678W        W17752   9.050  12.172   3.787 -0.1460 -0.0187  0.2594
 1679W        W17753  13.238  15.220   5.382  0.0961  0.0967 -0.1520
 1680W        W17754  14.100   9.880   2.823  0.2977  0.1928 -0.1554
 1681W        W17755   0.436   4.049   3.357 -0.0463  0.0827 -0.0677
 1682W        W17756   2.030  14.292   4.141  0.1355 -0.3582  0.2363
 1683W        W17757  17.790  14.111  12.957 -0.1358 -0.2907  0.0562
 1684W        W17758  11.605  10.848   3.331 -0.0181 -0.3376 -0.0533
 1685W        W17759  15.586  17.579  16.196  0.0397 -0.2796  0.2180
 1686W        W17760   1.882   5.737   3.513  0.1769  0.0194 -0.1026
 1687W        W17761   4.198   6.215   3.444  0.0689 -0.1027 -0.2173
 1688W        W17762   7.930   9.819   1.715 -0.2365  0.1745  0.2382
 1689W        W17763   4.622   8.249  13.901  0.3658  0.1986  0.0510
 1690W        W17764   8.934   5.134  12.075  0.1436  0.0830 -0.0965
 1691W        W17765   7.379  13.491   4.876  0.4528  0.1118 -0.2760
 1692W        W17766   3.593  17.306  15.716  0.2769 -0.1074 -0.1025
 1693W        W17767  15.778   1.433  14.209 -0.3470 -0.1095  0.0091
 1694W        W17768   5.586  13.318  12.675 -0.0242 -0.1272 -0.0485
 1695W        W17769   8.241  16.345   5.571 -0.0359 -0.1800  0.1123
 1696W        W17770   4.525  13.448  15.944  0.0015 -0.0257  0.1952
 1697W        W17771  12.726   9.558   2.760  0.2391 -0.0939  0.0613
 1698W        W17772  16.750  17.711   3.905 -0.1273  0.0762  0.0097
 1699W        W17773   1.005  11.377  15.527 -0.2477 -0.2170 -0.2410
 1700W        W17774   1.156   0.447   0.737  0.2355 -0.1314 -0.1258
 1701W        W17775  15.630   5.521  11.551 -0.2898  0.1248  0.1225
 1702W        W17776   3.251  17.345   0.552 -0.1314  0.1692  0.2887
 1703W        W17777   1.667   7.742  12.543 -0.1222  0.4064 -0.0865
 1704W        W17778   9.951  12.210   5.924  0.2166  0.0381 -0.1472
 1705W        W17779   5.486   9.003  16.726  0.1058 -0.0360  0.0233
 1706W        W17780   8.682  12.403   1.536 -0.2067  0.0212 -0.1646
 1707W        W17781  11.850  15.258  12.364 -0.0667 -0.1173 -0.1148
 1708W        W17782  10.809  16.899   0.704  0.3250 -0.1295 -0.1088
 1709W        W17783  16.971  12.508   4.905  0.3746  0.0045  0.0181
 1710W        W17784   5.792   4.427   4.534  0.2798 -0.1935  0.0829
 1711W        W17785  12.222  17.682   2.653 -0.2867  0.2079  0.1455
 1712W        W17786   5.859   0.648  11.373  0.2471 -0.2588 -0.1681
 1713W        W17787  13.587  15.455   0.015 -0.0962  0.1128  0.0502
 1714W        W17788  13.086   7.659  13.684 -0.1912 -0.0492  0.0025
 1715W        W17789  12.412   5.970  14.391 -0.0184 -0.0961  0.4005
 1716W        W17790   2.797   3.587  11.214 -0.0095 -0.1328 -0.1832
 1717W        W17791   7.203  14.934   4.552 -0.3466  0.0473 -0.1738
 1718W        W17792   9.780   3.444  16.271 -0.1481  0.0243  0.1627
 1719W        W17793   9.279  10.248   0.571  0.0893  0.0586  0.0689
 1720W        W17794  15.274  15.787  16.277 -0.1198 -0.0469 -0.1971
 1721W        W17795   1.849   5.387  14.893 -0.2467  0.0379 -0.1747
 1722W        W17796   5.149   2.909  15.091 -0.4247  0.2413  0.1054
 1723W        W17797  11.728   0.289  13.145  0.1112 -0.1057 -0.1223
 1724W        W17798   8.725   2.128   1.093 -0.4391 -0.3054 -0.0335
 1725W        W17799  10.347   9.439  10.978  0.0753 -0.0885  0.5341
 1726W        W17800   5.333   8.859  14.133  0.2349 -0.0766  0.2363
 1727W        W17801   5.341   4.754   4.349  0.0425  0.0685  0.0455
 1728W        W17802   3.556  16.603  15.163  0.0905 -0.0761 -0.0901
 1729W        W17803  12.030   8.037  12.834 -0.0187 -0.0302  0.0545
 1730W        W17804  17.709   9.501  15.381 -0.0180 -0.2207 -0.0928
 1731W        W17805   6.979   0.489  14.923 -0.1399  0.3686  0.1444
 1732W        W17806   9.257  17.214  14.345 -0.4186  0.2522  0.0897
 1733W        W17807  10.715   2.907   0.061  0.0600 -0.0632 -0.0879
 1734W        W17808  17.449  14.489   5.390  0.1232  0.0675 -0.2801
 1735W        W17809  12.822   9.329  12.003  0.0871  0.0509  0.3098
 1736W        W17810  15.699   3.399   3.028 -0.0260 -0.1071  0.0094
 1737W        W17811   0.774   1.912   6.463 -0.0173  0.1686  0.0256
 1738W        W17812   7.036   5.051   6.443 -0.0434 -0.1573 -0.3034
 1739W        W17813  16.578  14.177   2.621  0.2233 -0.3557 -0.0956
 1740W        W17814   4.624   3.143  14.260  0.0717 -0.4048  0.0452
 1741W        W17815   9.823   4.397   3.985  0.0258 -0.2337  0.0257
 1742W        W17816  10.887  15.675  15.931  0.1054  0.0793 -0.0480
 1743W        W17817   9.375  10.838   2.199  0.2565  0.1501  0.1855
 1744W        W17818   4.951   2.390   5.429  0.0636  0.1433  0.0603
 1745W        W17819   8.098  14.819   3.127  0.0869  0.1727 -0.2172
 1746W        W17820  13.403  14.636  12.777 -0.0246  0.0038 -0.0068
 1747W        W17821  12.183  16.437  13.946  0.2442 -0.1120  0.1366
 1748W        W17822  10.721  12.808  11.655  0.3188 -0.2256  0.0606
 1749W        W17823  15.758  17.722  11.891 -0.0140  0.2620  0.1072
 1750W        W17824  16.399   8.743   2.198 -0.1023  0.3499 -0.3383
 1751W        W17825  15.059  12.790   5.480 -0.0441  0.1592  0.1020
 1752W        W17826  15.954  14.098  15.831  0.0916  0.2082 -0.1668
 1753W        W17827   0.546   4.655  16.675  0.1972 -0.0496  0.1741
 1754W        W17828   6.482   1.349   0.030  0.1773  0.2379 -0.0004
 1755W        W17829   4.931   0.157  11.492 -0.0154 -0.2677  0.2630
 1756W        W17830   8.012   3.209  14.925  0.0935 -0.0818  0.1202
 1757W        W17831   5.539   5.310  16.269 -0.2932 -0.0398  0.0812
 1758W        W17832   6.026   7.024   3.399 -0.0625 -0.0907  0.1982
 1759W        W17833   3.689  16.000  15.924  0.2744 -0.1784 -0.0980
 1760W        W17834  11.249  13.181   5.080 -0.1297  0.0122 -0.1083
 1761W        W17835   6.146  10.398  12.877 -0.0134 -0.0617 -0.1586
 1762W        W17836   9.436   4.221   2.034 -0.3674  0.2215 -0.0620
 1763W        W17837  14.799  11.296   5.775 -0.0490 -0.0752  0.0346
 1764W        W17838   0.392  10.282  13.320  0.1742 -0.2186  0.0216
 1765W        W17839  11.006   1.082  16.761  0.3636  0.0398  0.2865
 1766W        W17840   7.741  10.834   2.849 -0.0766 -0.4057  0.1908
 1767W        W17841  16.200   5.272  13.761 -0.1107 -0.0346  0.1014
 1768W        W17842   2.304   7.949   3.491  0.1347 -0.1475  0.1722
 1769W        W17843   3.415   0.739  14.863  0.2689 -0.3789  0.0548
 1770W        W17844   6.761  10.892  12.265  0.1626  0.0521  0.1240
 1771W        W17845   9.068   6.743  14.322  0.1001 -0.0277  0.0490
 1772W        W17846   7.664   3.780   0.120 -0.2463 -0.0843 -0.0174
 1773W        W17847   2.862  16.265   1.767  0.0295 -0.1030  0.1739
 1774W        W17848  12.697   8.927   0.674  0.2268 -0.1410  0.0024
 1775W        W17849   4.333   9.812  13.999  0.1612 -0.0915 -0.1386
 1776W        W17850  10.916   7.869  16.803 -0.1625  0.1332  0.0088
 1777W        W17851   6.392  13.721   6.277 -0.2478  0.1539 -0.2073
 1778W        W17852  15.479   0.799  13.006  0.2077  0.0644  0.3646
 1779W        W17853   1.389   0.137  12.026 -0.1288  0.0540 -0.1655
 1780W        W17854   6.685  10.554   5.417  0.1929 -0.1796  0.0541
 1781W        W17855  11.684  17.495  15.639 -0.1083 -0.0696  0.2419
 1782W        W17856   2.526  13.817   2.944  0.0123  0.2497 -0.1760
 1783W        W17857  12.328   9.441  11.745  0.0213  0.1662 -0.0199
 1784W        W17858   2.528   6.409   3.427  0.3874  0.1187  0.0170
 1785W        W17859   3.414   6.247  12.088 -0.3095  0.1139 -0.1615
 1786W        W17860   5.150   9.519  14.695  0.0112 -0.2854  0.1103
 1787W        W17861   6.898   0.835  11.605 -0.0294 -0.0837  0.2065
 1788W        W17862   7.040  14.626   2.226 -0.2079 -0.0131 -0.2284
 1789W        W17863  14.421   6.259   1.626 -0.1034  0.1525 -0.1320
 1790W        W17864  17.553   7.279  16.342 -0.0404 -0.0361  0.2181
 1791W        W17865  17.818  12.263   6.003  0.0042 -0.2695  0.0327
 1792W        W17866   4.116   7.558  16.814 -0.0619  0.1284 -0.0924
 1793W        W17867   2.535   5.902  14.509 -0.1147  0.0344  0.0601
 1794W        W17868  10.819   0.991   3.255 -0.1783  0.1716  0.1608
 1795W        W17869  15.844   0.218   2.613 -0.0518  0.2296  0.1094
 1796W        W17870   7.128   2.550   4.231  0.0415  0.1164 -0.2633
 1797W        W17871  17.432  15.062  15.271  0.0637  0.1987 -0.1972
 1798W        W17872  14.095   1.446  14.653  0.3237  0.4688  0.0290
 1799W        W17873   1.733   2.606   0.361  0.0380 -0.2894 -0.0956
 1800W        W17874  14.757   3.330   3.836  0.1578  0.1662 -0.2808
 1801W        W17875  13.766   3.602   5.085 -0.0164 -0.1875 -0.1368
 1802W        W17876   2.823   8.623   0.556 -0.0514 -0.1622  0.0160
 1803W        W17877   6.430  15.146  10.735  0.3032  0.2748  0.0161
 1804W        W17878  12.194  11.166  16.522 -0.1502 -0.1433 -0.2977
 1805W        W17879   0.454  15.071  12.022  0.1946 -0.0168 -0.0985
 1806W        W17880  12.868  13.126   4.016  0.1630  0.1356  0.1243
 1807W        W17881   8.938   3.927   0.523  0.2088 -0.0181 -0.0762
 1808W        W17882   4.635  15.653  13.634  0.0871 -0.2371 -0.2263
 1809W        W17883   6.080  15.888   3.429  0.3709 -0.1484  0.1521
 1810W        W17884  12.757   2.672  14.421  0.0902  0.0568 -0.1668
 1811W        W17885   1.391   9.019  16.148 -0.0077 -0.3984  0.4328
 1812W        W17886   7.136   4.964  15.887  0.2484  0.0591 -0.0596
 1813W        W17887   2.946   6.017   2.849 -0.1899 -0.2427  0.2686
 1814W        W17888   0.348  15.731   0.454  0.1238 -0.1137  0.1389
 1815W        W17889   1.595   1.872   2.111 -0.1021 -0.2207 -0.0538
 1816W        W17890   7.418  12.764   4.551 -0.2453 -0.3230 -0.0597
 1817W        W17891  11.186  11.224  14.283 -0.1285  0.0080 -0.0488
 1818W        W17892  12.588   7.471   4.553  0.0632  0.0366  0.2370
 1819W        W17893  15.069  12.562  14.495  0.0479  0.3340 -0.0911
 1820W        W17894   6.542   3.711  14.888  0.0546 -0.3032 -0.2146
 1821W        W17895   1.000  12.252   1.547  0.1345 -0.0199  0.0080
 1822W        W17896   3.317  13.253   2.554 -0.1823 -0.0652  0.1714
 1823W        W17897  17.417   6.324  15.669 -0.0011 -0.1063  0.3050
 1824W        W17898   3.761  10.916  15.749  0.1500 -0.0240  0.2980
 1825W        W17899  10.112   4.688  13.283  0.4647  0.2509 -0.0623
 1826W        W17900   8.335  17.258   5.848 -0.1667 -0.2847 -0.0064
 1827W        W17901  10.488  17.084   2.702 -0.0573  0.0801 -0.2149
 1828W        W17902   3.497   3.596  15.024 -0.1011  0.0538 -0.1567
 1829W        W17903   6.537   9.194   6.046 -0.1690 -0.1562  0.1580
 1830W        W17904   3.288  17.134  16.710  0.0091  0.1358  0.0034
 1831W        W17905  13.654  15.228   2.200 -0.2016 -0.3132 -0.0377
 1832W        W17906   1.028  15.796   3.043 -0.0940 -0.0670 -0.1050
 1833W        W17907   1.680  17.295  11.730  0.0809 -0.1885 -0.1870
 1834W        W17908  10.249   8.685   0.140 -0.1580  0.0507 -0.1630
 1835W        W17909   6.112   1.775   3.039 -0.0500  0.2578 -0.0618
 1836W        W17910   4.572  14.764  16.701  0.0922  0.1545  0.2003
 1837W        W17911   5.769  14.727   1.843 -0.0061 -0.0342  0.2395
 1838W        W17912  15.125   5.063   3.100 -0.2975 -0.3053  0.0906
 1839W        W17913  14.516   7.774   3.152 -0.3338  0.1125  0.1197
 1840W        W17914   7.563   7.811   5.418 -0.0604 -0.3094 -0.2346
 1841W        W17915   3.946   8.956  16.067 -0.0286 -0.2615  0.0033
 1842W        W17916  11.056   3.873   3.718 -0.1177  0.1324  0.1682
 1843W        W17917   1.841  11.676  12.074  0.0872  0.4270 -0.0914
 1844W        W17918   7.631  12.241   2.206 -0.1085 -0.3619  0.2316
 1845W        W17919  14.776   5.720   2.386 -0.3269 -0.0851 -0.1231
 1846W        W17920   1.992   7.165   5.459 -0.2917 -0.0680 -0.0716
 1847W        W17921   1.904  10.231  12.539 -0.0261 -0.1659  0.0930
 1848W        W17922   6.633  14.608  16.939  0.3403 -0.2230 -0.1076
 1849W        W17923  15.621   1.887  16.480  0.1352  0.3050 -0.4428
 1850W        W17924   2.588   8.438  14.389  0.0579  0.0648  0.0157
 1851W        W17925  10.130   6.161  15.398 -0.1784  0.3296  0.1062
 1852W        W17926   0.420   2.698   4.886  0.1204  0.1968  0.0760
 1853W        W17927   1.003  13.251  12.082 -0.1331  0.1268 -0.3183
 1854W        W17928  13.758  16.677   2.180 -0.1507 -0.2815  0.0623
 1855W        W17929  15.538   9.050  14.590 -0.2089 -0.1667  0.0336
 1856W        W17930   5.548   6.759   5.390  0.2026 -0.1391  0.0076
 1857W        W17931  13.308   2.668  14.411 -0.1820  0.1546  0.2576
 1858W        W17932   7.818  16.420  11.612 -0.0283 -0.1047 -0.1457
 1859W        W17933   8.114   2.267  14.720  0.1052 -0.1074  0.1460
 1860W        W17934   0.615   8.619  16.548 -0.0835 -0.0657 -0.0688
 1861W        W17935   4.028  14.990  15.124 -0.2780 -0.0372  0.2627
 1862W        W17936   8.311   1.289  11.567  0.2069  0.0704  0.2467
 1863W        W17937   5.570   2.880  15.686 -0.0070  0.0745 -0.0058
 1864W        W17938  10.339   4.458   2.796 -0.2438  0.2258  0.0353
 1865W        W17939  13.146   0.445  15.926 -0.0922 -0.2407  0.2335
 1866W        W17940   7.910   8.612   0.890 -0.1578  0.0190  0.1199
 1867W        W17941   9.948   2.996  15.529 -0.1057  0.0898 -0.2818
 1868W        W17942   9.665   4.171  15.247 -0.1851 -0.2402  0.0060
 1869W        W17943   9.537  13.187  13.540  0.2465  0.3105 -0.4092
 1870W        W17944   8.388   1.824   4.946  0.1934  0.0845 -0.3011
 1871W        W17945   7.133  13.566   0.227 -0.0991  0.2443 -0.2776
 1872W        W17946   7.772   7.487   0.276 -0.0887 -0.0545 -0.0395
 1873W        W17947  15.807  10.393  13.052  0.4318 -0.4311  0.1747
 1874W        W17948   5.181   3.041  16.427  0.2075 -0.0442  0.1163
 1875W        W17949  13.628   6.901   1.170 -0.0700  0.3013  0.0013
 1876W        W17950   7.134  12.733   5.746  0.1551  0.0760 -0.1702
 1877W        W17951  15.633   7.893  13.986  0.3179  0.2398 -0.4511
 1878W        W17952   7.356   8.818  11.409 -0.2616  0.2525 -0.0129
 1879W        W17953  15.784   9.718  15.154 -0.3064  0.1040 -0.0282
 1880W        W17954  16.167  13.120   3.412  0.3929  0.2642 -0.0531
 1881W        W17955  17.023  12.518   0.143 -0.1294 -0.0130 -0.1340
 1882W        W17956   7.198   3.334   0.248  0.0710  0.0524  0.0140
 1883W        W17957   0.324  17.406  15.851  0.2105  0.0622 -0.1435
 1884W        W17958  12.374  14.869  16.184  0.3084  0.0707  0.1386
 1885W        W17959  17.535   8.225   1.383 -0.5068  0.2031  0.1172
 1886W        W17960   9.248  17.468  14.781  0.0273 -0.2151  0.1345
 1887W        W17961   9.894  16.224   1.824  0.0774 -0.0135 -0.0369
 1888W        W17962  15.818   4.639   1.848  0.2668  0.1289  0.0952
 1889W        W17963   0.668   3.180   3.236  0.0009  0.1484 -0.1548
 1890W        W17964   6.601   0.450  15.460  0.3226  0.0738 -0.1621
 1891W        W17965  17.799   2.684   0.546  0.1501  0.0570  0.2047
 1892W        W17966  11.798   0.578  12.600 -0.1493 -0.1530  0.0846
 1893W        W17967  12.558   6.911   0.914 -0.2427  0.2037 -0.0129
 1894W        W17968  10.352   4.315   0.269 -0.0841 -0.1463 -0.3879
 1895W        W17969  14.411   1.098  14.148 -0.0160 -0.1560 -0.3090
 1896W        W17970   1.028  14.225  12.892 -0.0282  0.0775 -0.1469
 1897W        W17971  11.794   6.586   5.560  0.0636  0.0869 -0.1507
 1898W        W17972   4.116   4.556  15.940  0.0330  0.0647 -0.1681
 1899W        W17973  12.701   2.160  11.929 -0.1999  0.2806 -0.1166
 1900W        W17974   5.461   4.898  12.723  0.2378 -0.0188 -0.0187
 1901W        W17975  14.629  16.902   0.018  0.0165  0.2504  0.1934
 1902W        W17976   7.874  17.448  13.650 -0.4304 -0.1971  0.2595
 1903W        W17977   1.841  11.574  13.341 -0.1062  0.2141  0.1651
 1904W        W17978  15.292   3.248  12.212 -0.1126  0.1533 -0.2359
 1905W        W17979   2.684   2.850   2.718 -0.2260  0.2003  0.1574
 1906W        W17980   8.390   6.482  15.423  0.0942  0.3469 -0.2451
 1907W        W17981  14.141   0.864   0.351 -0.2853 -0.2725 -0.0288
 1908W        W17982   9.713   2.087  16.801  0.1129 -0.1409  0.4275
 1909W        W17983  16.261   4.236   4.956 -0.0162  0.1986 -0.0154
 1910W        W17984  12.431   8.911  15.371 -0.2430 -0.2499  0.0611
 1911W        W17985   2.647   9.791   3.546  0.0618 -0.2539  0.1643
 1912W        W17986  16.550  16.281  13.616 -0.1789  0.1205  0.0351
 1913W        W17987   1.237  13.110  16.428  0.0368  0.6085 -0.2167
 1914W        W17988  14.238  17.474   1.911 -0.1125 -0.3851 -0.2293
 1915W        W17989  14.014  11.898  13.998  0.0143  0.0354 -0.0042
 1916W        W17990   5.913   6.025   1.257 -0.2073  0.0724 -0.2489
 1917W        W17991  14.441  10.447   3.089 -0.1157  0.0330  0.0070
 1918W        W17992   0.174   7.447   0.243 -0.0119 -0.1157 -0.3341
 1919W        W17993   5.004   2.288   1.064 -0.3394 -0.1681 -0.1837
 1920W        W17994  10.367  10.688  14.458  0.1349 -0.0605  0.1027
 1921W        W17995   3.541  13.053  15.892  0.2891 -0.3030  0.0323
 1922W        W17996  10.612   7.890   4.204  0.0795  0.3659 -0.1191
 1923W        W17997  14.470   4.450   0.132 -0.0166 -0.2669  0.0489
 1924W        W17998   0.460   1.958  14.740 -0.0272  0.1815  0.0162
 1925W        W17999  14.183   5.307  15.358  0.1112 -0.0943 -0.0004
 1926W        W18000  15.692   8.813   5.283  0.5268  0.0156 -0.1272
 1927W        W18001   4.677  12.121   4.431 -0.3552 -0.3286  0.1967
 1928W        W18002  16.450  15.556   2.239 -0.0076  0.0334  0.0795
 1929W        W18003   1.517  11.194   5.054  0.0913  0.0972 -0.0641
 1930W        W18004   1.027   7.921   0.200 -0.1084  0.3927  0.0616
 1931W        W18005   5.635   6.008   3.862 -0.2011  0.4318 -0.0004
 1932W        W18006  11.577   4.183   1.292  0.1075  0.1329  0.0856
 1933W        W18007  16.593   5.347   4.884 -0.0499 -0.0038  0.2232
 1934W        W18008  16.052  11.474   5.150  0.1342 -0.2340  0.0711
 1935W        W18009  11.322   4.659  13.808  0.1178  0.1481  0.2756
 1936W        W18010  14.307   8.445  11.761 -0.0529  0.1964 -0.0832
 1937W        W18011   4.529   4.627   1.489 -0.0846 -0.1385  0.0283
 1938W        W18012   7.994  15.910  13.196  0.0153  0.0450  0.1733
 1939W        W18013   8.996   9.550   2.602 -0.0695  0.3456  0.2548
 1940W        W18014  11.775  13.512  16.507  0.1220 -0.0898  0.1085
 1941W        W18015  13.569   0.124   0.564  0.1862 -0.1295  0.2571
 1942W        W18016   9.317  12.265  14.864  0.0012 -0.1736  0.2336
 1943W        W18017  13.177  11.194   1.252 -0.0981 -0.0249  0.0425
 1944W        W18018  13.445   2.720   2.549  0.1671 -0.1671 -0.0643
 1945W        W18019   5.899   3.448   2.782 -0.1936 -0.1102 -0.2934
 1946W        W18020   7.745  11.324   4.491 -0.1123 -0.2182  0.1641
 1947W        W18021   7.725  13.140  12.821 -0.1991 -0.0091  0.3373
 1948W        W18022   6.286   8.925   6.373 -0.2983  0.0269 -0.4531
 1949W        W18023  14.919   0.463   0.180 -0.0799  0.2657  0.1775
 1950W        W18024   2.060  11.444   1.840 -0.0433 -0.0079 -0.0992
 1951W        W18025  14.120   5.750   5.347 -0.0399  0.0175  0.0101
 1952W        W18026  17.621  12.794  12.322 -0.0416 -0.2723  0.2978
 1953W        W18027   4.898   9.155  16.604  0.0871 -0.2481 -0.0268
 1954W        W18028   7.248   3.547   5.858  0.1513  0.1803 -0.3613
 1955W        W18029  14.605   0.850  12.056  0.0363 -0.0685 -0.0766
 1956W        W18030  13.502  13.462  16.768 -0.0216  0.2391 -0.0513
 1957W        W18031  10.445   3.766   0.470  0.0692 -0.2295 -0.2176
 1958W        W18032  16.468   1.560  16.682 -0.0404  0.0340  0.1578
 1959W        W18033   9.682   6.608   1.227 -0.4129  0.1223  0.0384
 1960W        W18034   7.742   3.856  14.381 -0.1051 -0.0121 -0.1521
 1961W        W18035  11.569  13.459  13.241  0.1220  0.0166 -0.2002
 1962W        W18036   6.623  13.964  15.882 -0.1325  0.0623 -0.1562
 1963W        W18037   1.880  13.512   1.046 -0.3501 -0.2575  0.0755
 1964W        W18038  15.719  15.221   0.521 -0.2838 -0.2913 -0.0355
 1965W        W18039  11.054   6.893   5.044  0.2486  0.4163  0.2188
 1966W        W18040   6.657   7.913   0.702 -0.0601  0.2831 -0.1912
 1967W        W18041  13.202   3.918   2.679 -0.1827 -0.1161 -0.1931
 1968W        W18042  11.509   0.006   4.082 -0.4320 -0.1324  0.3011
 1969W        W18043   3.087  15.851   1.021 -0.2290  0.2567  0.1667
 1970W        W18044  13.965  10.411  16.424  0.1425 -0.2035  0.2030
 1971W        W18045  10.127   5.154  14.385  0.2260 -0.0825 -0.3688
 1972W        W18046   9.732   2.529  12.635 -0.0244 -0.0293 -0.0492
 1973W        W18047  16.724   6.397   1.151 -0.0038 -0.1342 -0.2487
 1974W        W18048  10.935  17.597  14.286  0.1042  0.4055  0.0365
 1975W        W18049   7.274   8.716  14.178 -0.2928  0.1839 -0.1245
 1976W        W18050  10.093  11.510  14.464 -0.0263  0.2916 -0.5504
 1977W        W18051   1.993  10.695  12.284 -0.1412 -0.0624 -0.0285
 1978W        W18052  11.091  12.962  14.983 -0.0779 -0.1577 -0.0836
 1979W        W18053   9.635   3.389  16.872  0.1057  0.0187 -0.0149
 1980W        W18054   7.175  10.802   2.819 -0.0047 -0.1046  0.2037
 1981W        W18055   4.029  10.041  16.788 -0.0012  0.3430 -0.0876
 1982W        W18056  14.991  10.976  14.549 -0.0869 -0.0140 -0.2126
 1983W        W18057  16.223   8.855   5.290  0.0031 -0.0854  0.1455
 1984W        W18058   1.437  16.249  12.946  0.0670  0.2255 -0.1495
 1985W        W18059   1.071   7.850   2.856 -0.4578 -0.0750  0.1133
 1986W        W18060   8.485   1.504   1.688  0.1401  0.0553 -0.0310
 1987W        W18061   9.956   0.649  16.349 -0.0964 -0.2468  0.1074
 1988W        W18062   3.400  11.634  12.668 -0.0696  0.0350 -0.0167
 1989W        W18063   7.812  10.888  16.063  0.3579 -0.0725 -0.3238
 1990W        W18064   5.167  12.543  12.826 -0.2339 -0.0347 -0.0659
 1991W        W18065   3.603   6.830   4.820  0.1087 -0.1403  0.0360
 1992W        W18066   9.733   2.566  16.614 -0.1305 -0.0949 -0.0605
 1993W        W18067  12.305   1.619   3.363  0.2358 -0.3660  0.1147
 1994W        W18068  10.218   5.792   4.930  0.0963 -0.2871  0.0648
 1995W        W18069  15.617   5.031   3.920 -0.1246 -0.0705 -0.2054
 1996W        W18070   9.077   3.647   1.990  0.4667 -0.0066  0.1841
 1997W        W18071  10.715   8.562   3.001  0.4346  0.1120 -0.1252
 1998W        W18072  16.351  15.857   1.879 -0.1785 -0.0314  0.1599
 1999W        W18073   4.099  15.218   4.412  0.1117  0.1304  0.1740
 2000W        W18074   2.045  13.433  12.379 -0.2909 -0.3306  0.1212
 2001W        W18075   1.698   9.218  11.216 -0.0332 -0.0747  0.0506
 2002W        W18076  13.120  15.420  14.957 -0.6010  0.0132  0.0492
 2003W        W18077   8.081   2.804   0.566  0.2279 -0.2115  0.4346
 2004W        W18078  10.992   2.619   2.952  0.1467  0.0681 -0.1274
 2005W        W18079  12.276   9.519   4.179  0.2217  0.0845  0.0040
 2006W        W18080  10.033   1.000  13.199 -0.1866 -0.1141 -0.2891
 2007W        W18081   9.454   4.027   0.623  0.1474  0.2700 -0.1988
 2008W        W18082   7.799   3.895   3.700 -0.1074  0.1308  0.0475
 2009W        W18083  13.900  11.997   5.212  0.1760  0.1498 -0.1866
 2010W        W18084   4.835   9.591  16.269 -0.1304 -0.0255 -0.2593
 2011W        W18085  16.849   4.806   3.865 -0.0762  0.0662 -0.1449
 2012W        W18086  11.310   8.002   2.531  0.2169 -0.0093 -0.3322
 2013W        W18087   6.168  11.573  16.440  0.1322 -0.2419 -0.0760
 2014W        W18088   3.983  11.806   5.324 -0.0150 -0.0654 -0.1202
 2015W        W18089   2.616   0.539   0.033  0.0499 -0.1761  0.0050
 2016W        W18090   3.231   0.098  16.909  0.2589 -0.3365  0.1468
 2017W        W18091   2.002   1.415  12.373  0.1232 -0.1105  0.1239
 2018W        W18092  14.092   7.658  12.535  0.0521  0.3297  0.0171
 2019W        W18093  10.623   1.493   0.392  0.3640  0.0799  0.1168
 2020W        W18094   7.855   1.442  13.261 -0.2236  0.1222 -0.2167
 2021W        W18095  11.296  16.128  16.685 -0.1579  0.6028 -0.0846
 2022W        W18096  12.365   4.849   4.674 -0.1033 -0.1171  0.0933
 2023W        W18097   3.488   1.742  15.169 -0.2315  0.0700  0.2633
 2024W        W18098  10.210  16.065  15.474  0.1010 -0.3257 -0.0744
 2025W        W18099   8.060  15.155  14.349 -0.1750  0.0698  0.1596
 2026W        W18100  10.264  15.624   1.181  0.0060  0.4316  0.1454
 2027W        W18101  10.435   9.848   5.508 -0.0127  0.0278  0.2216
 2028W        W18102  12.758   6.715   5.206  0.1799  0.2309 -0.0861
 2029W        W18103   2.058   8.178   3.962 -0.1691  0.1622 -0.2094
 2030W        W18104  15.793  12.102   1.414 -0.0661 -0.2062 -0.0718
 2031W        W18105   8.041  10.868  14.207 -0.0618  0.0142 -0.0071
 2032W        W18106  11.128  16.179   1.270 -0.1476  0.0830  0.0616
 2033W        W18107   3.668  12.817  12.894 -0.0234  0.0845 -0.0483
 2034W        W18108  11.537   5.755   0.691  0.0784 -0.0283  0.1125
 2035W        W18109   1.133   4.493  14.615 -0.3631  0.1589 -0.4344
 2036W        W18110   5.889   9.546  12.508 -0.1681  0.5362  0.1000
 2037W        W18111  13.428   1.996  15.964 -0.1403  0.1865  0.3398
 2038W        W18112   9.061  17.283   2.473 -0.2909 -0.1617 -0.3767
 2039W        W18113   8.156   2.695   1.450  0.2238  0.0735  0.0754
 2040W        W18114  13.267   6.033   1.545 -0.0351  0.1883  0.0059
 2041W        W18115  17.414   8.633   3.710  0.0832  0.2561  0.3035
 2042W        W18116  17.447   8.930  16.383 -0.2114  0.1220  0.2384
 2043W        W18117   9.258  16.184  16.449 -0.2058 -0.1634  0.4242
 2044W        W18118   5.424  15.624   2.865  0.4302 -0.0986 -0.0143
 2045W        W18119   4.792   1.432   0.261 -0.2391 -0.0570 -0.3349
 2046W        W18120  13.955   6.329  11.762  0.3539  0.3516  0.0326
 2047W        W18121  11.007   3.614  11.859  0.2874 -0.0933  0.4672
 2048W        W18122   6.122   9.848   3.770 -0.1952 -0.2698  0.0070
 2049W        W18123  14.300   7.649  15.979 -0.1028 -0.0084  0.0520
 2050W        W18124   7.886   9.131   0.826  0.0696 -0.3115  0.1814
 2051W        W18125  14.373  13.531  14.391  0.0863  0.0354 -0.2568
 2052W        W18126  11.360   5.960   2.838  0.2923 -0.0048 -0.2649
 2053W        W18127  12.256  15.308  15.982 -0.1079  0.0591  0.0633
 2054W        W18128   0.046  16.355   1.774  0.4189  0.1669 -0.0384
 2055W        W18129   3.830   9.335  14.909  0.2933 -0.1781  0.5278
 2056W        W18130  15.105  13.655  14.233  0.4631  0.1974  0.4643
 2057W        W18131   9.591  16.598  16.663 -0.2769 -0.2347  0.1144
 2058W        W18132  10.085  11.602  11.773  0.2647  0.0931 -0.1775
 2059W        W18133   8.591  13.979   4.687  0.0234  0.1774 -0.0151
 2060W        W18134   3.722   0.059   0.030 -0.2658  0.0774  0.1011
 2061W        W18135   4.182   7.841   4.663  0.2222  0.1544  0.0693
 2062W        W18136  10.430   6.615  14.644  0.1561 -0.2229 -0.0148
 2063W        W18137   6.008  12.512   3.698  0.0325  0.1215  0.0024
 2064W        W18138   2.726   6.253  15.347 -0.0345 -0.0271  0.0545
 2065W        W18139  10.291   4.589  15.596 -0.0018  0.0989  0.0407
 2066W        W18140   7.427  11.694   4.253  0.3369 -0.3217  0.1297
 2067W        W18141  12.703   0.221   0.573  0.1671  0.0833 -0.1269
 2068W        W18142   6.380   7.911   1.133  0.0803 -0.0643 -0.0751
 2069W        W18143   6.757  17.831   4.698  0.1081  0.2246 -0.2076
 2070W        W18144   9.359   2.047  15.958  0.0002 -0.1618 -0.0278
 2071W        W18145  11.935  14.955  13.627  0.3601 -0.2300  0.2190
 2072W        W18146  11.680   1.911  16.229 -0.1276 -0.0676  0.0141
 2073W        W18147   1.415  12.950  14.110 -0.2661  0.2894  0.1976
 2074W        W18148   5.376   2.609  14.747  0.2869 -0.4118  0.1036
 2075W        W18149   7.114  16.874   4.938 -0.0103  0.4660  0.1023
 2076W        W18150   2.199  11.012  11.539 -0.0364  0.2716 -0.1670
 2077W        W18151   4.538  13.419  14.276 -0.0479 -0.2730 -0.1011
 2078W        W18152   5.032   6.483   4.598 -0.1735 -0.1563  0.3238
 2079W        W18153  17.559   7.835  16.184  0.0594  0.1608  0.0619
 2080W        W18154   9.215  12.307  15.806  0.3600  0.0519  0.0453
 2081W        W18155   1.346   0.530  12.317 -0.0468 -0.0622  0.0189
 2082W        W18156   1.613  17.417  13.156 -0.1413 -0.0726  0.1323
 2083W        W18157   6.134   1.256   3.054  0.0953  0.2668 -0.2964
 2084W        W18158   9.879   9.834   2.714  0.2218 -0.0622  0.0903
 2085W        W18159   4.299  10.623  14.614 -0.2249 -0.0580  0.0782
 2086W        W18160  12.434  10.045   0.133 -0.0646 -0.1028  0.3613
 2087W        W18161   1.052  11.145   2.818  0.0738  0.2269 -0.0733
 2088W        W18162   9.477  16.115   5.817 -0.4533  0.3271 -0.2286
 2089W        W18163   0.434  12.708   2.645  0.1266  0.0626  0.3262
 2090W        W18164  14.809   6.207  13.753  0.3639  0.2281  0.1372
 2091W        W18165  17.740  17.097   4.504 -0.3159 -0.1842 -0.1494
 2092W        W18166  12.262   7.833   3.758 -0.1559  0.0306  0.2117
 2093W        W18167  13.956   3.965  11.647  0.0543  0.1230 -0.0194
 2094W        W18168   6.475  16.718  14.735  0.2218 -0.0750 -0.0599
 2095W        W18169   1.444  12.560  13.682  0.0991  0.2052 -0.1217
 2096W        W18170   1.798   9.730   4.130 -0.2398  0.0431  0.2894
 2097W        W18171  13.951   3.092   2.421  0.1388 -0.3730 -0.1208
 2098W        W18172  10.724  16.034   1.613 -0.0453  0.1942 -0.2373
 2099W        W18173   8.929  12.492  11.886  0.2472 -0.3375  0.0748
 2100W        W18174   9.464   7.213   1.744  0.0550  0.1286  0.0367
 2101W        W18175   8.365  17.570  15.105 -0.0658 -0.3158 -0.5171
 2102W        W18176  12.639   3.874   4.640  0.0684  0.3993  0.0442
 2103W        W18177   6.793   2.444  16.656 -0.0349  0.1619 -0.1827
 2104W        W18178   1.736   7.377   4.371 -0.1232 -0.2376 -0.2557
 2105W        W18179   4.867   2.615  15.405 -0.2124 -0.1292 -0.3155
 2106W        W18180   4.019  14.413  16.027 -0.4335 -0.1645  0.0444
 2107W        W18181  16.966   0.886   4.221  0.0158 -0.2581  0.0725
 2108W        W18182  16.409  12.721   3.206 -0.1682  0.1323 -0.1407
 2109W        W18183   3.712  16.879  15.516 -0.1240  0.0519  0.0389
 2110W        W18184   5.042   7.199  16.357  0.0967  0.3463 -0.3708
 2111W        W18185  15.833   5.094   0.898  0.3072  0.0074 -0.1477
 2112W        W18186  11.719   9.835   3.015  0.2723 -0.2215 -0.3502
 2113W        W18187  11.495  10.031  13.772 -0.0417 -0.0785  0.0511
 2114W        W18188   5.001  16.257  12.291 -0.0584 -0.0446 -0.1109
 2115W        W18189   0.496   9.573  13.591  0.3847 -0.1782 -0.3794
 2116W        W18190  13.686   6.715   2.161  0.0482 -0.2680  0.1646
 2117W        W18191  15.803   5.674  14.442 -0.0851 -0.0354  0.0074
 2118W        W18192   2.531  12.372  14.474  0.0583 -0.1310  0.1849
 2119W        W18193   3.071   2.831   3.025  0.0352  0.3367  0.1551
 2120W        W18194   6.977   4.333  13.864 -0.2160  0.0318 -0.1202
 2121W        W18195   9.910  12.921   0.194  0.0985 -0.1111  0.2290
 2122W        W18196   1.639   0.889   2.007  0.1624  0.0199 -0.1913
 2123W        W18197  17.466   1.555  15.677  0.2820 -0.0282  0.1217
 2124W        W18198   3.701   0.217  15.379 -0.1020  0.2250  0.2832
 2125W        W18199   6.983   7.915   3.013  0.0299 -0.2175 -0.0644
 2126W        W18200   3.614   8.473  15.385 -0.2265 -0.2485  0.1847
 2127W        W18201  11.896  10.353  13.510  0.1885 -0.2434 -0.0120
 2128W        W18202  17.124   7.439   4.717 -0.1069 -0.2625  0.0626
 2129W        W18203  13.945   3.299  12.413  0.0177 -0.1019 -0.2115
 2130W        W18204   0.675   7.885   1.567  0.1123  0.1015 -0.1499
 2131W        W18205   5.136   7.147  15.870  0.1093  0.0934 -0.1706
 2132W        W18206   8.121   9.180   1.327 -0.0755  0.0309  0.0510
 2133W        W18207   2.141   3.777  14.977 -0.0870  0.0892  0.2979
 2134W        W18208   8.787   4.403   2.129 -0.0782  0.0398  0.0801
 2135W        W18209   3.769   2.025  15.988 -0.0371  0.2245  0.0304
 2136W        W18210  16.160  13.208  12.741 -0.0271 -0.2993 -0.1159
 2137W        W18211   3.421   1.669   3.536  0.3489 -0.0517  0.0227
 2138W        W18212   0.226  14.607   2.558  0.0838  0.1102 -0.0019
 2139W        W18213   2.410   7.893   0.339  0.2886 -0.2122  0.1041
 2140W        W18214   0.849  12.688   0.777 -0.0169 -0.1663  0.0978
 2141W        W18215   1.549   0.261  16.294 -0.3151  0.1555 -0.0767
 2142W        W18216  15.161  16.643  16.339  0.0398 -0.2253 -0.0254
 2143W        W18217   2.367   5.087   3.475 -0.1185  0.1299  0.1065
 2144W        W18218   0.069  16.528  13.839  0.1414  0.1387  0.2190
 2145W        W18219   4.709   5.448   5.123 -0.1512 -0.1815  0.3022
 2146W        W18220  17.198  16.711   2.209 -0.3020 -0.2038  0.1047
 2147W        W18221  11.272  17.828  16.239 -0.0895 -0.1246 -0.0769
 2148W        W18222  14.421  11.198  16.873 -0.1261 -0.1463  0.1046
 2149W        W18223   3.576  17.175  12.643 -0.0529  0.2918 -0.0566
 2150W        W18224   2.886  17.407  15.602  0.0537  0.0510  0.0644
 2151W        W18225   3.917  17.015  12.195 -0.0945 -0.1892  0.1928
 2152W        W18226   5.154   1.843   5.867  0.0773 -0.0363 -0.0829
 2153W        W18227   1.944   0.711   0.395 -0.1869  0.1640 -0.2619
 2154W        W18228  17.735   1.531   4.975  0.3705 -0.1334 -0.0399
 2155W        W18229   3.996   2.239  14.467 -0.0878  0.3413 -0.2853
 2156W        W18230  13.901  17.373   5.737 -0.0494  0.1669  0.0251
 2157W        W18231  14.532  15.210   2.586  0.0225  0.1295 -0.0701
 2158W        W18232   5.814   4.585  15.873 -0.1918  0.1583 -0.3336
 2159W        W18233   5.103  17.794   0.556 -0.1680 -0.0517 -0.1621
 2160W        W18234  13.201   2.198  13.237 -0.0635 -0.0607 -0.2372
 2161W        W18235  15.556   7.726   2.900  0.0914 -0.0242 -0.3158
 2162W        W18236  14.453   8.161  14.357 -0.0128  0.3429 -0.1424
 2163W        W18237  16.656   7.372   0.488  0.0010 -0.0122  0.0051
 2164W        W18238  13.181   5.012   4.858 -0.1923 -0.1102  0.1168
 2165W        W18239   7.969   8.812  12.025 -0.0038  0.2765 -0.1941
 2166W        W18240  16.646   9.902  14.206 -0.0123 -0.0325  0.1523
 2167W        W18241   8.958  14.776   6.416 -0.1914  0.1806 -0.0426
 2168W        W18242  12.875   1.127  11.921 -0.0132  0.3186  0.2322
 2169W        W18243   3.967  17.007   1.330 -0.0483 -0.2614  0.0864
 2170W        W18244   4.861   0.362  11.964  0.2413  0.2985  0.0887
 2171W        W18245  17.378  11.316  13.335  0.0009 -0.1541 -0.1188
 2172W        W18246   6.312   3.002   0.514  0.1775  0.3792  0.0295
 2173W        W18247   4.636   9.657   3.179 -0.0323 -0.2015  0.3001
 2174W        W18248   7.456   1.442   4.589  0.0701  0.0516  0.0624
 2175W        W18249  11.812  15.900   0.524 -0.0546  0.0850  0.0139
 2176W        W18250   2.682   5.349   3.218  0.1862  0.2470 -0.2132
 2177W        W18251  17.082  13.540  14.417 -0.0525 -0.1156  0.0770
 2178W        W18252   9.208   5.683  14.383  0.3454  0.0024 -0.2730
 2179W        W18253  16.091  17.464  15.491  0.2074 -0.1933  0.0834
 2180W        W18254   3.303  10.859  15.405 -0.1783 -0.4389  0.2075
 2181W        W18255   3.469  15.684   2.226 -0.1646 -0.0713  0.0415
 2182W        W18256   5.559  12.597  14.774  0.0008 -0.0639  0.0800
 2183W        W18257   6.350  14.882  15.433  0.1320 -0.1563  0.3558
 2184W        W18258  10.902   5.066  15.099 -0.0309 -0.0004 -0.4413
 2185W        W18259   4.747   0.899  12.743 -0.3477 -0.2394 -0.1054
 2186W        W18260  11.730  17.800  16.519  0.1247  0.1151  0.1980
 2187W        W18261  13.654   6.325  13.996  0.1152 -0.1676 -0.1592
 2188W        W18262   0.001   5.697  15.163  0.1386 -0.0746  0.3909
 2189W        W18263   5.603   2.211  14.910  0.0126  0.1579  0.0973
 2190W        W18264   8.089  12.331  12.809  0.0160  0.2681  0.2504
 2191W        W18265   8.446  13.692   5.057  0.2261  0.0075 -0.0909
 2192W        W18266  12.600  14.587   0.692 -0.0316  0.0047  0.0441
 2193W        W18267  15.124  12.836   2.940  0.2121 -0.0137  0.0585
 2194W        W18268  10.931   9.966  13.936 -0.2142 -0.0819 -0.1202
 2195W        W18269  14.040  15.665   0.959  0.2247  0.2596  0.1720
 2196W        W18270   9.173  10.697   6.322 -0.2084 -0.0314 -0.3467
 2197W        W18271   8.628   0.025  12.932 -0.1974 -0.1320 -0.1591
 2198W        W18272   1.008  12.385   4.350 -0.2138 -0.1531 -0.2384
 2199W        W18273   2.058  16.487  14.378 -0.0923 -0.2743  0.3746
 2200W        W18274  12.954   3.583   2.984  0.0518  0.0941 -0.1288
 2201W        W18275  15.952   1.177   6.476 -0.1734 -0.1335  0.1894
 2202W        W18276   9.765  13.539   4.331  0.0993 -0.0489  0.0649
 2203W        W18277  15.719   9.711  11.622 -0.0471  0.3765 -0.0172
 2204W        W18278  10.924   3.896  13.961 -0.0877  0.2781  0.0201
 2205W        W18279   0.420  16.737   0.676  0.2346  0.2488 -0.0491
 2206W        W18280   4.153  15.938  11.962 -0.0993  0.3303  0.0971
 2207W        W18281   5.106   4.047  12.095  0.2111  0.1343 -0.2712
 2208W        W18282   8.751   7.074   1.108  0.0843  0.1887  0.1093
 2209W        W18283   3.004   5.666   4.529 -0.1413  0.2366  0.2356
 2210W        W18284  17.715   0.828   3.754  0.2703 -0.2138  0.0457
 2211W        W18285   8.227   1.398  15.844  0.0463 -0.0486  0.2219
 2212W        W18286  10.066  16.383  12.399  0.3048 -0.3380  0.0942
 2213W        W18287  10.354   2.042  16.258 -0.3483  0.1917 -0.1052
 2214W        W18288   3.913   7.646   5.439  0.0817 -0.1721  0.3862
 2215W        W18289  17.791  17.528  16.552 -0.0560  0.2624 -0.0932
 2216W        W18290   5.311  10.361   0.831 -0.2924 -0.0908  0.0205
 2217W        W18291   0.591  11.518   1.364  0.0005  0.0447  0.0957
 2218W        W18292  15.502  16.517   1.560 -0.0027  0.1290 -0.0959
 2219W        W18293  10.018  13.240  14.237 -0.1653  0.0213 -0.0790
 2220W        W18294   9.696  15.872  13.337  0.0708  0.0458  0.2802
 2221W        W18295   6.786   5.795  16.669 -0.0002 -0.0595  0.0229
 2222W        W18296   2.818   3.232   5.055 -0.2626  0.1281 -0.2388
 2223W        W18297  11.026   4.654   3.200  0.0399  0.2293  0.4768
 2224W        W18298  13.950  11.936  15.088 -0.5184 -0.0659  0.1316
 2225W        W18299   7.890  13.913  14.887 -0.3379 -0.1672  0.0362
 2226W        W18300   9.264  13.003  15.286 -0.2904 -0.0139 -0.2946
 2227W        W18301  10.227  13.939   2.651  0.1580 -0.0423  0.0754
 2228W        W18302   3.863   0.378   4.761 -0.1297  0.0740 -0.1477
 2229W        W18303  16.567   4.815   2.260 -0.0093  0.0758 -0.1725
 2230W        W18304  13.639   3.554  16.218 -0.1811  0.2141  0.0763
 2231W        W18305   2.803   6.831   4.353  0.1188 -0.0545 -0.2730
 2232W        W18306   0.535   6.898   2.526  0.1050  0.1162  0.2227
 2233W        W18307  11.479   0.869  11.937  0.1738  0.0884  0.2569
 2234W        W18308   6.684  14.041   3.595 -0.1507 -0.3555 -0.2301
 2235W        W18309   9.960   3.829  13.774  0.2119  0.2585  0.1558
 2236W        W18310   9.007   3.842  11.702  0.0739  0.0132 -0.3035
 2237W        W18311  16.585  15.962  16.738  0.1267 -0.0276 -0.4177
 2238W        W18312  15.087   0.401   3.584 -0.3077 -0.2020 -0.1884
 2239W        W18313   4.777   3.005  11.847  0.2856  0.2995  0.0440
 2240W        W18314  14.927   8.267   0.470  0.2019 -0.0451 -0.0313
 2241W        W18315   7.468  12.887   5.394 -0.0656 -0.3079 -0.0414
 2242W        W18316   4.352   5.920   1.911  0.0154 -0.1038 -0.1264
 2243W        W18317  11.616   9.049   1.838  0.3001  0.1334  0.0518
 2244W        W18318  10.170  13.329   1.926 -0.0084 -0.0970 -0.0680
 2245W        W18319   4.883   7.160   2.710 -0.0479  0.1938 -0.1751
 2246W        W18320   4.265   5.027  16.029 -0.1542 -0.0788  0.0961
 2247W        W18321   8.640  15.613  12.546  0.1156 -0.0952 -0.1197
 2248W        W18322  11.070   7.875  12.316  0.1230  0.0849 -0.0676
 2249W        W18323   6.599   9.155  15.171 -0.0344  0.1831 -0.2877
 2250W        W18324  13.753   8.140   5.127 -0.0656 -0.0041  0.2748
 2251W        W18325  17.137   6.660   1.263 -0.2799  0.0540  0.0907
 2252W        W18326   4.812   2.708  16.599 -0.2120 -0.2827  0.0294
 2253W        W18327   8.900   2.961   3.307 -0.0406  0.2361  0.1040
 2254W        W18328  16.126   8.351   4.008 -0.1860 -0.0239  0.1394
 2255W        W18329   7.003   6.130  13.324 -0.0310 -0.0483  0.1550
 2256W        W18330   8.786  14.264  11.819  0.0455 -0.0503  0.2370
 2257W        W18331   9.871   9.488  15.653 -0.1481  0.0614  0.3957
 2258W        W18332   5.996  16.101   3.906  0.0624  0.2125  0.1241
 2259W        W18333   5.119  11.848   3.701  0.0545  0.0673 -0.0299
 2260W        W18334  10.948  12.202   2.077  0.0208  0.3170  0.1242
 2261W        W18335   6.986   8.402   2.247 -0.3080  0.0759 -0.3507
 2262W        W18336  14.982  10.441  15.812  0.1808 -0.0691  0.0341
 2263W        W18337  15.299  12.448  15.584 -0.2072  0.2531  0.0226
 2264W        W18338  12.875   0.988   4.255 -0.3003 -0.0936 -0.3134
 2265W        W18339  12.141  13.424   4.548 -0.0394  0.1913  0.1412
 2266W        W18340  14.146  15.344  13.759 -0.0192 -0.0474  0.1102
 2267W        W18341   2.319   5.771   5.708  0.1402  0.0362 -0.4776
 2268W        W18342   2.185  11.126  12.569  0.1260 -0.1210  0.2953
 2269W        W18343   5.995  14.683  13.943  0.3016  0.0673  0.1171
 2270W        W18344   6.610  10.355   4.976 -0.1324  0.1207  0.0916
 2271W        W18345  13.611   5.829  11.515 -0.1160 -0.0464 -0.3921
 2272W        W18346  12.901   6.332  15.412  0.0179 -0.0468  0.2706
 2273W        W18347   6.819  14.648  15.296 -0.0383 -0.0393  0.1507
 2274W        W18348   0.837  13.189   1.105 -0.0599  0.1891 -0.2465
 2275W        W18349   8.504  11.411  16.010  0.1478  0.1363 -0.3205
 2276W        W18350   3.735  12.739   0.097 -0.0283  0.0387  0.0442
 2277W        W18351  12.315   7.710  15.065 -0.0759 -0.2858 -0.1472
 2278W        W18352   6.848   4.909   3.905 -0.2379  0.1250  0.0872
 2279W        W18353  14.482  14.837   3.698  0.0086 -0.2273 -0.2268
 2280W        W18354   1.899  16.729   3.644  0.1397 -0.0604 -0.0929
 2281W        W18355   8.411   4.758  13.375 -0.0663 -0.0598  0.0042
 2282W        W18356   3.233  10.349   4.908  0.1565  0.2282 -0.2203
 2283W        W18357   8.298   1.000   0.567  0.0429  0.2109 -0.3450
 2284W        W18358   4.510  16.768   2.067 -0.0366  0.0369  0.2484
 2285W        W18359   9.284  12.327  12.561 -0.2476  0.1890  0.1385
 2286W        W18360   1.827  16.337  15.683  0.1379  0.0930  0.0510
 2287W        W18361  16.590  16.378   4.979  0.2654  0.1844  0.0671
 2288W        W18362  17.157   6.026   4.191 -0.1682  0.2808  0.5243
 2289W        W18363   1.703   2.741  13.151  0.1457  0.0153 -0.2023
 2290W        W18364  15.947   4.981   0.217 -0.1360  0.0216 -0.0938
 2291W        W18365   3.576  15.585  12.765 -0.1098 -0.0976  0.0929
 2292W        W18366   9.253  12.283   1.303  0.2745 -0.1274  0.0282
 2293W        W18367   3.725   8.950   3.886  0.1912 -0.1618 -0.0231
 2294W        W18368  10.810  10.482  13.743  0.0257  0.1620 -0.0984
 2295W        W18369   4.891   4.641  13.245  0.0449  0.4875 -0.1332
 2296W        W18370   2.951   7.791   6.389  0.1710 -0.1728  0.0383
 2297W        W18371   3.720  16.750  14.158  0.1663 -0.0316  0.0733
 2298W        W18372   8.872   7.539  13.957 -0.0223  0.0324 -0.0485
 2299W        W18373   2.141   1.886  15.917 -0.0600 -0.1411 -0.0126
 2300W        W18374  11.972  11.945   4.252 -0.0651 -0.0430 -0.1449
 2301W        W18375  10.989  16.710  14.520  0.1600  0.1349  0.2836
 2302W        W18376   9.345   1.709   2.734  0.1781 -0.2457  0.2425
 2303W        W18377  11.042   2.608   4.119  0.1673 -0.2346 -0.1618
 2304W        W18378  15.418  10.158   2.231 -0.0456 -0.3622  0.0600
 2305W        W18379  12.245   3.572   4.790 -0.1456 -0.0002 -0.1181
 2306W        W18380   6.631   1.874   0.312  0.0053  0.3602  0.0576
 2307W        W18381   2.050  14.059  14.814 -0.0206  0.1578 -0.0407
 2308W        W18382  11.501  12.454  12.770  0.2745 -0.1036  0.0929
 2309W        W18383   4.739   9.953   3.690  0.2920 -0.0324 -0.0733
 2310W        W18384   0.040  15.931   0.015 -0.1355  0.0194  0.1080
 2311W        W18385  15.048  16.508  14.376 -0.0577  0.0834  0.0868
 2312W        W18386  16.575   9.529  16.124  0.2465  0.1004  0.0836
 2313W        W18387   7.534   6.197   0.601 -0.1155 -0.1526  0.2702
 2314W        W18388  11.872   6.434   1.741  0.0378 -0.2178 -0.0614
 2315W        W18389  17.493  16.944   2.518 -0.1677 -0.0089  0.1123
 2316W        W18390   7.141  16.302   1.290  0.3661  0.1188  0.1259
 2317W        W18391  14.396   8.097   1.960  0.1391  0.0144 -0.1336
 2318W        W18392  13.815  17.433  15.870 -0.2116 -0.1866 -0.0727
 2319W        W18393  17.413   1.907  13.043 -0.1293 -0.0818 -0.1262
 2320W        W18394   2.004   7.187  16.872 -0.2323  0.0090  0.1031
 2321W        W18395  16.586   5.547  13.915 -0.1166 -0.0215  0.0380
 2322W        W18396  13.266   4.853   3.396  0.0692 -0.2588  0.2504
 2323W        W18397  13.828   6.347   1.638 -0.0831  0.0563 -0.0992
 2324W        W18398   2.008   5.271   1.863  0.4518 -0.2513  0.5021
 2325W        W18399   7.963   4.244   5.194  0.2730 -0.2123 -0.1892
 2326W        W18400   2.853   7.534  14.917  0.0806  0.2718  0.1288
 2327W        W18401  16.418  10.328   0.672 -0.2106 -0.0611  0.2700
 2328W        W18402   9.258   6.013  12.236 -0.1630  0.0033 -0.0821
 2329W        W18403   7.096   5.691  12.618  0.1938 -0.1151  0.1706
 2330W        W18404   3.688   2.425  13.210  0.0578  0.0643  0.0601
 2331W        W18405   8.347  12.860   2.216 -0.1107  0.1845 -0.0002
 2332W        W18406   7.224   1.144  14.359 -0.0232 -0.0046 -0.1457
 2333W        W18407   2.186   6.039   1.054  0.0168 -0.0691 -0.1102
 2334W        W18408   1.996  17.770   0.778 -0.1038  0.1846  0.3234
 2335W        W18409   0.284   4.337   0.386  0.0574 -0.1809  0.0545
 2336W        W18410   8.266  11.608   1.807 -0.4035 -0.1772  0.1018
 2337W        W18411  11.810   0.413  16.583 -0.1507  0.0693 -0.2128
 2338W        W18412   8.672   6.557   1.319  0.2830  0.4794  0.0047
 2339W        W18413  16.390   1.943  12.295  0.1777  0.0687  0.1977
 2340W        W18414  10.499   8.470   2.375 -0.1799 -0.0329  0.1234
 2341W        W18415   9.695   5.558   0.642 -0.0323 -0.1386 -0.3901
 2342W        W18416   5.899  13.614  14.100 -0.0432  0.1755  0.0882
 2343W        W18417   5.703  11.843   5.001  0.1644  0.0173 -0.4897
 2344W        W18418   0.545  12.001  16.172 -0.1620  0.0305 -0.0931
 2345W        W18419  10.469  10.725  13.968 -0.4302  0.1419 -0.1580
 2346W        W18420   6.513   1.603  12.578  0.0258  0.1897  0.1719
 2347W        W18421  16.620  14.575  13.378  0.1480 -0.1258  0.2689
 2348W        W18422  17.493  17.802   1.775  0.0581 -0.1441 -0.0025
 2349W        W18423  14.927  11.803  14.073  0.3115  0.2029 -0.1103
 2350W        W18424   2.705  17.796  14.528  0.0506 -0.1704  0.1077
 2351W        W18425   6.121   4.972  16.071 -0.0096  0.3427 -0.3244
 2352W        W18426   8.003  12.252  14.357  0.1765 -0.0042 -0.0047
 2353W        W18427   6.168   3.620  15.196  0.1866  0.1348 -0.2821
 2354W        W18428  17.299  10.013  12.841 -0.1118 -0.1338 -0.1479
 2355W        W18429   7.374  13.186  14.495 -0.2309  0.0905 -0.0896
 2356W        W18430  11.432   7.249  14.090  0.0592  0.1411 -0.0857
 2357W        W18431   2.746  15.865  16.371  0.1646  0.1417 -0.5053
 2358W        W18432   6.608   1.992  13.997 -0.0433  0.0403  0.2408
 2359W        W18433   9.844  14.377  12.098  0.1913  0.0552 -0.2734
 2360W        W18434   2.275   0.123  14.692  0.5556 -0.0510 -0.3181
 2361W        W18435  13.116   4.166   2.278  0.0185  0.0981 -0.0795
 2362W        W18436  16.632  13.142   4.308 -0.0248 -0.1047 -0.0488
 2363W        W18437   3.221   5.402  14.858 -0.0052  0.3444  0.1845
 2364W        W18438  16.543   3.054  14.089  0.0459  0.0409  0.0445
 2365W        W18439  14.222  10.151  15.199 -0.0707  0.1765  0.0451
 2366W        W18440  13.108   9.105   0.539  0.0232  0.0805  0.0797
 2367W        W18441  12.231   0.456   0.639 -0.0844 -0.1095  0.2083
 2368W        W18442   5.884  12.440   2.004  0.0451 -0.2061 -0.1515
 2369W        W18443   9.187   0.430  14.109 -0.1829 -0.1179 -0.4334
 2370W        W18444   6.770   4.602   5.487  0.2044  0.0728 -0.0505
 2371W        W18445   6.558   7.542  15.477 -0.2804  0.1520  0.1229
 2372W        W18446  13.443   0.167  14.440 -0.2254  0.2860 -0.2176
 2373W        W18447  17.082  17.033   5.316 -0.1504 -0.1541  0.1447
 2374W        W18448   7.813   1.078  11.338  0.1069 -0.0527 -0.0920
 2375W        W18449   9.972  11.214  15.102 -0.1634  0.2171 -0.0455
 2376W        W18450  15.538  17.362  12.169 -0.0366  0.1997  0.4986
 2377W        W18451  10.853   3.327  12.463 -0.0514  0.2368  0.1737
 2378W        W18452   5.066   0.259   0.048  0.0416 -0.1797  0.2169
 2379W        W18453  13.671  10.492   0.936  0.0272 -0.0158  0.1316
 2380W        W18454   7.166   8.538   0.378 -0.3602 -0.1771 -0.0148
 2381W        W18455   5.125   3.444  15.134  0.1764 -0.0437  0.1764
 2382W        W18456  17.092   8.624   0.767 -0.3139 -0.0088  0.2916
 2383W        W18457  13.232   1.765   2.883 -0.1883 -0.1672  0.0946
 2384W        W18458   4.884   3.944   4.887  0.0616 -0.2024 -0.1555
 2385W        W18459   1.675   1.371   2.010 -0.1724  0.0806 -0.0509
 2386W        W18460   2.031   7.602  14.402  0.1162  0.1508  0.0393
 2387W        W18461   4.588  11.900   3.828  0.0213  0.0079  0.1375
 2388W        W18462   7.891   1.093  11.978  0.0577  0.1207  0.0732
 2389W        W18463   0.369   3.773  13.297 -0.2221  0.0681 -0.0645
 2390W        W18464  15.206   8.887   6.087  0.0097  0.0938  0.0054
 2391W        W18465  10.225   1.560  14.022 -0.1669 -0.2739 -0.1774
 2392W        W18466   9.766   0.922   4.077  0.4571 -0.4051  0.1349
 2393W        W18467   9.167  11.251   4.985 -0.2421 -0.2517  0.3735
 2394W        W18468  11.460   8.229   5.058  0.3356 -0.2489 -0.0225
 2395W        W18469   7.960  10.576  16.645  0.1903  0.0532  0.1239
 2396W        W18470  15.304   6.106   1.706  0.2036 -0.0955  0.0703
 2397W        W18471  16.900  10.582   1.431 -0.0225  0.1309  0.1021
 2398W        W18472   3.838  11.438   0.658 -0.0637 -0.0097  0.0106
 2399W        W18473  17.303   0.048   2.234  0.0061  0.5038 -0.1947
 2400W        W18474   4.816  11.964   1.249  0.0283  0.2883 -0.0574
 2401W        W18475   0.098   8.020  12.412 -0.0726 -0.2524 -0.1152
 2402W        W18476  14.412   6.987   2.139  0.0052 -0.2818  0.0140
 2403W        W18477   7.400  12.433   2.634 -0.0044 -0.0136 -0.0375
 2404W        W18478   8.383   5.857   0.880  0.1341 -0.0435 -0.1091
 2405W        W18479   8.100  15.993  14.219  0.0860  0.2554 -0.0091
 2406W        W18480   2.890  13.971  15.373 -0.0764  0.3375 -0.1143
 2407W        W18481   2.699   3.502  15.033 -0.0190 -0.1027  0.1988
 2408W        W18482  14.036  15.016   4.368 -0.3400 -0.0311  0.2954
 2409W        W18483  17.444   8.166   1.874  0.1280  0.0059  0.2954
 2410W        W18484  12.912  13.912   2.900 -0.0282 -0.0117  0.2955
 2411W        W18485  12.737   3.513   1.167 -0.3447 -0.1722 -0.0250
 2412W        W18486   1.801  17.691  11.497 -0.1359  0.2005 -0.2213
 2413W        W18487  11.662   7.856  15.068 -0.0424 -0.0001  0.1716
 2414W        W18488  17.169  12.349   4.327 -0.1276 -0.4453 -0.1235
 2415W        W18489  15.285  14.514   5.360  0.1822  0.0063 -0.3922
 2416W        W18490   2.830  15.155  14.062  0.0867 -0.1295 -0.1600
 2417W        W18491   8.828  11.226   2.756  0.4956  0.1157 -0.0693
 2418W        W18492   7.837   6.814  11.798 -0.2016 -0.1880  0.0289
 2419W        W18493   6.834  14.335   6.301 -0.0350  0.1569 -0.2875
 2420W        W18494   3.490  13.247  16.786  0.1858 -0.0544 -0.1085
 2421W        W18495  10.443   6.969   6.573 -0.1682 -0.0422 -0.1103
 2422W        W18496  15.344   9.875   0.436  0.1305 -0.2599 -0.4838
 2423W        W18497  10.611  11.470  12.333 -0.0432  0.0998  0.2040
 2424W        W18498   9.854  12.472  15.527  0.0319  0.0026 -0.0281
 2425W        W18499   6.472  15.149  11.581  0.2661 -0.0454  0.1282
 2426W        W18500  10.503   6.410  15.700 -0.0695 -0.1760 -0.2245
 2427W        W18501  17.238   2.452   1.905  0.1393 -0.2657  0.0773
 2428W        W18502  10.820   5.039   5.579  0.2708 -0.2586  0.1655
 2429W        W18503   4.497   7.927   2.937  0.3486 -0.0386  0.0834
 2430W        W18504   5.093   3.086   3.971  0.2338  0.0170 -0.0502
 2431W        W18505   8.247  10.755   2.949  0.1236  0.1016 -0.2186
 2432W        W18506  10.521  16.061   2.579  0.0231  0.0382  0.1587
 2433W        W18507   6.707  10.548   4.084 -0.1034 -0.0841  0.0467
 2434W        W18508  16.831   2.068   1.160  0.0621 -0.2454 -0.0036
 2435W        W18509   4.303  11.175   2.903  0.4002 -0.0089 -0.2699
 2436W        W18510  10.577  15.990   0.017  0.3783 -0.1460 -0.2844
 2437W        W18511   1.315  14.847  12.450 -0.0882  0.1267  0.2128
 2438W        W18512   3.526  17.378   1.573 -0.0422  0.0830  0.0599
 2439W        W18513  13.926   7.144  16.702 -0.0308  0.1834  0.1069
 2440W        W18514   9.204  10.637   5.370  0.3434  0.0918  0.1773
 2441W        W18515   5.735   2.928   2.674  0.2321  0.2489 -0.0461
 2442W        W18516  15.314   4.592   2.985  0.0036  0.2595  0.0708
 2443W        W18517  12.087  12.832  15.653 -0.2255  0.0003  0.1868
 2444W        W18518   8.541   9.624   4.716 -0.1915  0.1777  0.0055
 2445W        W18519   8.283  15.644   2.241 -0.2760 -0.4719 -0.1394
 2446W        W18520   2.326   9.094   2.886 -0.1245 -0.0116 -0.0344
 2447W        W18521  12.655   6.280   5.498 -0.0847  0.0136 -0.1359
 2448W        W18522   9.799   2.750   1.656 -0.0533  0.0204  0.2435
 2449W        W18523  10.115   5.771  16.672 -0.1561  0.1159  0.1223
 2450W        W18524   5.826  11.161  13.789 -0.1450  0.0004  0.1022
 2451W        W18525   6.146   8.532  12.559 -0.3217 -0.0586  0.0108
 2452W        W18526  12.837  10.918  14.834  0.0257 -0.0655  0.2425
 2453W        W18527   0.543   3.695   2.564  0.3660 -0.1060 -0.2613
 2454W        W18528   7.532   3.988   3.293  0.0293  0.1226  0.0582
 2455W        W18529   7.241   1.827   2.137 -0.2814 -0.2315  0.0139
 2456W        W18530   0.332   3.308  13.552 -0.1458  0.0818 -0.0163
 2457W        W18531   8.102  13.642  12.196  0.1091  0.0490 -0.3752
 2458W        W18532  15.138  16.956   4.695  0.2368 -0.2834  0.0746
 2459W        W18533   2.295   1.859   0.456 -0.0151 -0.0207  0.1349
 2460W        W18534  13.220   2.583   0.730  0.0389 -0.1112 -0.3608
 2461W        W18535   1.858   0.634   4.760 -0.1471 -0.1846  0.0622
 2462W        W18536  15.540  10.426   0.189  0.0802  0.2170  0.0392
 2463W        W18537   5.568  12.198  11.634  0.0121  0.0732  0.0799
 2464W        W18538   6.391   7.068  14.537 -0.0338  0.0058 -0.2381
 2465W        W18539  14.393   9.838   0.880 -0.1564  0.2001 -0.0713
 2466W        W18540   1.868   3.378   2.544  0.0061 -0.1412 -0.0456
 2467W        W18541   7.261  14.655   6.395  0.0045 -0.1745 -0.0492
 2468W        W18542   8.255  17.286  13.312 -0.1822 -0.2094  0.0217
 2469W        W18543  13.285  17.748  15.483 -0.0827 -0.0245 -0.0840
 2470W        W18544  15.258  12.287   5.237 -0.0485  0.1237  0.1404
 2471W        W18545   9.988   8.255   1.970 -0.0706 -0.0273 -0.3362
 2472W        W18546   8.304  13.770  15.861  0.0851  0.2228  0.0800
 2473W        W18547   7.082  13.956  16.171  0.2210  0.3996  0.1613
 2474W        W18548   2.133  11.196  14.585 -0.2303  0.1309  0.1549
 2475W        W18549  13.320  13.122  12.338  0.0655  0.1339 -0.1650
 2476W        W18550  12.885   7.404   0.687 -0.0421  0.1520  0.0172
 2477W        W18551  14.561  16.379  14.299 -0.0836  0.2173  0.4677
 2478W        W18552   0.372   1.280   1.736  0.1497  0.3257  0.3303
 2479W        W18553  12.384  12.459  13.313 -0.1237  0.2603 -0.1881
 2480W        W18554   0.928  11.097   0.158  0.3039 -0.0922  0.0187
 2481W        W18555  13.236  14.305   0.794 -0.0122  0.0756 -0.0110
 2482W        W18556   0.394   1.593   4.894 -0.1498 -0.1497 -0.2370
 2483W        W18557   2.067   7.286   3.814  0.0101 -0.0881  0.0930
 2484W        W18558  17.023   8.043  16.378 -0.0025 -0.0111 -0.0847
 2485W        W18559  12.023  14.988   0.161 -0.2138  0.0291  0.5382
 2486W        W18560   1.307  17.186  14.579  0.3670  0.2072  0.1172
 2487W        W18561   3.834   6.001  14.931  0.1770 -0.3037  0.2699
 2488W        W18562   8.147   0.283  16.609  0.0255 -0.2550 -0.0542
 2489W        W18563   0.093   1.971   3.221  0.1722 -0.3860 -0.2874
 2490W        W18564  17.696   3.395   1.918  0.3448 -0.0380 -0.2947
 2491W        W18565   1.052  17.599  16.895  0.3792  0.1322 -0.4233
 2492W        W18566  10.973   6.505   6.435 -0.1837 -0.3319  0.2594
 2493W        W18567   5.143   4.575  11.487  0.1421  0.1273 -0.1032
 2494W        W18568   8.815   5.449  13.900  0.1185  0.1376  0.2058
 2495W        W18569   7.781  15.538   0.276  0.3371 -0.4046 -0.2464
 2496W        W18570   8.171  15.730   4.878  0.1695  0.1256 -0.0536
 2497W        W18571   7.147   1.742  12.897 -0.0161  0.1643  0.2053
 2498W        W18572   4.760  11.809   3.385 -0.1001  0.1702  0.1085
 2499W        W18573   9.840  15.970  14.212 -0.2001 -0.1905  0.1831
 2500W        W18574   6.993  17.059  13.083 -0.2324  0.0141  0.0921
 2501W        W18575  15.499  17.677  14.130  0.1426 -0.0086  0.3501
 2502W        W18576   3.231  12.865   0.105 -0.1445  0.2295  0.0901
 2503W        W18577  10.634   7.531  13.823 -0.2568 -0.0138 -0.0098
 2504W        W18578  13.178   6.398   5.390  0.0519  0.0224  0.2643
 2505W        W18579   6.092   0.528  15.752 -0.0375  0.0799 -0.0755
 2506W        W18580   0.369  17.744   3.586 -0.2037 -0.1815  0.0508
 2507W        W18581   0.804  13.085   5.393 -0.0349 -0.1025 -0.1391
 2508W        W18582   7.820  10.788   3.310 -0.1248 -0.2869 -0.2501
 2509W        W18583   2.851  17.234   0.878  0.0105  0.0575  0.0377
 2510W        W18584  14.468   6.344  14.102 -0.1829 -0.3642  0.0691
 2511W        W18585  10.608   0.055  15.296 -0.0048 -0.1755 -0.0606
 2512W        W18586   8.823   4.502   2.607 -0.2295 -0.0973  0.1406
 2513W        W18587  12.481  15.756   3.912 -0.2726  0.1254 -0.0152
 2514W        W18588  10.953  10.386  16.224 -0.4356 -0.0158 -0.1138
 2515W        W18589   1.263  14.554   0.882 -0.0137 -0.1729 -0.1450
 2516W        W18590  16.151   8.409  13.394  0.2017  0.3718 -0.0999
 2517W        W18591  11.278   2.795   0.646 -0.1085  0.4222  0.0014
 2518W        W18592   0.839   3.432  12.566  0.1666 -0.0577  0.1248
 2519W        W18593  12.112   0.547  14.446 -0.0310  0.2881 -0.0672
 2520W        W18594   1.892  13.490  14.902 -0.3788  0.0876 -0.1926
 2521W        W18595   3.657   1.757   5.540  0.0584  0.2514 -0.0750
 2522W        W18596  11.865  15.542  16.776 -0.0127  0.1262 -0.1876
 2523W        W18597  10.599   0.139  14.320 -0.2667 -0.0049  0.0245
 2524W        W18598   8.365  10.835  13.630 -0.0003  0.2670 -0.2798
 2525W        W18599  11.651  16.241  13.251 -0.1569  0.0294  0.0295
 2526W        W18600  14.213  12.885   2.702 -0.0218 -0.1819  0.1609
 2527W        W18601   8.863  10.905  13.795 -0.1009 -0.2744  0.2305
 2528W        W18602  17.319  14.121  12.124  0.1868  0.0698  0.0775
 2529W        W18603   7.332  16.398  15.026 -0.3714  0.2482 -0.2677
 2530W        W18604  16.837  17.395  14.417 -0.1865 -0.1595  0.2344
 2531W        W18605  17.280   4.907   6.134  0.0984 -0.2019  0.2998
 2532W        W18606  10.625  10.726   2.375 -0.0164 -0.1395 -0.3600
 2533W        W18607  13.506  14.168   6.361  0.2291 -0.1352 -0.3018
 2534W        W18608   2.770   9.559   5.093  0.1883  0.1029  0.2266
 2535W        W18609  10.213  11.873   4.407 -0.1162 -0.4570  0.0411
 2536W        W18610  14.404   5.292  16.539 -0.0533 -0.0991 -0.2470
 2537W        W18611  12.705   6.933   2.373  0.1441  0.1240  0.2112
 2538W        W18612   0.733  10.710  16.267 -0.3727 -0.4782 -0.1999
 2539W        W18613   9.550   8.992  16.288  0.2392  0.0404  0.3602
 2540W        W18614   5.766  11.334   0.436  0.1477  0.0278  0.0264
 2541W        W18615   7.018  16.545   5.690  0.1156 -0.2543  0.1963
 2542W        W18616   2.807   4.389   4.030 -0.1619 -0.3548  0.0160
 2543W        W18617   6.245  10.687   4.862 -0.1948  0.2470  0.3275
 2544W        W18618  10.131   7.250   5.049 -0.1076 -0.1287  0.1855
 2545W        W18619   5.466   3.447   3.888 -0.1372 -0.1696 -0.1144
 2546W        W18620   2.856   9.406  15.582  0.3659  0.1557  0.0617
 2547W        W18621   3.919   9.882   0.281 -0.0379 -0.3320 -0.0519
 2548W        W18622   2.828   1.455   4.569  0.0335 -0.0210  0.2210
 2549W        W18623  16.958  16.188  15.872 -0.0065  0.1527 -0.1790
 2550W        W18624   5.364  16.089   3.211 -0.3178 -0.1873  0.0135
 2551W        W18625  10.882  16.805  13.772 -0.4043  0.0429  0.0816
 2552W        W18626   1.706   1.808   0.488 -0.1035 -0.1904  0.0545
 2553W        W18627   9.589   0.223   0.884  0.0098 -0.0390  0.1003
 2554W        W18628   3.068  14.700  15.577  0.0594 -0.0643 -0.2337
 2555W        W18629  16.542   3.084   2.089  0.0657 -0.2295 -0.1753
 2556W        W18630   5.391  10.889   1.712  0.5125  0.0230 -0.0253
 2557W        W18631  10.865   7.485  11.687  0.2722 -0.0740 -0.1317
 2558W        W18632  17.629  12.759  12.857  0.1235  0.0296 -0.2887
 2559W        W18633   1.094  10.345   1.872  0.0575  0.1227  0.0929
 2560W        W18634   2.827   2.521  13.074  0.3665  0.1277 -0.0811
 2561W        W18635   8.091  16.876   3.527  0.4311  0.2281 -0.0612
 2562W        W18636  13.023   0.398   1.947 -0.2207 -0.0026 -0.0009
 2563W        W18637  12.507  10.804   3.065 -0.0079  0.1064 -0.3941
 2564W        W18638  17.650  16.120  15.189 -0.0980  0.2833  0.0805
 2565W        W18639   1.936  14.721   1.599  0.1157 -0.0823 -0.2061
 2566W        W18640  13.998  12.976  16.159 -0.0661  0.1226 -0.6055
 2567W        W18641   7.503  15.542   6.142 -0.1536 -0.0589 -0.0138
 2568W        W18642  10.481  15.746   0.726 -0.3344 -0.0715  0.3263
 2569W        W18643  13.091   5.894  15.003 -0.1236  0.2032  0.0983
 2570W        W18644   1.631   3.913   1.019 -0.2459  0.3809  0.2435
 2571W        W18645   0.294   5.171   0.258  0.0647  0.0745  0.0506
 2572W        W18646   2.254   2.906   0.182  0.2386  0.0214 -0.1815
 2573W        W18647  13.332   4.445   2.648  0.0493  0.1345  0.1977
 2574W        W18648   1.524   3.193   3.844  0.2690 -0.1481  0.1621
 2575W        W18649  12.906   4.101  16.270 -0.2539 -0.1111 -0.1892
 2576W        W18650  15.871  10.070   2.472  0.1844  0.0290 -0.2096
 2577W        W18651  10.404   0.191   3.700 -0.0066  0.1295  0.0568
 2578W        W18652  13.043  14.014   4.830 -0.2365  0.0360  0.1955
 2579W        W18653  12.924   1.441  13.100  0.1059  0.0500  0.0752
 2580W        W18654  16.329   3.051   3.964 -0.0559  0.2559 -0.2758
 2581W        W18655  14.760  17.205   4.925  0.0302 -0.0633 -0.0076
 2582W        W18656   4.147   7.154  15.111  0.0631  0.0681 -0.0267
 2583W        W18657   5.197   0.873   4.446 -0.0817  0.1361  0.1836
 2584W        W18658   4.607   1.933  15.962  0.0833  0.3346  0.0648
 2585W        W18659  13.810  12.448  12.084  0.2062 -0.0978 -0.0513
 2586W        W18660  14.831  17.051  14.674  0.0839  0.1472 -0.0743
 2587W        W18661   2.366  11.290  15.344 -0.1427 -0.0916 -0.2043
 2588W        W18662   7.900   8.192  16.340 -0.0334 -0.0181  0.1628
 2589W        W18663   1.022   5.902  15.710  0.0955  0.0714  0.1453
 2590W        W18664  10.727   9.378   1.774  0.3121 -0.2074 -0.1538
 2591W        W18665  16.222   9.214   1.980  0.0940 -0.1306 -0.0743
 2592W        W18666  16.509  15.118  10.668  0.0087  0.0009 -0.0781
 2593W        W18667  11.533   7.033   5.179 -0.1010  0.0388 -0.0189
 2594W        W18668   0.353   7.390   1.589  0.0678  0.0385 -0.0659
 2595W        W18669  12.247  16.278  13.188 -0.2410  0.1063 -0.1094
 2596W        W18670   3.862  12.550  15.074 -0.1527  0.1084 -0.0769
 2597W        W18671  15.306  12.981  12.890  0.2004  0.0197 -0.2433
 2598W        W18672  14.833   3.175  12.041  0.0435 -0.0567  0.1837
 2599W        W18673   1.228   6.700   5.164 -0.4995 -0.1173 -0.1531
 2600W        W18674   7.669  13.515   1.419  0.0203 -0.0672  0.1382
 2601W        W18675  17.744  14.005  14.536 -0.0542  0.1662  0.0209
 2602W        W18676   3.651  17.550   0.800  0.3038 -0.1288  0.0949
 2603W        W18677   9.922   2.383   4.847  0.0967  0.0645 -0.0900
 2604W        W18678   7.942  15.733  16.738  0.0637  0.0555 -0.2474
 2605W        W18679   7.911  10.728  11.988  0.4012 -0.1545  0.0882
 2606W        W18680   0.920   6.851  12.168 -0.4228 -0.0978  0.0156
 2607W        W18681  16.841   6.428   4.266  0.2481  0.1042 -0.2008
 2608W        W18682   6.912  12.938  14.694  0.3428 -0.1690  0.3754
 2609W        W18683   9.823  15.296  14.816 -0.0543 -0.0439  0.0283
 2610W        W18684   4.699   4.534   1.908  0.0501  0.1046  0.0211
 2611W        W18685  14.131  14.208  13.224 -0.3347  0.0044  0.3362
 2612W        W18686   2.830  16.869  14.221  0.1956 -0.2738 -0.0268
 2613W        W18687  16.557   8.951   3.266 -0.0691  0.0109 -0.0612
 2614W        W18688   6.180  15.181   5.836 -0.3135  0.2254  0.0839
 2615W        W18689   8.398   1.512   5.877  0.1829 -0.0732  0.5133
 2616W        W18690   0.398   0.102   2.596 -0.1079 -0.1845  0.1127
 2617W        W18691  15.484   3.914  12.190 -0.2320 -0.0890 -0.0677
 2618W        W18692   5.655  14.847   2.298  0.0118 -0.0923  0.0266
 2619W        W18693   7.446   3.840  14.988  0.3286 -0.1361 -0.0825
 2620W        W18694   7.277  11.181   4.436  0.1953 -0.1413  0.1636
 2621W        W18695   6.582   2.407  14.533  0.3458  0.1471  0.1272
 2622W        W18696  13.542   7.419   5.518  0.0260 -0.1451 -0.1202
 2623W        W18697   2.098  13.270  16.673  0.1383  0.2322  0.1567
 2624W        W18698   9.381   1.722  12.996  0.0332  0.1661  0.0894
 2625W        W18699   9.158   3.854   0.986  0.1156  0.0687 -0.1466
 2626W        W18700  14.254  13.114  14.160  0.2119  0.1953 -0.2108
 2627W        W18701  15.495  12.176  14.674  0.2384  0.0153 -0.0489
 2628W        W18702  13.309  11.877  14.087 -0.4242  0.2598  0.0024
 2629W        W18703   5.974   1.346  14.269 -0.1008 -0.1951  0.2789
 2630W        W18704   9.409  13.366  11.784  0.1513 -0.3072 -0.2726
 2631W        W18705   5.148   8.455   4.621 -0.0512 -0.0413  0.2124
 2632W        W18706  16.907  16.880   2.577 -0.0550  0.0146  0.1848
 2633W        W18707   2.085  14.762   2.077 -0.3240  0.0064 -0.1059
 2634W        W18708   4.672   7.093   1.898  0.3844 -0.1378 -0.1320
 2635W        W18709   4.563  15.002   2.341  0.3342 -0.1528  0.0743
 2636W        W18710   1.321  12.395  12.370 -0.0312 -0.0040  0.1030
 2637W        W18711  14.204   2.570  13.547 -0.0969 -0.1997 -0.0231
 2638W        W18712  14.631  13.864   4.878  0.1963 -0.0174 -0.0939
 2639W        W18713   0.630   7.669  15.869 -0.0046  0.1150  0.0313
 2640W        W18714  16.939  16.339  13.994  0.1885 -0.3601 -0.0466
 2641W        W18715   2.228   4.083  15.454 -0.0216  0.0555  0.0263
 2642W        W18716   0.779   5.773  12.329 -0.1197  0.1842 -0.1600
 2643W        W18717   7.515  10.437   5.086 -0.0215  0.0189  0.0623
 2644W        W18718  10.437   7.381   2.614 -0.0576 -0.1284 -0.0584
 2645W        W18719   7.223   2.571   0.525  0.1169 -0.2647  0.0204
 2646W        W18720   1.399   7.663  13.989  0.0262  0.1463  0.0377
 2647W        W18721   7.020  12.528   4.784  0.2872  0.4169  0.0492
 2648W        W18722   3.426  14.018  14.519 -0.1613 -0.1444  0.0351
 2649W        W18723   4.033   0.500   5.215  0.2027  0.0003 -0.1220
 2650W        W18724  17.768  13.615   2.499 -0.2008 -0.0397 -0.0745
 2651W        W18725  10.598   7.663  15.993  0.3491  0.1221 -0.1470
 2652W        W18726   9.457   2.901  16.902  0.0917  0.1063  0.1652
 2653W        W18727   9.273   8.171   2.667  0.0535 -0.1149  0.0245
 2654W        W18728   1.690   7.443  15.568 -0.0053 -0.0442  0.1428
 2655W        W18729  12.006   4.890  15.423  0.1592 -0.0645 -0.2768
 2656W        W18730  17.257   0.024   0.939 -0.2140 -0.0717 -0.0696
 2657W        W18731   3.712  17.445  14.763 -0.0379  0.1700 -0.0319
 2658W        W18732   7.360  16.622  11.485  0.0686 -0.0417  0.0230
 2659W        W18733  10.875   7.556   3.919 -0.0418  0.1291  0.0078
 2660W        W18734   9.818   3.248  13.289  0.1731  0.1799 -0.5384
 2661W        W18735   8.525  15.558  15.596 -0.2845 -0.2252  0.0318
 2662W        W18736  15.938  11.449   4.151  0.0184  0.0663  0.2265
 2663W        W18737   5.419   8.483   5.022 -0.1740  0.0940  0.0222
 2664W        W18738   1.279   0.767   3.481 -0.0973 -0.1371  0.4320
 2665W        W18739  10.617   5.780  11.188  0.3757  0.2562 -0.2865
 2666W        W18740  14.422  13.175  16.406  0.2373 -0.1214  0.2023
 2667W        W18741   0.869   1.222   1.173  0.3245 -0.0816  0.2422
 2668W        W18742  12.209   4.479   2.533 -0.1052 -0.1610 -0.0840
 2669W        W18743  14.335   5.796  14.460 -0.1895  0.0486  0.3569
 2670W        W18744   3.926  15.756   6.281  0.1605  0.0166  0.0218
 2671W        W18745   5.129   0.506   2.079  0.1261  0.0036  0.2312
 2672W        W18746   5.912   2.661   2.015 -0.0489 -0.1562  0.0416
 2673W        W18747   0.161   7.120  14.670 -0.0624  0.0330 -0.0492
 2674W        W18748   0.437  17.596  13.130 -0.0104  0.1062 -0.1188
 2675W        W18749  12.371   7.509  14.602  0.2796  0.0067 -0.1644
 2676W        W18750   4.215  11.912  15.840 -0.0687  0.4080  0.2102
 2677W        W18751  12.951   7.530  16.913 -0.5021  0.2071 -0.2672
 2678W        W18752   3.314   2.777   4.015  0.1066 -0.2407  0.1989
 2679W        W18753   7.074   8.172   1.880  0.2215  0.0657  0.0244
 2680W        W18754  11.115   7.591   1.615  0.1806 -0.1173 -0.2787
 2681W        W18755   2.999   8.754  13.536 -0.0185  0.2407  0.1615
 2682W        W18756  11.482   4.300   5.856  0.3166 -0.1095  0.1122
 2683W        W18757   5.038   6.699  16.265 -0.1951 -0.2072  0.1173
 2684W        W18758   1.072  14.622  14.392 -0.0251  0.0533  0.0850
 2685W        W18759   3.197  12.745  12.860 -0.0074  0.1305  0.1463
 2686W        W18760   2.713  10.958   5.583 -0.1362  0.2130 -0.1491
 2687W        W18761   6.286   2.780  14.938  0.0493 -0.1205 -0.0376
 2688W        W18762  15.269   0.306   2.659  0.0243  0.0750  0.0399
 2689W        W18763   7.215   5.034   0.824 -0.0883 -0.2899  0.0365
 2690W        W18764   8.051   5.904   4.170  0.0963 -0.0586 -0.1751
 2691W        W18765   8.100   7.820   5.706 -0.1749  0.2241 -0.0413
 2692W        W18766  12.122   5.455   0.054  0.4053 -0.2364  0.3057
 2693W        W18767   1.865   7.103   1.891 -0.0066  0.0517 -0.1439
 2694W        W18768   0.621  15.296   0.135 -0.0739 -0.0372 -0.0986
 2695W        W18769   9.243  14.425  11.850  0.3187  0.3686  0.0591
 2696W        W18770   6.984   8.433   0.896 -0.0638 -0.0502  0.2177
 2697W        W18771  11.623  15.784  14.798  0.3150 -0.0086 -0.1007
 2698W        W18772  16.872  11.660  16.426  0.0483 -0.1550  0.0125
 2699W        W18773   0.824   1.019  13.081  0.1845 -0.2688  0.0433
 2700W        W18774   7.317   3.542  15.489  0.0259 -0.1120  0.0130
 2701W        W18775   7.617  15.801  15.540  0.3141 -0.0122 -0.0479
 2702W        W18776  17.711   8.214  12.886  0.2159  0.0666  0.0388
 2703W        W18777  16.423   5.703   0.388 -0.2587 -0.1059 -0.1059
 2704W        W18778  11.840   4.652  12.788  0.0116  0.4759 -0.6221
 2705W        W18779   8.351   9.619   1.219 -0.3271  0.0074  0.5526
 2706W        W18780   8.593   7.250  16.033 -0.1593  0.2158 -0.2072
 2707W        W18781   9.809  11.503  15.673  0.3584  0.1162 -0.0672
 2708W        W18782   7.459   6.859  13.562  0.1532 -0.0013  0.3236
 2709W        W18783   9.020   1.841  13.367 -0.2619 -0.0898  0.3981
 2710W        W18784  14.094   7.496  14.884  0.2951 -0.1025  0.2674
 2711W        W18785  11.564   8.549   4.609 -0.0415 -0.2819  0.2561
 2712W        W18786   0.481  12.562   1.385  0.2904  0.0877 -0.2227
 2713W        W18787  16.161   2.333   3.547  0.1807 -0.2078 -0.0550
 2714W        W18788  16.423   3.510   5.824 -0.2269  0.0990 -0.2418
 2715W        W18789   7.513   8.493   2.917 -0.0042  0.1418  0.1070
 2716W        W18790   8.748   9.049   0.601  0.1823  0.1803 -0.2495
 2717W        W18791   7.318  16.473   1.718 -0.0959 -0.0929  0.1600
 2718W        W18792  16.430   7.670  15.283 -0.3272 -0.1125 -0.1423
 2719W        W18793  13.157   3.764   4.620  0.0162 -0.0948 -0.0446
 2720W        W18794   8.617  16.664   4.499 -0.1832 -0.2683 -0.1775
 2721W        W18795  15.346  11.188  16.883 -0.0844  0.4324 -0.0556
 2722W        W18796  16.026   5.382  16.558 -0.2167  0.0822  0.1821
 2723W        W18797   0.273  13.808  12.685  0.0984  0.1601 -0.0099
 2724W        W18798   5.487   7.629  13.812  0.2762 -0.1694  0.0795
 2725W        W18799   1.275   8.045  12.562 -0.0666  0.0986 -0.0923
 2726W        W18800  10.538  17.141   5.308  0.0174 -0.0763 -0.0366
 2727W        W18801   3.643   0.742   4.435  0.0129 -0.2244 -0.0528
 2728W        W18802   8.319  16.146   2.305  0.0703 -0.1659  0.1607
 2729W        W18803   3.083  16.414  12.955  0.0937 -0.0342  0.0429
 2730W        W18804   3.465   2.297   4.220  0.0976  0.1928 -0.0957
 2731W        W18805   4.244  11.591  12.783  0.2955  0.1285 -0.1948
 2732W        W18806  13.547   5.844  13.259 -0.1832 -0.0052 -0.1769
 2733W        W18807  11.308  15.644   5.541 -0.0559 -0.1704 -0.1439
 2734W        W18808  15.941   0.808   2.003  0.2371 -0.2161 -0.0740
 2735W        W18809   9.283   6.167  12.796 -0.2568  0.3983 -0.0711
 2736W        W18810   4.999   0.297  14.925 -0.1876 -0.0619 -0.1479
 2737W        W18811   7.165  13.221  16.807  0.0658  0.1527  0.2092
 2738W        W18812   8.575   8.514   4.928  0.0196  0.1308 -0.1427
 2739W        W18813  13.015  10.134   0.119  0.0606  0.2357 -0.1187
 2740W        W18814  15.732  12.350  16.495  0.4129  0.1198  0.1400
 2741W        W18815  17.252   5.281  12.182 -0.1703  0.1961  0.0875
 2742W        W18816  15.804  10.235  13.941 -0.3588  0.1999  0.0211
 2743W        W18817   1.743   7.706   1.755  0.1956  0.1359 -0.0504
 2744W        W18818  10.608   2.930   4.730  0.0075  0.3758  0.1790
 2745W        W18819  11.234   6.328   3.668 -0.0957 -0.0538 -0.0153
 2746W        W18820   1.719  14.992   2.870  0.0467 -0.0898  0.0627
 2747W        W18821  13.542  15.732  13.114 -0.1290  0.1932 -0.0822
 2748W        W18822   1.792   3.366  15.848 -0.1536  0.2958  0.0258
 2749W        W18823   8.489  10.317   2.326 -0.1379  0.2024  0.0789
 2750W        W18824   9.541  10.523   1.490  0.2964 -0.2404 -0.1562
 2751W        W18825   3.766   6.161  16.629  0.1134 -0.0416 -0.0732
 2752W        W18826  12.347  12.318   0.848 -0.0505  0.1047 -0.1756
 2753W        W18827  13.308  13.176   3.321 -0.2272 -0.2186 -0.1067
 2754W        W18828   1.332   0.833   0.150 -0.2573  0.0516 -0.0728
 2755W        W18829   3.793   1.520  12.832  0.2395 -0.0637 -0.0756
 2756W        W18830   0.459  13.785  13.978 -0.1080 -0.0254  0.1569
 2757W        W18831  12.393  15.658   2.068  0.0553  0.1976  0.3434
 2758W        W18832  16.413   9.000  12.415 -0.0461  0.1566 -0.1014
 2759W        W18833   2.588   9.961   5.594  0.0440  0.0028 -0.1324
 2760W        W18834   0.060  12.242   1.485 -0.0737  0.1864  0.3122
 2761W        W18835  13.165  11.953  15.105  0.2256  0.0209 -0.0095
 2762W        W18836  13.758  13.082   0.892 -0.1114  0.1811 -0.3137
 2763W        W18837  10.317   8.185  14.266  0.4330  0.0095  0.2831
 2764W        W18838  13.965  11.437  12.071  0.0231 -0.0695 -0.0613
 2765W        W18839  11.629   5.451   0.216  0.1386  0.0699 -0.1387
 2766W        W18840  14.525  15.320   4.548 -0.2295  0.1426 -0.1412
 2767W        W18841   3.809  16.705  14.624  0.0004 -0.1731  0.1984
 2768W        W18842   8.395   7.934   1.494  0.1344  0.0586 -0.1448
 2769W        W18843  14.055  10.886   5.263  0.1215  0.1944 -0.1736
 2770W        W18844   3.337  17.375   4.635 -0.2381 -0.2306  0.1717
 2771W        W18845  10.003   8.612  11.333  0.1126  0.0420 -0.1018
 2772W        W18846   4.813   7.508   3.055 -0.0100  0.3327  0.1086
 2773W        W18847  15.707  12.153  15.350  0.0500  0.1951  0.1383
 2774W        W18848  10.678   5.270   3.442  0.0033 -0.0055 -0.0562
 2775W        W18849  10.853  13.446   0.060  0.1591 -0.3545  0.1547
 2776W        W18850   1.633   6.314   5.551 -0.2018 -0.0622  0.0145
 2777W        W18851   6.460   1.524  14.290  0.1117 -0.0149 -0.1508
 2778W        W18852   1.018   5.643   0.784 -0.2836 -0.2809 -0.2207
 2779W        W18853   7.881  13.824   4.911 -0.1369  0.0802  0.1497
 2780W        W18854   3.861  11.625   2.879 -0.0437  0.1578 -0.1249
 2781W        W18855  13.047  10.315  15.974 -0.0369  0.1483 -0.1942
 2782W        W18856   6.495   8.642   4.235  0.0053  0.1741  0.1662
 2783W        W18857   2.698  14.233   0.168  0.1444 -0.0926  0.1610
 2784W        W18858   4.403   1.078  13.560 -0.1085 -0.0754 -0.3894
 2785W        W18859  10.417  12.793   3.729  0.3646 -0.0390 -0.0057
 2786W        W18860   5.166   2.073  15.067 -0.2112  0.0531 -0.0178
 2787W        W18861  12.786   3.280   5.653  0.3174 -0.0921  0.0476
 2788W        W18862   1.836   0.034   1.222  0.0609  0.0234  0.0926
 2789W        W18863   7.862  17.099  12.124  0.2274  0.3528 -0.0634
 2790W        W18864  12.008  13.507   4.998  0.1831 -0.0439 -0.1077
 2791W        W18865  10.602   2.305   4.362  0.1807  0.0160  0.2606
 2792W        W18866   8.616   7.871  12.243 -0.1241  0.0444 -0.0251
 2793W        W18867  14.350  11.205   2.638 -0.0664  0.1342 -0.3317
 2794W        W18868  15.517   3.197   4.331 -0.0848  0.1205 -0.1908
 2795W        W18869  13.906  14.366  12.418  0.0011 -0.1606  0.0846
 2796W        W18870   7.783  16.536   1.803 -0.1813 -0.0337 -0.1010
 2797W        W18871  11.619  14.651   0.099 -0.1325 -0.1391 -0.0074
 2798W        W18872   4.251  13.362   1.059 -0.1651  0.2569 -0.2470
 2799W        W18873   9.536   5.186   5.190  0.0382 -0.5471 -0.1327
 2800W        W18874   0.070  16.360  13.093 -0.0673  0.0841 -0.2923
 2801W        W18875  15.416   5.735   0.373  0.1135 -0.0616  0.1860
 2802W        W18876   7.830  16.002   5.397 -0.0091  0.3695  0.1047
 2803W        W18877  16.126   4.770  15.684  0.2437 -0.2399 -0.3211
 2804W        W18878  17.589   4.057  15.805  0.3617 -0.0984  0.1645
 2805W        W18879  14.069   1.358   4.886  0.0896  0.0224 -0.2408
 2806W        W18880   1.798  16.763  13.774  0.1056  0.2505 -0.0707
 2807W        W18881  13.194   1.636  13.497  0.0992 -0.1551 -0.0515
 2808W        W18882  16.919  11.846   1.648 -0.1694  0.1764 -0.2239
 2809W        W18883   2.365  15.282   4.655  0.0805 -0.1061  0.1177
 2810W        W18884   9.899  11.524   4.813 -0.1807  0.1195  0.1967
 2811W        W18885  15.099  11.798   2.977  0.1288 -0.0020 -0.0173
 2812W        W18886  10.909   1.118  12.617 -0.0915 -0.1360  0.0587
 2813W        W18887  14.747   7.736  16.472  0.0036  0.0106 -0.0049
 2814W        W18888  17.806  15.604  16.623  0.1177  0.2981 -0.2527
 2815W        W18889  17.029  12.480  13.378 -0.1694 -0.2370 -0.1300
 2816W        W18890  16.109   1.076  13.904  0.0734 -0.0157 -0.3047
 2817W        W18891   7.474  11.272   2.988  0.0208 -0.2558  0.0596
 2818W        W18892   8.057   8.356  16.799  0.1667  0.1326  0.5326
 2819W        W18893  15.650   4.214  11.357 -0.1362  0.0732  0.3716
 2820W        W18894  10.981   5.699   2.626 -0.1323  0.0230  0.0898
 2821W        W18895  11.326   4.089  11.857  0.1109  0.0273 -0.0453
 2822W        W18896   3.505   6.203   5.624 -0.2579  0.2451 -0.0270
 2823W        W18897   6.947  14.819   3.113  0.2878 -0.2493 -0.0615
 2824W        W18898   3.921  17.427  10.449 -0.0449 -0.0752  0.0781
 2825W        W18899   4.513   2.403   1.344  0.1904  0.0091 -0.0794
 2826W        W18900   1.121   1.889  13.386 -0.0416 -0.1175 -0.0993
 2827W        W18901   1.631   3.812   3.974 -0.3214  0.1209 -0.0175
 2828W        W18902   4.625  16.638   0.459  0.0150 -0.0092  0.0813
 2829W        W18903   1.199  12.712  11.147  0.1156 -0.1982 -0.1028
 2830W        W18904   3.006  15.770   2.060 -0.1314  0.3044  0.1365
 2831W        W18905   6.670  12.559  14.940  0.2250  0.0862 -0.3972
 2832W        W18906   4.609  15.965   2.626  0.0768 -0.3513 -0.1881
 2833W        W18907  11.976  10.848  13.209  0.0731 -0.0911 -0.2001
 2834W        W18908  16.251  16.022   0.139  0.0834  0.2769  0.1268
 2835W        W18909   3.254   6.687  11.893  0.0655 -0.0214  0.0945
 2836W        W18910   1.567   9.251   0.320 -0.1636  0.0968  0.0471
 2837W        W18911  13.974   2.056  13.522  0.2783 -0.1483 -0.1987
 2838W        W18912  16.577  14.789   1.787  0.0977  0.0712 -0.0857
 2839W        W18913   9.900   5.069  16.698 -0.0159 -0.2256  0.1418
 2840W        W18914   5.283  17.703  13.693  0.5464  0.3241  0.1589
 2841W        W18915  11.528   2.194   3.497 -0.0086 -0.2492  0.1522
 2842W        W18916   4.148   9.398   5.259  0.0856  0.0116 -0.1165
 2843W        W18917  12.788   4.793  13.978  0.1958 -0.1455 -0.2255
 2844W        W18918   2.969   2.419   3.894  0.0510 -0.0687 -0.0241
 2845W        W18919   7.027  10.893   3.702  0.3465  0.3255 -0.2828
 2846W        W18920   3.257   5.973  13.446 -0.0710 -0.2487  0.2206
 2847W        W18921   0.207   4.520   3.149  0.1401  0.0481  0.3153
 2848W        W18922   9.648   4.566   2.410 -0.1628 -0.1377  0.0494
 2849W        W18923  14.319  13.772  13.863 -0.1352 -0.1627 -0.1676
 2850W        W18924  11.421   7.439   3.821 -0.2131 -0.4723 -0.3016
 2851W        W18925  11.520  10.676  12.997  0.1140 -0.0093 -0.0973
 2852W        W18926   5.309  10.191  11.811 -0.0030  0.0207  0.1329
 2853W        W18927   4.199   1.740   2.572  0.1231 -0.3484 -0.0227
 2854W        W18928  15.638  13.219  15.953  0.2054  0.0216  0.0019
 2855W        W18929  16.640  13.513   3.955  0.0669  0.1485 -0.1236
 2856W        W18930  14.122   8.442   2.795  0.0095 -0.0635 -0.0637
 2857W        W18931   4.486  16.921  16.884  0.0573  0.1413  0.0299
 2858W        W18932   4.890   8.146  13.454 -0.2480 -0.0299 -0.1548
 2859W        W18933  10.483   5.324   5.404 -0.2333  0.2914 -0.1244
 2860W        W18934   3.638   0.781  15.371 -0.0863 -0.2366  0.2375
 2861W        W18935   6.103   9.162  15.515 -0.1648 -0.2502  0.2554
 2862W        W18936   6.468  11.932   1.185  0.1651  0.0651 -0.0784
 2863W        W18937   4.023   5.037   0.663 -0.0974 -0.1318  0.2633
 2864W        W18938  14.091   6.201   0.120 -0.4952  0.0672 -0.1537
 2865W        W18939  11.673   0.418   2.223 -0.1322 -0.0009 -0.0593
 2866W        W18940  16.077   5.124   3.276 -0.0342 -0.1128  0.1865
 2867W        W18941  17.761   6.958  16.008 -0.1659 -0.2974  0.1088
 2868W        W18942   3.522   1.245  12.105  0.0730 -0.0103 -0.3018
 2869W        W18943  17.003   8.077  14.255  0.1595  0.0773 -0.0373
 2870W        W18944   3.739  10.351  12.170 -0.1013 -0.1228  0.1211
 2871W        W18945   1.147  10.552   0.704 -0.0882  0.0960 -0.0682
 2872W        W18946  11.311   2.276   0.906  0.3045 -0.1213 -0.0222
 2873W        W18947   1.806  10.726   0.440 -0.0675 -0.0914 -0.0587
 2874W        W18948   6.357   1.425  15.671 -0.1185  0.0008  0.1932
 2875W        W18949   5.715  12.966   1.995  0.3150 -0.1404  0.1185
 2876W        W18950   4.372  11.760  15.360  0.0912 -0.1448  0.1008
 2877W        W18951   1.558   7.283   3.734 -0.0527 -0.0416 -0.2721
 2878W        W18952   6.793   8.578   1.761  0.3310 -0.2552  0.1382
 2879W        W18953  10.543  10.521  11.898  0.0746 -0.3469 -0.0286
 2880W        W18954  16.293   8.381   3.235  0.1235 -0.3322 -0.0925
 2881W        W18955  11.376   2.274   0.394 -0.0236 -0.1493  0.1873
 2882W        W18956   4.734  11.929   1.830  0.1756 -0.2409  0.3067
 2883W        W18957  17.322   9.831  15.178  0.2176  0.1253 -0.0346
 2884W        W18958   4.646  13.505  12.493 -0.2295 -0.0506 -0.0128
 2885W        W18959   7.377   9.956  13.469  0.2857  0.3511  0.1737
 2886W        W18960   2.013   2.469   3.908  0.0188 -0.1060 -0.0622
 2887W        W18961  11.296  11.431   2.315  0.0544  0.2944  0.1452
 2888W        W18962  14.469   4.660   6.142 -0.0876  0.3569  0.0897
 2889W        W18963  12.573  17.139   4.325 -0.1672 -0.1259 -0.1339
 2890W        W18964   7.254  16.931  12.004  0.1448  0.3395 -0.0849
 2891W        W18965   8.744   9.326   6.767  0.1726  0.0628 -0.0219
 2892W        W18966   3.594   0.107  14.713  0.0177 -0.2908 -0.3219
 2893W        W18967   0.531  14.457  14.457  0.0048 -0.3803 -0.5428
 2894W        W18968  13.045  16.086   2.493 -0.0029  0.0118 -0.0770
 2895W        W18969  14.460   1.662  15.456  0.1868 -0.0230 -0.0736
 2896W        W18970  15.200  13.943   2.061  0.0645  0.1014 -0.0973
 2897W        W18971   9.003   3.067  12.529 -0.0242 -0.1587 -0.3874
 2898W        W18972   9.708   9.287  12.980  0.0389  0.0629 -0.1653
 2899W        W18973   2.523  10.835  12.380 -0.1264 -0.3104 -0.0916
 2900W        W18974  14.355   9.073  16.023 -0.2147  0.0625  0.1365
 2901W        W18975  17.523  11.871  13.173 -0.0672  0.1064 -0.1503
 2902W        W18976   3.955  15.842   1.473 -0.2764 -0.1639 -0.2519
 2903W        W18977  17.387  14.780   3.582 -0.0113 -0.3302 -0.4921
 2904W        W18978   5.481   3.645   2.599 -0.2085 -0.1302  0.0543
 2905W        W18979   1.715   8.492   5.635  0.1908 -0.2880  0.2394
 2906W        W18980   5.359   6.955   0.921 -0.1945 -0.2887  0.0704
 2907W        W18981  11.208  17.346  15.571 -0.0399 -0.3290  0.1017
 2908W        W18982   3.203  11.613  16.326  0.0482 -0.0991 -0.1288
 2909W        W18983   2.814   3.388  16.033 -0.2867  0.0767 -0.3321
 2910W        W18984   8.900   0.546   2.489 -0.3198 -0.0354 -0.2079
 2911W        W18985   3.057   4.147   0.514 -0.0634 -0.0352  0.2211
 2912W        W18986   6.643   1.090  13.289  0.0601  0.0798  0.1871
 2913W        W18987   1.309  17.227   2.233  0.4673 -0.0022 -0.0046
 2914W        W18988  11.323   7.154   4.670  0.0052 -0.1338 -0.1091
 2915W        W18989  14.790  12.996   3.543  0.0748 -0.1399  0.2627
 2916W        W18990   4.717  17.831   5.049 -0.4006 -0.1861  0.2656
 2917W        W18991  13.774  12.318  11.537  0.0409 -0.1485  0.3286
 2918W        W18992  11.921  13.197   0.228 -0.0994 -0.0761 -0.2420
 2919W        W18993   7.333   3.512  16.506  0.0711  0.0301  0.3596
 2920W        W18994  17.439   6.313  14.687 -0.1261 -0.2755  0.2958
 2921W        W18995   6.149   1.042  15.952  0.1754  0.1259  0.0640
 2922W        W18996   4.868  17.153   3.308  0.1825  0.3760  0.2233
 2923W        W18997   1.167   7.419  14.353 -0.0617 -0.0873  0.0689
 2924W        W18998   1.688   0.972   3.009  0.1654 -0.1390 -0.1757
 2925W        W18999   0.617  11.069  16.629  0.1794  0.0815 -0.0323
 2926W        W19000   5.149  12.444   5.135 -0.0838  0.0275 -0.3024
 2927W        W19001  14.372  12.929   3.147 -0.1687 -0.0262 -0.1762
 2928W        W19002  14.461  14.475  14.611 -0.0216 -0.0492 -0.2502
 2929W        W19003   6.248  16.283  12.572 -0.1592 -0.0384  0.2040
 2930W        W19004   5.290   1.542   0.349  0.2606  0.1369 -0.5197
 2931W        W19005  12.226   9.139   5.356  0.1610  0.0666 -0.1397
 2932W        W19006   9.263   1.880   4.587  0.0961  0.0787 -0.1148
 2933W        W19007   3.285   6.742   5.256 -0.1621 -0.2674 -0.0490
 2934W        W19008  13.586   4.171   2.931 -0.2056 -0.2620 -0.1317
 2935W        W19009  14.349   6.473  15.237 -0.0347  0.2646 -0.1659
 2936W        W19010  12.044   9.109   2.004 -0.1307 -0.0532 -0.1019
 2937W        W19011   3.868  17.739   5.068 -0.5718 -0.0238 -0.0594
 2938W        W19012   6.322  17.661  14.180  0.1465  0.1757 -0.1941
 2939W        W19013   3.076   3.837   3.365 -0.0221 -0.1470  0.0698
 2940W        W19014   6.782  11.673   4.021 -0.0477  0.0012 -0.1690
 2941W        W19015  12.217   0.792  13.851 -0.1521  0.2899 -0.0447
 2942W        W19016  11.429  13.328  16.162 -0.1295 -0.0328 -0.0393
 2943W        W19017  10.227   5.778   5.414 -0.1769  0.1106 -0.1476
 2944W        W19018   3.239  11.825   2.000  0.0065  0.1198  0.2631
 2945W        W19019   8.796  13.197   5.491  0.0022  0.1144  0.0125
 2946W        W19020  15.688   9.185  15.185 -0.0617 -0.0953  0.0234
 2947W        W19021  13.703  14.936  12.504  0.2402 -0.1524  0.0261
 2948W        W19022   5.442  16.673   2.535  0.2393 -0.2527  0.1402
 2949W        W19023  15.369  15.345  16.607  0.1185  0.2030  0.2809
 2950W        W19024   1.608  16.117   1.438  0.0851 -0.0931 -0.0903
 2951W        W19025   7.839   1.082  16.544  0.0720 -0.1473  0.1473
 2952W        W19026   4.939  14.671   6.115 -0.0975  0.1214  0.1917
 2953W        W19027   1.368  15.553  12.982  0.0107  0.0666  0.3240
 2954W        W19028  11.072   6.674   2.806 -0.0238 -0.2425 -0.1884
 2955W        W19029  15.383   0.158  16.020  0.1114  0.0157  0.1192
 2956W        W19030  13.093  16.006  15.544  0.0043 -0.0148  0.1874
 2957W        W19031  13.285   4.623   0.652 -0.1826 -0.0239 -0.3263
 2958W        W19032   8.661  11.218  12.336  0.2436  0.3169  0.1580
 2959W        W19033  10.858   8.347   3.900  0.0568 -0.1624 -0.1101
 2960W        W19034   2.589   0.997   3.351 -0.0484  0.1962 -0.1865
 2961W        W19035   3.286  14.188  14.996  0.0982 -0.1559  0.1234
 2962W        W19036   9.130  12.512  14.214  0.0492  0.0035 -0.2056
 2963W        W19037  12.407  14.778  14.079 -0.1099  0.0742  0.0047
 2964W        W19038   7.024   9.165  16.762  0.1246 -0.0146  0.1057
 2965W        W19039   4.772   9.320  14.516  0.0383  0.1019 -0.2726
 2966W        W19040  16.338   6.940   5.656 -0.0252  0.3009  0.1633
 2967W        W19041  15.377  13.822   5.119  0.3213 -0.2039 -0.0815
 2968W        W19042   0.407  17.331  12.232 -0.2631  0.0429  0.1036
 2969W        W19043  16.410   8.229  12.419 -0.2369 -0.0507  0.6243
 2970W        W19044  16.923  14.240  13.091 -0.0275 -0.2137 -0.4062
 2971W        W19045   5.471  10.908   5.191  0.1405  0.2305 -0.0907
 2972W        W19046  14.800  10.243   3.445 -0.1821 -0.0489 -0.3764
 2973W        W19047  11.511  16.866  14.409 -0.1643  0.0737 -0.0729
 2974W        W19048   4.926   0.068   2.300 -0.1936 -0.0249 -0.0955
 2975W        W19049   2.769   8.748   4.814  0.0284  0.3953 -0.1359
 2976W        W19050  16.058  13.163   4.562  0.3219 -0.7217  0.0084
 2977W        W19051  14.663   2.086  15.717 -0.1123  0.1221  0.1425
 2978W        W19052  16.349  17.655  16.357 -0.2957  0.1457  0.1730
 2979W        W19053  11.777  16.087   5.036 -0.3801  0.3101  0.0443
 2980W        W19054   2.274   7.620  16.911 -0.0091 -0.0522 -0.3631
 2981W        W19055   3.724   8.813   2.241  0.1061  0.0141 -0.2069
 2982W        W19056   9.736   8.225  16.423 -0.2829  0.3946 -0.1251
 2983W        W19057   6.471   3.329  16.099  0.0590 -0.0180  0.0448
 2984W        W19058   5.665  11.600  14.751  0.1002  0.0706  0.1561
 2985W        W19059  11.609  14.984  11.908  0.1500  0.1284 -0.2571
 2986W        W19060   5.625  12.045  16.916 -0.0345 -0.1750  0.0971
 2987W        W19061   0.980   0.540  16.382 -0.1724 -0.0371  0.1543
 2988W        W19062  15.572  16.797   6.553  0.0898  0.1816 -0.0239
 2989W        W19063   2.110   7.163  14.172  0.0060 -0.2351  0.0979
 2990W        W19064  12.329  13.168   4.104  0.1235  0.0422  0.1713
 2991W        W19065   6.438  14.352  11.921  0.1847  0.0804 -0.0449
 2992W        W19066  14.416   0.954  14.702  0.1564 -0.1015  0.1488
 2993W        W19067  15.643   1.850  15.317  0.1530  0.0299 -0.0968
 2994W        W19068  17.738   8.421   0.910  0.2753  0.3890  0.0039
 2995W        W19069  16.763   4.170   2.784  0.0103  0.2460  0.2027
 2996W        W19070   5.015   6.390   4.082  0.2017 -0.3170  0.2179
 2997W        W19071  12.738   2.844  16.699  0.3422 -0.3112 -0.0791
 2998W        W19072   1.563  16.937   5.056 -0.2555 -0.1668 -0.1996
 2999W        W19073   2.513   5.150  11.904 -0.2812  0.0998 -0.0298
 3000W        W19074  15.089   6.232   0.373 -0.0012 -0.2391 -0.1312
 3001W        W19075  17.572   8.269   2.803 -0.4006 -0.0163  0.4191
 3002W        W19076   8.626  17.092   3.558 -0.0391 -0.0018 -0.1426
 3003W        W19077   3.461  17.824  12.693 -0.1315 -0.0396  0.2832
 3004W        W19078   5.280  14.805  15.928 -0.0390 -0.0740 -0.2441
 3005W        W19079   2.277  13.512   5.538  0.5349 -0.0749 -0.1423
 3006W        W19080  15.653   4.287  14.384  0.1848 -0.0420 -0.2340
 3007W        W19081  17.266  15.023  12.818 -0.0337  0.0596 -0.0367
 3008W        W19082   6.063   9.850  12.053 -0.0928 -0.2511  0.1330
 3009W        W19083  14.097  16.208   1.245  0.0445 -0.0455  0.1386
 3010W        W19084  15.406  16.241   2.462  0.1123 -0.0110  0.0127
 3011W        W19085   0.947  16.233   4.275  0.0417  0.0199  0.0533
 3012W        W19086  13.066  14.718   5.645 -0.2043  0.1360  0.0007
 3013W        W19087   0.447   2.760   3.025  0.1663 -0.2297  0.0864
 3014W        W19088   4.954  10.378   2.091 -0.0637  0.0525  0.1348
 3015W        W19089  13.107   7.714   1.080 -0.0734 -0.0814  0.3636
 3016W        W19090   4.799  13.067   5.257  0.0089 -0.1850  0.1427
 3017W        W19091   9.344  12.081  16.838 -0.1210 -0.1625  0.1090
 3018W        W19092  13.486   3.560   2.852  0.1887  0.1586  0.2275
 3019W        W19093   5.778   3.332  12.268  0.0873 -0.1386 -0.1761
 3020W        W19094   7.289   8.675   4.805 -0.0161 -0.1731  0.1730
 3021W        W19095   7.966   9.717  14.933 -0.1254  0.2968 -0.0181
 3022W        W19096  16.746  12.912  13.276 -0.1972  0.1028  0.2301
 3023W        W19097  11.939   5.042  15.952  0.0553 -0.2578  0.3765
 3024W        W19098   7.191  14.813   0.654  0.1010 -0.1234 -0.0175
 3025W        W19099  11.957   2.085   1.953  0.0100  0.0935 -0.3158
 3026W        W19100   9.894   8.421   4.467  0.2440 -0.0122 -0.0112
 3027W        W19101   4.040  13.832  14.375 -0.0937 -0.1305  0.2722
 3028W        W19102  13.488   1.740  12.442 -0.1074  0.5491 -0.0862
 3029W        W19103   8.999   5.849   3.377  0.0196 -0.0261 -0.1054
 3030W        W19104   1.455  13.602   5.082  0.1822 -0.1017 -0.3444
 3031W        W19105   8.988   7.884  14.342  0.1564  0.2609  0.3333
 3032W        W19106  15.486   7.633  11.848  0.1287  0.1628 -0.2618
 3033W        W19107  14.664   6.463  12.886 -0.1253  0.4445 -0.0011
 3034W        W19108   1.442   4.432   1.899 -0.0556  0.3091 -0.2086
 3035W        W19109   6.792  10.037  16.425  0.0738 -0.2164  0.0291
 3036W        W19110   7.770   2.738  14.953 -0.3416 -0.2601  0.2580
 3037W        W19111  15.454   5.814   4.954  0.1692 -0.3680 -0.3376
 3038W        W19112  12.696  10.352   5.774  0.2859 -0.0559 -0.0117
 3039W        W19113  10.455   9.795  14.313  0.0508 -0.0879 -0.1139
 3040W        W19114   4.551   5.151   5.701 -0.0682 -0.0076  0.2839
 3041W        W19115   2.825  10.042   1.813 -0.0522  0.1176 -0.0268
 3042W        W19116   7.025  14.804  10.846 -0.0435 -0.1561  0.2137
 3043W        W19117  11.514   0.472   0.032 -0.2569  0.2540  0.0929
 3044W        W19118   4.760   3.955   3.836  0.1511 -0.0025  0.2502
 3045W        W19119   0.128  10.109   0.728  0.1007 -0.2754 -0.2700
 3046W        W19120   1.523   5.519   3.896 -0.0155 -0.0696  0.0279
 3047W        W19121  17.275   7.906  12.958 -0.0330 -0.0014  0.0126
 3048W        W19122  16.963  10.466   0.581 -0.0058 -0.2007  0.1836
 3049W        W19123  15.626   0.960  13.475 -0.2591  0.0710  0.4425
 3050W        W19124   5.701  13.764  14.724 -0.3165  0.1558 -0.0350
 3051W        W19125  14.102  12.215  16.144 -0.1347 -0.0103  0.1055
 3052W        W19126   5.358   3.504   4.387  0.1715 -0.1094  0.1960
 3053W        W19127  13.153   4.842  13.152 -0.2234  0.0247  0.2331
 3054W        W19128  12.268   7.520   3.380  0.0563  0.1508 -0.1126
 3055W        W19129  13.301  12.476   2.575  0.0152 -0.1093 -0.3223
 3056W        W19130  16.236   3.957   4.578 -0.0392  0.0058  0.1348
 3057W        W19131  11.034   5.485  14.760 -0.0187 -0.1509  0.1366
 3058W        W19132   1.194   2.734   3.676 -0.1985 -0.1019  0.2121
 3059W        W19133  16.260  10.471   2.361  0.2033 -0.0304  0.2171
 3060W        W19134   6.974  11.123   1.336 -0.0327 -0.0593  0.0876
 3061W        W19135   4.790   8.237   4.021 -0.1078 -0.1103 -0.2427
 3062W        W19136  10.656  10.185  15.405 -0.0076  0.1677 -0.1962
 3063W        W19137   9.479   1.702   1.792  0.1190 -0.1213  0.0549
 3064W        W19138  16.755  16.454  15.525  0.1457  0.1962 -0.3192
 3065W        W19139   2.002   8.858   0.301  0.1572  0.0862  0.4598
 3066W        W19140  14.433  13.689   0.493 -0.1183 -0.0085  0.1082
 3067W        W19141  13.605   0.223  12.658  0.2877  0.0802  0.1137
 3068W        W19142   9.116   5.353   1.512 -0.1221  0.3016  0.3988
 3069W        W19143   1.531   5.994  12.660  0.1634  0.1439  0.3074
 3070W        W19144  15.461   1.973  13.491  0.3826 -0.0771 -0.2229
 3071W        W19145   5.903  16.780  11.951  0.2290 -0.1353  0.1249
 3072W        W19146  15.623  16.272  12.246 -0.0780 -0.3162 -0.0057
 3073W        W19147   3.569   6.414  15.173 -0.3062 -0.2186 -0.2366
 3074W        W19148   3.097   6.537  12.858  0.1232 -0.1771  0.1465
 3075W        W19149   2.200   8.724   5.090 -0.1465 -0.1527 -0.0245
 3076W        W19150   3.076   9.674  16.793 -0.0471 -0.0108 -0.0261
 3077W        W19151   6.000  13.932   0.700 -0.0869 -0.1666 -0.0627
 3078W        W19152   5.738   8.542   3.549 -0.0145  0.1671 -0.2243
 3079W        W19153   6.748   2.960  11.397 -0.0875 -0.1223  0.2223
 3080W        W19154  14.822  10.753  13.800  0.0781  0.1203 -0.1364
 3081W        W19155   9.439  14.058   5.201  0.3001 -0.4339 -0.0754
 3082W        W19156   0.685   6.100   3.556  0.1613 -0.2554  0.0558
 3083W        W19157  17.132  14.518  12.543  0.2244 -0.0922 -0.0277
 3084W        W19158  13.572  17.593  14.005 -0.1323 -0.1403 -0.1690
 3085W        W19159   2.864   6.718  12.427  0.1569  0.0029  0.4488
 3086W        W19160  15.629  11.664   4.685 -0.0498 -0.0853  0.2337
 3087W        W19161   0.946  11.387  14.923  0.2635  0.0139 -0.0327
 3088W        W19162   3.987   6.637   1.321 -0.2537 -0.3063 -0.1100
 3089W        W19163   0.412   6.362  11.281 -0.0915 -0.1981 -0.1280
 3090W        W19164  11.667  15.840   3.576 -0.2180  0.0018  0.1759
 3091W        W19165   2.205   9.063  15.539 -0.0555 -0.1671 -0.1767
 3092W        W19166  14.973  16.588   4.152 -0.3652  0.0675  0.0065
 3093W        W19167   7.166   2.813  16.507 -0.0031  0.1072  0.0375
 3094W        W19168   0.738   1.836   5.224  0.3035 -0.1060 -0.1350
 3095W        W19169  13.742  16.617  14.874 -0.1716 -0.3929  0.2771
 3096W        W19170   6.319  17.264   3.562  0.0101  0.0568  0.0033
 3097W        W19171  11.093  10.690  13.319 -0.1771 -0.0003 -0.0391
 3098W        W19172   6.355  17.166   0.021  0.0693 -0.0475 -0.0538
 3099W        W19173   7.008   3.666  13.977  0.2349  0.0960  0.2303
 3100W        W19174  15.044  13.625   1.663  0.1815  0.2414 -0.1402
 3101W        W19175   1.767  16.600   4.577  0.0695 -0.2350  0.0095
 3102W        W19176   4.698   1.125   3.124  0.0107 -0.1009  0.0923
 3103W        W19177   5.442   1.310   4.193  0.2734  0.0097  0.2603
 3104W        W19178  12.520  10.212  12.872 -0.0788  0.0241 -0.1277
 3105W        W19179   7.420   6.494   5.634  0.0911 -0.0549 -0.1036
 3106W        W19180  12.050   7.045   3.271  0.0324  0.0341 -0.3501
 3107W        W19181   0.625  16.991   4.000 -0.0093  0.0665  0.1075
 3108W        W19182  13.233   0.726   1.056  0.0550  0.1291 -0.1895
 3109W        W19183   0.457   5.553  15.897 -0.0658 -0.1620 -0.2832
 3110W        W19184  15.089  13.768  13.132 -0.0520  0.1529 -0.0012
 3111W        W19185   1.514   1.192   0.509  0.1063 -0.0944  0.1133
 3112W        W19186   7.154  17.592   0.716  0.0769 -0.0207  0.0351
 3113W        W19187   4.660  14.855   4.319 -0.0329  0.5196  0.0037
 3114W        W19188   5.281  16.717   5.834 -0.1204  0.1211  0.0170
 3115W        W19189  13.666   5.144  12.092  0.0687  0.0478  0.1642
 3116W        W19190   3.212   1.347   4.915  0.2588  0.0066  0.1806
 3117W        W19191   0.083   6.633   5.634  0.1076  0.0271  0.1176
 3118W        W19192   3.000   2.342   5.103 -0.1021 -0.2591 -0.4499
 3119W        W19193  16.760  13.557  11.941 -0.0842  0.3145 -0.2028
 3120W        W19194   2.494   2.986  13.435  0.0478 -0.0253 -0.0059
 3121W        W19195   6.987   2.174  13.095 -0.1965  0.0708  0.1342
 3122W        W19196   3.907  13.566  16.552  0.0692 -0.0682  0.2355
 3123W        W19197  13.853   8.897   5.761  0.1531 -0.1720  0.2390
 3124W        W19198  16.069   5.554  15.493 -0.3327 -0.1562  0.1701
 3125W        W19199   6.061  15.086  16.181 -0.0081  0.0524  0.0180
 3126W        W19200   5.236   7.285  13.527 -0.4661 -0.1473 -0.0082
 3127W        W19201   6.571   1.888   1.219 -0.1856  0.1899  0.0116
 3128W        W19202   9.754   6.169   2.999 -0.0039 -0.0921  0.1135
 3129W        W19203  15.580   6.916   3.516 -0.1555  0.2208  0.1890
 3130W        W19204   2.060   9.136   2.458 -0.2579  0.0622  0.0398
 3131W        W19205   3.350  10.684  12.142  0.1557 -0.1394  0.5433
 3132W        W19206  11.430   5.353   1.000 -0.2456 -0.3535 -0.1606
 3133W        W19207   1.834   6.205   2.819  0.0024 -0.1375 -0.1542
 3134W        W19208   2.676   1.799  16.736 -0.0385 -0.0987  0.0981
 3135W        W19209   3.387   1.448   1.155 -0.0859 -0.0518  0.1136
 3136W        W19210   6.698  13.303   4.307 -0.1204 -0.2421 -0.0433
 3137W        W19211   1.618   8.180   6.229  0.1612  0.2432 -0.0369
 3138W        W19212   0.134  17.126   2.528 -0.0120  0.1263  0.0697
 3139W        W19213  14.702   0.830   0.924  0.0853 -0.0977 -0.1760
 3140W        W19214  12.700  16.039   2.153  0.0483  0.0740 -0.0225
 3141W        W19215   1.563  11.014   4.066  0.1220 -0.0018  0.1310
 3142W        W19216   0.063   2.216   2.570 -0.0344  0.0637 -0.0010
 3143W        W19217   8.474  14.332  14.245  0.1801  0.3401  0.2259
 3144W        W19218  14.501   0.612  15.948  0.0200 -0.1373 -0.2091
 3145W        W19219   5.018   1.935  13.975 -0.2289  0.1975 -0.0097
 3146W        W19220  15.629  12.402   0.408  0.1656  0.1833 -0.3085
 3147W        W19221  14.583  17.119   3.338 -0.0269 -0.0904 -0.0324
 3148W        W19222  17.346   2.727   5.618  0.2537  0.1168 -0.2517
 3149W        W19223   2.845  15.085   0.882  0.4470  0.0887 -0.2615
 3150W        W19224  16.239  15.629   5.806 -0.1837  0.2205 -0.3412
 3151W        W19225   2.722  17.093   0.342 -0.1812 -0.0147  0.0424
 3152W        W19226   2.645   0.938  15.600  0.0978  0.1753  0.2212
 3153W        W19227  12.520   2.234  13.914  0.1842  0.1422  0.0633
 3154W        W19228   0.146  16.453   0.311 -0.4478 -0.0389  0.1717
 3155W        W19229  14.678  16.869  14.245  0.1363  0.0213 -0.2146
 3156W        W19230   9.013   8.615   5.647 -0.1627 -0.3342 -0.1158
 3157W        W19231  16.611   0.702   2.106 -0.0051  0.0683 -0.2225
 3158W        W19232  11.840  11.773  13.566 -0.3027  0.0730  0.0505
 3159W        W19233   8.374   2.303   3.694  0.1699 -0.1350  0.2676
 3160W        W19234  17.050   0.231  16.828 -0.0512 -0.1299  0.0501
 3161W        W19235   6.542  11.755   4.859  0.2217  0.1752  0.2744
 3162W        W19236   2.365   6.800  14.439  0.1216  0.3029 -0.0148
 3163W        W19237   4.950  13.786   1.309  0.1473 -0.3728  0.1752
 3164W        W19238  10.278  13.670  13.983  0.0757  0.0801 -0.0670
 3165W        W19239  14.492   9.608   1.956  0.1312 -0.5070  0.1348
 3166W        W19240   8.367   3.118  15.688  0.1380  0.0191 -0.3672
 3167W        W19241   2.031   4.912  15.758  0.1517 -0.0367  0.0027
 3168W        W19242   4.867  15.866   4.712 -0.2798 -0.0549  0.1009
 3169W        W19243   1.057  11.079   5.009  0.0782 -0.0456 -0.0613
 3170W        W19244  13.116   5.820  15.883  0.1445 -0.3651 -0.0617
 3171W        W19245  12.219  17.171   2.328 -0.1937  0.1545  0.3207
 3172W        W19246  14.898  11.899  13.586 -0.1559  0.0624 -0.0498
 3173W        W19247  16.719   3.267   3.732  0.1038 -0.1184  0.0854
 3174W        W19248   8.069   3.617  12.371 -0.0412  0.2940  0.0674
 3175W        W19249   5.106   6.157  16.067 -0.0379  0.0556  0.0911
 3176W        W19250   3.921   1.547  14.914  0.0878  0.3253  0.2594
 3177W        W19251   6.287   0.938   1.169 -0.1086  0.0153 -0.0895
 3178W        W19252  17.280  14.832  11.584 -0.0661 -0.0523 -0.1263
 3179W        W19253  12.758  16.962  15.577  0.2933 -0.0831 -0.0526
 3180W        W19254   5.134  17.697  14.563  0.3546 -0.1006  0.0965
 3181W        W19255  14.901   1.748   2.557 -0.3727 -0.1728  0.2290
 3182W        W19256   7.394  15.744  16.872  0.0405 -0.0687 -0.0547
 3183W        W19257  15.587   5.099  14.665 -0.0221 -0.1062 -0.0459
 3184W        W19258   9.834  11.190  11.915 -0.0066  0.1357 -0.0907
 3185W        W19259   5.544   2.162  13.202  0.3193 -0.2841 -0.1596
 3186W        W19260   9.363  11.521  14.251  0.3067  0.1526 -0.0036
 3187W        W19261   9.162   9.198   4.670 -0.1454 -0.0413 -0.0924
 3188W        W19262  12.309   2.719  14.071 -0.2616 -0.2647  0.1195
 3189W        W19263   0.617  14.678  14.018 -0.3660  0.0986 -0.0632
 3190W        W19264   7.366   5.190  15.475  0.3201  0.0065 -0.1170
 3191W        W19265  12.738  12.900   1.546 -0.0553  0.0878 -0.0786
 3192W        W19266   5.685   5.582   2.527 -0.0041 -0.0842  0.0227
 3193W        W19267   9.829   8.813  14.892  0.0089  0.1476  0.2203
 3194W        W19268   4.239  11.546   4.856  0.0161 -0.0431  0.0998
 3195W        W19269   5.946  17.402  12.488  0.2138  0.0933  0.1989
 3196W        W19270   0.145   6.792  16.408 -0.1356  0.0924  0.1913
 3197W        W19271  10.533   5.256   4.877  0.1243 -0.0067 -0.0403
 3198W        W19272  17.179   3.179  16.414  0.3377 -0.0525 -0.0479
 3199W        W19273   8.933   0.294   1.581  0.0393 -0.1360 -0.3386
 3200W        W19274   5.368  14.914   2.739  0.2830  0.2047 -0.3335
 3201W        W19275   8.881   2.137  12.600  0.5683  0.3585 -0.0690
 3202W        W19276   6.563   3.487   5.738  0.0780  0.1825 -0.0250
 3203W        W19277   2.155   7.514  15.562 -0.3411 -0.1317  0.2191
 3204W        W19278   7.368   9.057   4.439 -0.3993  0.0552 -0.0913
 3205W        W19279   9.044   0.823  12.996  0.1789  0.1521  0.1607
 3206W        W19280  15.577   0.236   3.872 -0.1092 -0.1881 -0.0572
 3207W        W19281   6.794   2.710   0.709 -0.0687 -0.0369 -0.1871
 3208W        W19282  16.585  17.511  15.415  0.0119  0.1679  0.3759
 3209W        W19283   8.774   6.971  16.780  0.1055 -0.3016 -0.1560
 3210W        W19284   4.555   2.033   3.018 -0.0135 -0.3040  0.0726
 3211W        W19285  12.025   7.724  16.489 -0.1632  0.2869  0.0616
 3212W        W19286  12.130   1.175  16.313 -0.1542 -0.1088 -0.2120
 3213W        W19287   1.921  17.043   0.753  0.0438 -0.1547  0.1492
 3214W        W19288  17.407  13.643  15.976  0.1282  0.0790  0.1554
 3215W        W19289   9.186   3.830  16.645 -0.0538 -0.0437 -0.0725
 3216W        W19290  14.792  12.257  16.244  0.2564 -0.1469 -0.1648
 3217W        W19291  16.430  13.689   1.960  0.0184  0.2431 -0.3427
 3218W        W19292   5.856   2.309  16.785  0.1905 -0.1956 -0.1249
 3219W        W19293   0.907  10.220   3.161 -0.0758  0.0656  0.1739
 3220W        W19294  15.444  10.663  16.705  0.2088 -0.1709  0.4277
 3221W        W19295   6.131  15.825  12.337 -0.0806 -0.1700 -0.2065
 3222W        W19296   6.944  15.904  16.873 -0.1789 -0.2572  0.3889
 3223W        W19297   1.487   7.142  16.882  0.0010  0.0514 -0.0519
 3224W        W19298   0.237   2.397   5.261 -0.0531  0.1323  0.1250
 3225W        W19299   4.500   1.647   4.731  0.2014 -0.1934 -0.0725
 3226W        W19300  15.675  14.283  11.946 -0.0668  0.2346  0.2453
 3227W        W19301   4.237   9.549   0.806  0.0903  0.1657  0.3080
 3228W        W19302   3.814  14.783   0.663  0.2403 -0.0725  0.2344
 3229W        W19303   2.249   3.693   5.415  0.0352 -0.0218 -0.0148
 3230W        W19304  17.212   0.913   5.898  0.2842  0.0005  0.2403
 3231W        W19305   8.223  10.274   5.404  0.2137 -0.3534  0.1104
 3232W        W19306  12.458  17.318  16.153 -0.0886  0.1450  0.0575
 3233W        W19307   3.085  12.474  11.727  0.3504  0.3107  0.1188
 3234W        W19308   5.505   7.375  16.565  0.2182  0.1097 -0.0780
 3235W        W19309   8.291  16.429   4.240 -0.0393 -0.0084 -0.2522
 3236W        W19310  15.912  15.575  14.768 -0.0391 -0.1170 -0.0568
 3237W        W19311   6.789   4.811  14.140  0.1120  0.2863  0.1736
 3238W        W19312   7.232   3.601  12.798 -0.0088  0.1134  0.2471
 3239W        W19313   6.133   4.629   0.010  0.1108 -0.0252  0.1925
 3240W        W19314   5.911   0.286  16.445 -0.0882  0.1057  0.3008
 3241W        W19315  17.208   4.149  12.245  0.0156  0.1519  0.3344
 3242W        W19316   4.091  16.592   2.330  0.1140 -0.0845 -0.2107
 3243W        W19317   9.427  13.638  13.525  0.0546  0.1829  0.0703
 3244W        W19318   4.428   5.769  11.627  0.1579  0.1441 -0.1071
 3245W        W19319  16.421   9.451   2.963  0.2249  0.0401 -0.4353
 3246W        W19320  15.294  17.041  14.447  0.2500  0.0412 -0.3227
 3247W        W19321  16.129   7.584   0.547  0.1224  0.1113 -0.2389
 3248W        W19322   4.405  12.668   5.266 -0.0040 -0.3746  0.1375
 3249W        W19323   1.961   7.966   0.141 -0.1812 -0.0950  0.1411
 3250W        W19324   7.566   0.491   4.854  0.2229 -0.1212 -0.1435
 3251W        W19325  15.441  16.097  13.488  0.0909  0.3470 -0.1484
 3252W        W19326  17.054   7.480   0.215  0.2662  0.0332  0.2297
 3253W        W19327   8.794   1.886   1.588  0.1167 -0.0265 -0.0552
 3254W        W19328   0.781   3.541  13.593 -0.0646 -0.4746  0.0493
 3255W        W19329   1.330  17.792  11.606 -0.0648  0.2002  0.3545
 3256W        W19330  13.498  13.235   2.718 -0.3257 -0.0785 -0.1116
 3257W        W19331   0.590  13.710  13.479 -0.2500 -0.0376  0.1765
 3258W        W19332   5.874   2.330   1.543 -0.0469  0.1997  0.0811
 3259W        W19333   8.283   7.647   1.942  0.3011 -0.1344  0.1405
 3260W        W19334   0.157   9.858   3.649  0.1985 -0.0588  0.1437
 3261W        W19335  17.718  14.061   1.447  0.0634  0.0264  0.4149
 3262W        W19336  15.373  12.180   0.779  0.0277  0.0292 -0.1149
 3263W        W19337  17.217  14.649  15.634  0.3488 -0.0559 -0.5026
 3264W        W19338   3.127   6.544  15.161  0.1232 -0.0164 -0.2353
 3265W        W19339   6.986  11.225   2.634 -0.1993 -0.2329 -0.0533
 3266W        W19340  11.015   1.079   2.811  0.0261 -0.0064  0.3834
 3267W        W19341   8.170  13.836  16.367 -0.2228 -0.0684  0.1842
 3268W        W19342   2.880   5.851  14.910 -0.0882 -0.0740  0.0874
 3269W        W19343   4.765   8.384   5.606 -0.0428  0.0694 -0.1035
 3270W        W19344  12.229  17.721   4.795  0.1215 -0.3261 -0.4128
 3271W        W19345   1.669   9.122  11.708 -0.1948  0.0441 -0.0942
 3272W        W19346   3.453   0.191  16.198 -0.1729 -0.0575 -0.1702
 3273W        W19347   0.596   1.907  15.350  0.0304  0.1172 -0.0384
 3274W        W19348  16.097  14.992   3.805  0.1301  0.0911  0.1638
 3275W        W19349  15.903  15.464   4.219 -0.2154  0.0241 -0.3274
 3276W        W19350   7.738   4.158  16.150 -0.1230  0.2885 -0.2019
 3277W        W19351  16.283   3.544  13.161  0.1762  0.1400  0.4689
 3278W        W19352   5.340   4.459  13.009  0.1755 -0.2174  0.0409
 3279W        W19353  17.180  13.251   4.434 -0.2833  0.2773 -0.1585
 3280W        W19354   0.075  16.956   1.010 -0.0199 -0.2008 -0.0109
 3281W        W19355   0.702   4.295  16.134  0.0116  0.0029 -0.1804
 3282W        W19356   3.738   3.207   4.787  0.0452  0.3036 -0.1601
 3283W        W19357  14.686  10.456  13.016  0.1640  0.0862  0.0721
 3284W        W19358  13.083  10.141  13.002 -0.0638 -0.1021  0.2264
 3285W        W19359   8.852  12.067  13.966 -0.0620  0.1212 -0.1682
 3286W        W19360  17.424  17.585   1.299  0.2387  0.0415 -0.0265
 3287W        W19361  15.441  12.837  14.212 -0.0450 -0.0626 -0.0697
 3288W        W19362   5.061   6.135   2.281 -0.0124 -0.1219  0.0632
 3289W        W19363  12.616  13.622  16.762  0.0470  0.1212  0.4601
 3290W        W19364  13.605  10.706   5.115 -0.0316  0.0695  0.0852
 3291W        W19365   7.321   0.954  16.535 -0.2664  0.2479 -0.0500
 3292W        W19366  11.360  11.886  13.634 -0.3882 -0.2325  0.0927
 3293W        W19367   5.527   5.784  12.138 -0.2493 -0.0497  0.2881
 3294W        W19368  11.277  17.567   3.693  0.0067 -0.3287 -0.5077
 3295W        W19369   5.182   0.437   0.501  0.0334 -0.1024 -0.0532
 3296W        W19370   1.706   7.613   4.973  0.0416 -0.4892 -0.0676
 3297W        W19371  10.456   0.254   5.445 -0.0771  0.0320 -0.0958
 3298W        W19372   1.756   8.529   5.029 -0.1723  0.5542 -0.0620
 3299W        W19373   3.255  10.214  11.917 -0.0119 -0.1552  0.4428
 3300W        W19374   8.056  17.141  15.134  0.2302 -0.2508 -0.0132
 3301W        W19375   3.825   8.657   0.388 -0.0957 -0.0593  0.2152
 3302W        W19376  13.693  13.171  13.997 -0.1609  0.0502 -0.0372
 3303W        W19377  12.184  13.169  13.898  0.0695  0.1209  0.0156
 3304W        W19378  10.372   7.180   6.042  0.1657  0.1056  0.4739
 3305W        W19379   3.219  17.468  11.855  0.0895 -0.1728 -0.0789
 3306W        W19380  15.414   2.068   6.309 -0.0773  0.1123  0.0659
 3307W        W19381  15.176  12.083  13.170 -0.0363 -0.2385 -0.0797
 3308W        W19382   6.486  15.254  15.762 -0.1499 -0.2770 -0.5941
 3309W        W19383  11.863   7.199  13.813 -0.2320 -0.0139  0.1305
 3310W        W19384   3.882   9.829   4.012 -0.1414 -0.1844  0.3798
 3311W        W19385  15.992   6.562  14.477  0.0139  0.0084  0.1014
 3312W        W19386   2.400   7.095  13.180 -0.1470  0.1283  0.0375
 3313W        W19387  13.556  17.334  16.852  0.1350 -0.0487 -0.0662
 3314W        W19388  15.171   8.414   2.309 -0.1012 -0.0707  0.1179
 3315W        W19389  10.048  10.133  13.053  0.1377 -0.0477  0.1136
 3316W        W19390  10.253  13.552  12.314  0.1984 -0.0753 -0.0711
 3317W        W19391  12.073   3.248   3.137 -0.1046  0.0526 -0.1323
 3318W        W19392   3.204   1.628  13.149 -0.1399 -0.0037 -0.0845
 3319W        W19393   6.603   4.257   4.008  0.3415  0.0334 -0.0517
 3320W        W19394  15.482   2.148  13.005 -0.1616  0.0488 -0.0990
 3321W        W19395   2.536   4.095   2.654  0.2440 -0.0229 -0.0574
 3322W        W19396  11.084   7.615  15.086 -0.1148  0.1246 -0.5279
 3323W        W19397   5.936   9.836  14.758 -0.2089 -0.0460 -0.0483
 3324W        W19398   9.509  12.702  15.956 -0.1178 -0.0071 -0.0147
 3325W        W19399   6.879   4.737  16.563  0.2936  0.4228  0.0850
 3326W        W19400  14.327   2.530   0.427  0.1663 -0.0029 -0.2644
 3327W        W19401   1.393   0.022   1.495 -0.0359 -0.0304 -0.3944
 3328W        W19402  14.106  17.113  13.544  0.1021  0.0055 -0.1364
 3329W        W19403  16.390   6.293  16.196  0.2499 -0.0513  0.2660
 3330W        W19404  17.244   6.244  16.593 -0.1620 -0.0566 -0.0132
 3331W        W19405   5.442   2.390   5.658 -0.0143  0.4861 -0.0284
 3332W        W19406   3.502   9.718   0.108 -0.1156  0.1356  0.3899
 3333W        W19407   8.427  15.669  13.531 -0.1596 -0.1464  0.0556
 3334W        W19408  16.937  15.606  15.009  0.3466  0.0747  0.2923
 3335W        W19409   8.342   7.652   3.710 -0.0125 -0.0779  0.3120
 3336W        W19410  10.143  10.919   3.244 -0.1012 -0.1743 -0.2124
 3337W        W19411  16.979  13.434   3.575 -0.1133  0.1419 -0.1143
 3338W        W19412  11.003  12.881   3.033 -0.0004 -0.1016  0.1071
 3339W        W19413   9.944   1.178  14.095 -0.0440 -0.0833 -0.2296
 3340W        W19414  15.467  10.145   4.380 -0.2545 -0.2765  0.1345
 3341W        W19415   7.859  11.525   1.535 -0.1745  0.1866  0.2515
 3342W        W19416  14.992  15.040   5.958  0.0793 -0.1142  0.0220
 3343W        W19417  11.130   5.314  14.256 -0.1620  0.0711 -0.0763
 3344W        W19418   7.724   0.079  13.499  0.0787  0.0774  0.3062
 3345W        W19419   1.014  11.932  16.236  0.2168  0.1553  0.0168
 3346W        W19420  12.988  10.016  12.537 -0.0545  0.3037 -0.0381
 3347W        W19421  15.130  13.060  12.446  0.0523  0.1268 -0.1510
 3348W        W19422  15.881  14.675  12.133  0.2540 -0.0284 -0.1142
 3349W        W19423  16.199  11.312  12.136 -0.2403  0.0358  0.0249
 3350W        W19424   1.322   7.457   4.618 -0.1431 -0.0222 -0.3164
 3351W        W19425   9.899  12.009   0.060 -0.1387  0.1545  0.1246
 3352W        W19426   5.010  14.519  15.183  0.1951  0.0166  0.0961
 3353W        W19427   1.446   2.373  11.669  0.1347  0.3281  0.0422
 3354W        W19428   5.072   3.936   0.440  0.1333 -0.1340  0.0554
 3355W        W19429  16.753   1.032   5.614  0.3577  0.3497  0.0836
 3356W        W19430   8.827  13.401  16.221  0.0808  0.1785 -0.0845
 3357W        W19431  13.800   2.328  14.391 -0.0722  0.0321 -0.0606
 3358W        W19432   3.040  17.509   0.010 -0.2358 -0.1114  0.1199
 3359W        W19433  13.114   1.601   4.165 -0.4605  0.1464  0.1112
 3360W        W19434   4.271  12.801   1.599 -0.1059  0.0759  0.0563
 3361W        W19435   5.790  15.447  14.248 -0.1191 -0.3132  0.1150
 3362W        W19436   9.413  17.198  11.559 -0.1998 -0.2729  0.0242
 3363W        W19437  15.691   7.554   5.727 -0.0439  0.0601  0.0988
 3364W        W19438  10.564  14.090  16.608 -0.0168 -0.1509 -0.0889
 3365W        W19439  11.915  14.172  16.604  0.2699 -0.0388  0.0995
 3366W        W19440   8.292  17.376  16.043 -0.1870  0.0856  0.1682
 3367W        W19441  14.546  17.735  12.385  0.0388  0.1576  0.0987
 3368W        W19442  13.081  10.096   3.632  0.0033  0.0256  0.3052
 3369W        W19443   8.910  15.218  11.513  0.5016 -0.1183 -0.1575
 3370W        W19444  12.955  12.340  14.931 -0.0540 -0.1708  0.3877
 3371W        W19445  13.946   5.353   5.072 -0.0270 -0.0646  0.0522
 3372W        W19446   4.835   2.273  16.861  0.0273  0.0881 -0.0270
 3373W        W19447  16.663  12.080   5.069 -0.1013  0.1107  0.0149
 3374W        W19448   3.998   2.291  11.680  0.1627 -0.2381  0.2334
 3375W        W19449  11.728  10.975   4.298 -0.1004 -0.0228 -0.4389
 3376W        W19450   0.020  16.043  13.837  0.0984 -0.0817  0.0076
 3377W        W19451   3.752  15.886  12.429 -0.1948 -0.0918 -0.0822
 3378W        W19452  15.730  15.917   1.825  0.4175  0.2404  0.3019
 3379W        W19453  11.609   1.903   3.858 -0.0395 -0.2116  0.0691
 3380W        W19454   3.773  14.373  11.657 -0.0790 -0.0137  0.3619
 3381W        W19455   5.164   9.840   1.915 -0.0768  0.0262  0.1624
 3382W        W19456  16.906   0.456   3.465 -0.3098  0.0334  0.2203
 3383W        W19457   0.039  13.554   5.728  0.2082 -0.0427  0.0004
 3384W        W19458   3.043   4.283   6.135 -0.3783  0.1094  0.0538
 3385W        W19459   7.870  11.765  14.467 -0.3306  0.2422 -0.0623
 3386W        W19460  11.750  10.095   5.418 -0.0243  0.3504 -0.1024
 3387W        W19461  14.218   7.418   5.351  0.0740  0.0343  0.2695
 3388W        W19462  16.970  14.297  13.628 -0.1140  0.1249  0.0777
 3389W        W19463   2.525  14.830   4.671  0.2358 -0.2613  0.1907
 3390W        W19464   9.050  13.318  15.747 -0.1459 -0.5817  0.0128
 3391W        W19465   5.119   0.351  15.794 -0.1815 -0.2636  0.1442
 3392W        W19466  16.935  10.574  13.567  0.1814 -0.2140 -0.3505
 3393W        W19467   8.789   8.159   2.952  0.1771 -0.0795  0.0736
 3394W        W19468  11.381  13.854   0.380  0.1503 -0.1078  0.0151
 3395W        W19469  12.146  17.616   3.277 -0.0032 -0.2127  0.0515
 3396W        W19470  10.822  14.937   1.521  0.1695 -0.1119 -0.0069
 3397W        W19471   0.799   0.183  14.658 -0.0272 -0.0005  0.2395
 3398W        W19472  10.217  13.403   3.491 -0.2399  0.3157 -0.2783
 3399W        W19473   2.946  12.276  15.784  0.1516 -0.3539 -0.0810
 3400W        W19474  12.388   0.990   1.299  0.0562  0.1769 -0.0583
 3401W        W19475  16.592   0.004  13.562 -0.1044 -0.1363  0.0580
 3402W        W19476  17.468   4.864   4.676 -0.1023 -0.0601 -0.2666
 3403W        W19477   4.785   4.975   1.065 -0.1587  0.0489 -0.1768
 3404W        W19478  16.497  10.721   0.350 -0.0955  0.0261  0.1747
 3405W        W19479  10.054   4.430  16.081 -0.1509 -0.0691  0.0632
 3406W        W19480   7.408  13.536  14.086  0.0151 -0.1431 -0.0604
 3407W        W19481  17.804   8.810   3.040 -0.0511 -0.0843  0.0301
 3408W        W19482  14.475  16.310  12.550 -0.1921  0.0083 -0.4006
 3409W        W19483  11.444  14.022  12.146 -0.0441 -0.2719 -0.2904
 3410W        W19484  16.660   3.622   5.376  0.0297 -0.0775  0.3069
 3411W        W19485  16.461   8.930  13.132 -0.0709  0.1565  0.2229
 3412W        W19486  14.409   7.719  11.944  0.1493 -0.2471  0.2441
 3413W        W19487   4.799   3.527   2.033 -0.1695  0.2023 -0.0775
 3414W        W19488   3.886   4.209   3.116 -0.0870 -0.0508 -0.0502
 3415W        W19489   7.604   8.321   0.088  0.1703  0.0399  0.0587
 3416W        W19490  17.460   4.572  15.568 -0.3913  0.1269 -0.0695
 3417W        W19491   9.071  17.438  15.744  0.4669 -0.0409  0.2686
 3418W        W19492  11.924  12.401   0.526  0.0993 -0.2257 -0.2069
 3419W        W19493  12.851  13.064   2.000 -0.3146  0.0331 -0.0600
 3420W        W19494   3.514  17.410   0.060 -0.2615 -0.0627  0.3185
 3421W        W19495   7.659  12.136  13.519  0.0114 -0.0064 -0.3393
 3422W        W19496   4.421   5.937  14.649  0.0587  0.1629  0.0156
 3423W        W19497  16.810   2.650  13.361 -0.0428  0.0671  0.0156
 3424W        W19498  12.018   0.324  14.935  0.2417  0.2234  0.0673
 3425W        W19499   9.107  17.609   0.638  0.0657  0.0086 -0.1520
 3426W        W19500   2.108  15.790   4.033 -0.3272  0.0248  0.1332
 3427W        W19501  13.476  10.335   4.133  0.2125  0.0387 -0.0977
 3428W        W19502   9.914  10.721  15.300  0.2617 -0.1249  0.0085
 3429W        W19503  12.814  13.422  12.322  0.0396  0.0565 -0.1889
 3430W        W19504   9.683  10.992   3.501 -0.0759  0.3904  0.3424
 3431W        W19505   0.924   9.164  13.945  0.1171 -0.0612 -0.2401
 3432W        W19506   5.412   2.592  13.428 -0.4120 -0.0405 -0.0066
 3433W        W19507   6.614   8.383   4.608 -0.2389 -0.0217  0.5941
 3434W        W19508   0.723  10.060   1.230  0.1238 -0.0570 -0.1344
 3435W        W19509   4.015   2.509  14.911 -0.1648 -0.0283  0.1036
 3436W        W19510   5.186  10.288   3.737  0.1532  0.1665 -0.0163
 3437W        W19511   4.732   9.723   1.413 -0.1363 -0.2001  0.0311
 3438W        W19512   5.251   2.475  16.406 -0.0177 -0.0794 -0.6300
 3439W        W19513   4.418  17.600   4.105  0.1322  0.0374  0.0509
 3440W        W19514  11.035  15.524  16.438 -0.1805  0.2418  0.1274
 3441W        W19515   9.874  17.821  15.957  0.0853  0.3266 -0.1883
 3442W        W19516  17.030   4.692  13.906 -0.1761 -0.1453  0.2475
 3443W        W19517   4.310  15.204  16.684  0.0637  0.1466 -0.2292
 3444W        W19518   0.611   7.340   0.591  0.2648  0.0675  0.2338
 3445W        W19519  17.062   0.271  15.959  0.1155 -0.3097  0.0860
 3446W        W19520  13.771  15.695   2.014  0.0674  0.0032 -0.0194
 3447W        W19521   2.855  11.500   3.351 -0.1705  0.0378 -0.0100
 3448W        W19522   5.065   5.880  15.122 -0.3427 -0.0180 -0.3793
 3449W        W19523   3.842  11.306  12.553 -0.4650 -0.0696  0.0221
 3450W        W19524   9.387   3.803  16.156  0.0070 -0.0552 -0.0624
 3451W        W19525   3.605   9.783  12.071  0.0421  0.0030 -0.0893
 3452W        W19526   0.086   9.050  15.160  0.1052  0.2343 -0.1760
 3453W        W19527   0.951   0.413  11.949 -0.2584  0.1177  0.1838
 3454W        W19528   7.946  14.990  15.386 -0.2557 -0.0957 -0.1530
 3455W        W19529   9.002   4.491   0.387 -0.3228  0.2959  0.2026
 3456W        W19530   4.196   9.955   4.946  0.0777  0.1447  0.0991
 3457W        W19531  16.870  13.303  12.435 -0.1949 -0.0482  0.4760
 3458W        W19532   1.630   0.378   3.143 -0.0294 -0.2975  0.0825
 3459W        W19533   4.774   1.899  12.542 -0.2353  0.0795 -0.1273
 3460W        W19534   7.995  11.634   4.080 -0.1559 -0.1514  0.1002
 3461W        W19535   0.776   5.013   1.342 -0.0362 -0.2738 -0.0798
 3462W        W19536   8.267   3.858   6.061  0.0235  0.1853  0.0276
 3463W        W19537  17.492   9.731   4.010  0.1338 -0.2390 -0.1187
 3464W        W19538   4.543  14.298   6.149 -0.2067  0.1864 -0.1265
 3465W        W19539  16.115   9.521   0.827  0.0269 -0.2958 -0.2331
 3466W        W19540  10.891   9.747  11.735  0.0521  0.0027 -0.2071
 3467W        W19541  17.278   9.595  14.669 -0.1365 -0.1840 -0.0796
 3468W        W19542   3.964  15.956   5.782  0.0399  0.1263  0.0919
 3469W        W19543   0.574  12.020  13.900  0.0027  0.0980  0.3079
 3470W        W19544   4.387   3.580   0.511  0.0957  0.0228  0.1332
 3471W        W19545  17.071  14.309   2.476 -0.0513 -0.2161 -0.0808
 3472W        W19546   9.753   9.266   4.697 -0.3655 -0.0270 -0.0543
 3473W        W19547  10.504  15.337  15.832  0.0198 -0.1977 -0.2807
 3474W        W19548   3.692  10.345  16.564 -0.0914  0.2087  0.0395
 3475W        W19549  14.048   3.286   0.054  0.1118 -0.0767 -0.1265
 3476W        W19550   2.045   2.990  16.683 -0.3785 -0.1254 -0.0854
 3477W        W19551  11.084  12.368   1.571 -0.0016  0.0831 -0.2658
 3478W        W19552   3.168  12.990  12.030  0.1763 -0.0927 -0.2649
 3479W        W19553   5.875   2.100  11.555  0.1517 -0.1063  0.2473
 3480W        W19554  10.289  11.826   0.321 -0.2070 -0.3445  0.4447
 3481W        W19555  14.229   7.345  14.431 -0.2609 -0.1437  0.2318
 3482W        W19556  15.163  17.708  15.637 -0.1136 -0.1628 -0.1503
 3483W        W19557   6.058   8.579  13.726 -0.2673 -0.1289 -0.0151
 3484W        W19558  15.579   8.723   2.663  0.0925  0.0387 -0.0804
 3485W        W19559   1.380  15.845  16.739  0.2510 -0.1006  0.0260
 3486W        W19560  13.594   9.039   4.766  0.0254  0.0358 -0.1401
 3487W        W19561  17.701  16.505   5.667 -0.1534 -0.3258 -0.4788
 3488W        W19562  12.496   0.892  16.644  0.3129 -0.1459 -0.3001
 3489W        W19563   0.740   1.385  15.841 -0.3150 -0.1571 -0.2422
 3490W        W19564  16.235  17.040   3.576  0.1366  0.1894  0.1641
 3491W        W19565  10.629   7.772   1.660 -0.2672  0.0684  0.0026
 3492W        W19566  10.160  12.118  16.218  0.0547 -0.0125  0.2718
 3493W        W19567  12.978   5.588   6.020 -0.2948 -0.1507  0.0405
 3494W        W19568   4.555  17.000   0.834 -0.0514  0.0854 -0.0800
 3495W        W19569   9.334  12.937  13.953 -0.0687 -0.0676  0.2409
 3496W        W19570   1.305   5.386   4.791  0.0241  0.2667  0.0578
 3497W        W19571   3.521   3.098  15.045  0.2267  0.0016 -0.2089
 3498W        W19572  11.640   3.959  15.316 -0.1404  0.1261  0.0232
 3499W        W19573   8.369  10.529   4.795  0.4881  0.0080 -0.0779
 3500W        W19574   9.183   7.553   0.227 -0.0262  0.0065  0.1042
 3501W        W19575   5.376   1.922  11.340 -0.3862 -0.2894 -0.1416
 3502W        W19576  12.466  15.099   2.816  0.0797  0.0925  0.1205
 3503W        W19577  14.528  16.051   2.174  0.2840 -0.1953 -0.0983
 3504W        W19578  15.065   1.372   5.927 -0.2509 -0.2465 -0.1346
 3505W        W19579  11.465   3.786   5.593  0.0459  0.2682  0.0127
 3506W        W19580  14.134   3.510   3.465 -0.0693  0.1827  0.0673
 3507W        W19581   5.305  16.165  14.941 -0.3195  0.1258 -0.3454
 3508W        W19582   9.523   5.421  14.674 -0.0297 -0.0306 -0.0956
 3509W        W19583   8.800   1.604  14.734  0.1004 -0.1186 -0.0637
 3510W        W19584  12.859  14.977   1.821  0.2778 -0.0300  0.2217
 3511W        W19585   5.270  16.275  11.575 -0.0218  0.2031  0.0041
 3512W        W19586  12.148   9.071   1.033 -0.1896  0.2774 -0.2460
 3513W        W19587   5.176  13.062  12.743 -0.1882  0.0837  0.1619
 3514W        W19588   8.795  15.235  12.939 -0.2421  0.1579 -0.2365
 3515W        W19589   5.579   9.919   0.856 -0.0368 -0.1126 -0.0631
 3516W        W19590   4.082  11.309  16.671 -0.2110 -0.0519  0.3263
 3517W        W19591   0.431  14.547  16.355 -0.0314  0.1017 -0.3549
 3518W        W19592  10.716   0.515   4.963  0.1666 -0.3212 -0.0432
 3519W        W19593  11.921   4.557   0.340 -0.0628 -0.2961 -0.0571
 3520W        W19594  14.556  14.658   1.293  0.1059  0.1818  0.1068
 3521W        W19595   0.734   0.075   5.066  0.2055  0.1276  0.0088
 3522W        W19596  13.865   1.459  15.955 -0.0925 -0.1605  0.2638
 3523W        W19597   0.080   1.580  13.040  0.0811  0.0595  0.1470
 3524W        W19598   0.103   4.708   0.039  0.0253 -0.0908 -0.1612
 3525W        W19599   3.625   1.581   0.165 -0.1250 -0.2870 -0.4745
 3526W        W19600  14.847  15.601   3.256  0.1558  0.0205 -0.0259
 3527W        W19601  15.572  14.790  14.020  0.1612 -0.2873  0.1316
 3528W        W19602   8.750   4.656  16.454 -0.2626  0.1336 -0.0462
 3529W        W19603   9.779   9.503  11.755  0.1688 -0.0585 -0.0621
 3530W        W19604   9.498  16.748  15.289  0.0847  0.2595 -0.2633
 3531W        W19605  14.678  10.024  15.928  0.1067 -0.1798 -0.0842
 3532W        W19606   0.242  12.562  14.658 -0.0052 -0.1476  0.1666
 3533W        W19607   4.145  14.114   0.354 -0.0525 -0.2250 -0.2830
 3534W        W19608  13.909  12.911  10.835  0.4151 -0.0070  0.1304
 3535W        W19609   5.912  11.675  13.701  0.0116  0.3349 -0.2522
 3536W        W19610   7.243  13.893   5.748  0.0227  0.0170 -0.2835
 3537W        W19611  12.720   7.528   1.803  0.0295 -0.1927 -0.4014
 3538W        W19612  14.893   2.452  15.056  0.0997 -0.1314  0.2601
 3539W        W19613   6.963   7.478   0.544 -0.0698  0.0415  0.3404
 3540W        W19614   9.579   3.041   1.324  0.2299  0.1251  0.0125
 3541W        W19615  10.583  17.267  16.072  0.2198 -0.0704  0.1269
 3542W        W19616   7.345   0.943   2.284 -0.1087  0.0699 -0.0367
 3543W        W19617   8.911   8.722  16.336  0.0734  0.0267  0.1579
 3544W        W19618   9.775  17.589   3.734  0.0178 -0.2734  0.1317
 3545W        W19619   5.913   6.388   6.007 -0.1869  0.2146 -0.0707
 3546W        W19620   8.003  13.754   3.833 -0.2103  0.0232  0.0103
 3547W        W19621   1.415   8.006  11.762 -0.1636  0.2502  0.0097
 3548W        W19622  10.435   6.176   0.101 -0.1414  0.3521  0.0914
 3549W        W19623   6.853   6.716   4.858  0.1366 -0.3893 -0.1030
 3550W        W19624  11.569   7.020   1.007  0.0120 -0.0707  0.0440
 3551W        W19625   4.448  12.117  14.577  0.0832  0.0538  0.0393
 3552W        W19626   6.791  16.136  16.378  0.0212 -0.0420  0.2113
 3553W        W19627  15.834  15.853  12.277  0.0972 -0.0921 -0.0488
 3554W        W19628   7.017   0.472   2.439 -0.1089  0.0631  0.0165
 3555W        W19629   9.707   5.990  14.501 -0.2431  0.0001 -0.1349
 3556W        W19630   8.391  12.577   0.818  0.2449  0.2175 -0.1083
 3557W        W19631  10.713  12.118  16.779  0.1212 -0.1849 -0.0224
 3558W        W19632   6.859   7.219   4.739 -0.1767  0.0591 -0.1440
 3559W        W19633  12.435   1.394   2.561  0.2730 -0.1398  0.1542
 3560W        W19634  16.097  11.320   3.697  0.0266  0.2041  0.1335
 3561W        W19635  10.489  16.581   2.616 -0.2420 -0.1273  0.0640
 3562W        W19636   4.445  17.588  15.627 -0.0033 -0.0090  0.2764
 3563W        W19637  12.511  12.690  14.798  0.0114  0.1126 -0.0070
 3564W        W19638   3.936  14.455   4.948 -0.0944 -0.2807 -0.2741
 3565W        W19639   9.749  14.661   3.500  0.1999 -0.2466  0.0940
 3566W        W19640   7.788   7.386   5.704 -0.2228 -0.2558 -0.0156
 3567W        W19641  16.293  15.106  15.915 -0.2624 -0.2758 -0.1748
 3568W        W19642   1.993   0.502   5.246  0.3668 -0.1357 -0.0006
 3569W        W19643  17.290   5.935  16.170 -0.3214 -0.0588 -0.1136
 3570W        W19644   5.946   5.097   1.961 -0.2531  0.0453 -0.0641
 3571W        W19645   6.643  10.693  13.526 -0.1737 -0.0683  0.0543
 3572W        W19646   3.825   9.185   4.954  0.1913 -0.0818 -0.0111
 3573W        W19647   1.011  10.734   4.644 -0.1984  0.0820  0.0917
 3574W        W19648  17.107   9.892   2.274 -0.0615  0.0498  0.1145
 3575W        W19649   0.821   5.187  15.194 -0.1991  0.2386  0.2133
 3576W        W19650  15.689  12.402   4.149 -0.0575 -0.0410 -0.2516
 3577W        W19651  14.320   0.373  13.872 -0.0528 -0.1485 -0.1165
 3578W        W19652   5.575  11.837  12.690  0.0896  0.0959 -0.1404
 3579W        W19653  10.472   8.887  13.294  0.0042  0.0156 -0.1799
 3580W        W19654  12.112   7.649  12.560  0.0144 -0.0965  0.4756
 3581W        W19655  16.111   8.893  15.434  0.5242 -0.2441  0.1149
 3582W        W19656   4.401   1.603  14.683  0.1445 -0.2898  0.0810
 3583W        W19657  12.667   9.424   0.766 -0.1006  0.1027 -0.0978
 3584W        W19658   8.430   5.353   4.666 -0.1552  0.3487 -0.0533
 3585W        W19659  15.025   1.879   1.080  0.1546  0.1597  0.4069
 3586W        W19660   7.255   7.970  14.417 -0.0860 -0.2855  0.0403
 3587W        W19661  15.295   1.861  14.915 -0.1769  0.1343  0.0522
 3588W        W19662  10.186  15.314  13.104  0.1260  0.0645  0.2129
 3589W        W19663   8.421  16.292  11.723 -0.1572 -0.0302  0.1403
 3590W        W19664   0.882  12.928  16.819 -0.0500  0.0182 -0.1351
 3591W        W19665   1.610   4.524  16.947 -0.2747  0.2802 -0.1608
 3592W        W19666   5.524   0.547  16.566 -0.3152 -0.0971 -0.0372
 3593W        W19667  12.866   4.702   0.938  0.2093 -0.0193 -0.0190
 3594W        W19668  11.716  12.899   0.592 -0.2651 -0.1144 -0.0838
 3595W        W19669   8.390  17.565  11.964 -0.1290  0.1091 -0.1603
 3596W        W19670   9.404   4.051  12.432  0.0017 -0.0243  0.1633
 3597W        W19671   8.948   8.269  12.500  0.2403 -0.3590 -0.1120
 3598W        W19672  11.653   6.856  12.213  0.0777 -0.0026  0.1050
 3599W        W19673   6.158   6.122   5.342  0.0939  0.0283  0.0250
 3600W        W19674  14.716   3.661  11.786  0.1885 -0.1206  0.2270
 3601W        W19675  15.881  16.851   5.630  0.0176  0.0684  0.3402
 3602W        W19676  16.810  10.557   5.075  0.2634  0.1734 -0.1606
 3603W        W19677   2.804  14.549   1.004  0.1228  0.5238 -0.3952
 3604W        W19678   7.637   3.228   2.242  0.0070 -0.0091  0.1106
 3605W        W19679   8.854   3.796  13.574  0.0694 -0.1547 -0.3876
 3606W        W19680   9.105   9.767  12.772 -0.1961 -0.0960  0.0681
 3607W        W19681   8.352   3.350  13.685 -0.0442 -0.2045  0.0917
 3608W        W19682  15.656  11.408  14.941  0.2715  0.0344 -0.1830
 3609W        W19683   9.466  15.815  14.558  0.3443 -0.3376 -0.1502
 3610W        W19684   8.055   4.564   1.107 -0.3447 -0.1686  0.0381
 3611W        W19685  14.027  17.063   1.609 -0.1006 -0.1935 -0.0347
 3612W        W19686  11.305   6.361   3.139  0.0362  0.3186  0.0238
 3613W        W19687   0.884   0.453  13.802 -0.4615 -0.0619  0.0120
 3614W        W19688   7.436   5.127  13.356  0.0145 -0.0177 -0.1399
 3615W        W19689   6.442   0.638   3.677  0.4238 -0.2052 -0.0082
 3616W        W19690   9.845   0.787  15.455 -0.0771 -0.0607  0.0623
 3617W        W19691   7.271   5.059  14.123 -0.1645  0.2722 -0.0232
 3618W        W19692   5.454   1.077   1.443 -0.1745 -0.2904  0.0328
 3619W        W19693   8.356   0.121  15.806  0.0440  0.0188  0.1953
 3620W        W19694   0.516   9.078   3.697  0.1018  0.1649  0.1093
 3621W        W19695   0.854  14.940  12.351 -0.0377 -0.0356 -0.1674
 3622W        W19696   0.010  17.575   5.952 -0.1128  0.0075 -0.2045
 3623W        W19697  14.720   4.681   3.066 -0.0453 -0.1282 -0.2023
 3624W        W19698   4.293  15.429   1.398 -0.2216  0.1785  0.1072
 3625W        W19699   1.075   3.749  12.244 -0.4063  0.0477 -0.2969
 3626W        W19700   1.355  14.911   4.166  0.2538  0.0507  0.2687
 3627W        W19701  17.188   9.629  14.184  0.0864  0.0309 -0.0987
 3628W        W19702   7.265   7.144   1.311 -0.1409  0.5056  0.1040
 3629W        W19703   5.309  10.001   6.261 -0.0123 -0.1678  0.1445
 3630W        W19704  16.990   6.725  13.965 -0.0518 -0.0347  0.2363
 3631W        W19705  11.075  17.812  11.595  0.0956  0.1275 -0.0470
 3632W        W19706   8.958  11.637  13.382  0.2455 -0.4886  0.0892
 3633W        W19707   4.670  13.284   3.807  0.1475  0.0321 -0.2163
 3634W        W19708   7.784  15.344   3.655  0.2274  0.0259  0.1161
 3635W        W19709   8.970  14.560  13.931 -0.1124 -0.0587 -0.3116
 3636W        W19710   3.221   2.972  12.662  0.3972 -0.1050 -0.0560
 3637W        W19711   7.761  13.004  14.847  0.3462 -0.5176  0.0742
 3638W        W19712  10.507   4.619   1.899 -0.0108 -0.0658 -0.1394
 3639W        W19713   7.000   6.667   3.493  0.0397  0.0057 -0.2216
 3640W        W19714  17.552   0.652   0.944  0.0209 -0.0638 -0.0437
 3641W        W19715   1.727   6.406  16.290  0.1182  0.0751  0.0149
 3642W        W19716  17.139   6.246  13.869  0.1057 -0.1588  0.3352
 3643W        W19717   8.169   8.117  13.524 -0.0841 -0.2399 -0.1156
 3644W        W19718  15.823   0.226   0.540 -0.0293  0.1234  0.2001
 3645W        W19719   2.549  17.534   2.919  0.0334  0.1153  0.2881
 3646W        W19720   3.091   1.511  12.232 -0.1381 -0.1919 -0.1212
 3647W        W19721  10.130   6.766   5.279 -0.0686  0.1154 -0.1639
 3648W        W19722   2.702  14.078  13.163  0.1607 -0.3729  0.2814
 3649W        W19723   9.223  13.515   0.725  0.1626 -0.1474  0.1027
 3650W        W19724  15.442   5.731   3.628 -0.2378  0.0668  0.2376
 3651W        W19725   6.490   9.258   0.341  0.1182  0.2732 -0.1593
 3652W        W19726   1.614  17.828   2.671 -0.1200 -0.0188  0.0369
 3653W        W19727   6.048   1.444   0.911  0.0525  0.2469 -0.1212
 3654W        W19728  11.910   4.706  14.552  0.2222  0.0347  0.0941
 3655W        W19729   8.311  13.427  16.248 -0.1174 -0.0051  0.1259
 3656W        W19730  13.713  16.852   0.292  0.0488  0.1620  0.0638
 3657W        W19731  17.254   7.101  16.858 -0.1893  0.0079 -0.0575
 3658W        W19732  13.901   6.622   3.421  0.4082 -0.0965 -0.1017
 3659W        W19733  16.952  13.783  12.439  0.2333 -0.1245  0.0093
 3660W        W19734  14.827  10.229  15.130 -0.1199  0.0759  0.1146
 3661W        W19735  17.120  13.557   3.102 -0.2501 -0.2926 -0.1737
 3662W        W19736  16.387   6.237  12.281 -0.0561 -0.0547 -0.0787
 3663W        W19737  17.305   3.664  16.549 -0.0699 -0.2047 -0.3445
 3664W        W19738   4.591  16.735   1.303 -0.0612  0.0328 -0.0205
 3665W        W19739   6.683  17.413   0.331 -0.1202  0.2156 -0.2385
 3666W        W19740   2.387  17.761   4.455 -0.0747  0.2484  0.1234
 3667W        W19741  13.306   8.292   3.448  0.2460  0.3127  0.1311
 3668W        W19742   9.050  15.024   2.740 -0.0937 -0.1117  0.0307
 3669W        W19743   8.139  12.196   0.285  0.2078  0.0976 -0.0427
 3670W        W19744  13.251   3.084   4.563 -0.1645 -0.3942 -0.0589
 3671W        W19745   0.456   8.745  15.198 -0.0130 -0.0959 -0.0268
 3672W        W19746  16.494   3.005  13.594  0.2291 -0.2393  0.0015
 3673W        W19747  12.211  15.185   4.872  0.1300 -0.2084  0.3802
 3674W        W19748   5.649   9.785   2.151 -0.2289  0.0903 -0.0111
 3675W        W19749  14.438   7.228  13.894  0.1146  0.0113 -0.3227
 3676W        W19750  14.039   4.974   6.591 -0.1909  0.2235 -0.1903
 3677W        W19751  16.689   3.409   0.451 -0.0893 -0.0836 -0.0346
 3678W        W19752  17.672  12.507  11.548 -0.0007 -0.1761 -0.1070
 3679W        W19753   6.078  13.831   4.798  0.2978 -0.0895  0.0375
 3680W        W19754   8.733  16.132   4.175  0.1715 -0.0781 -0.0410
 3681W        W19755  11.009   2.694  16.161 -0.0334 -0.2598 -0.0877
 3682W        W19756   6.031   3.201   2.349 -0.3683 -0.2604  0.1206
 3683W        W19757   8.135   2.472   0.993  0.1674 -0.0478  0.1721
 3684W        W19758   6.248   8.087   0.224  0.1760 -0.0439 -0.4206
 3685W        W19759  10.170  10.069   0.323  0.0365  0.0188 -0.0233
 3686W        W19760   4.554  17.396  16.802  0.0862  0.0817  0.0839
 3687W        W19761   3.770  17.195  13.840 -0.1530 -0.1696  0.0454
 3688W        W19762  13.975  13.837   3.799 -0.1946 -0.3499  0.0391
 3689W        W19763   0.884  17.654   2.179  0.1524 -0.2079  0.0183
 3690W        W19764   4.672  12.371   0.037 -0.2663 -0.1431  0.3986
 3691W        W19765   1.061  15.217   2.167 -0.1227 -0.1428  0.1602
 3692W        W19766   2.242   6.830  15.716  0.0842  0.1023 -0.1962
 3693W        W19767   7.887  12.431   4.557 -0.1451  0.0596  0.1101
 3694W        W19768   5.325   1.988   1.369  0.0201  0.1305 -0.2889
 3695W        W19769  16.021   8.595   2.819 -0.0438 -0.0361  0.1286
 3696W        W19770  17.096  12.971   2.351  0.1023  0.4661  0.1111
 3697W        W19771  15.199   3.062   1.819  0.3325 -0.2308  0.0017
 3698W        W19772   1.361   6.196   5.144 -0.2183 -0.1073 -0.3058
 3699W        W19773   8.924  13.637   5.239  0.0612 -0.1711 -0.1515
 3700W        W19774  11.151  15.701   1.373  0.0634 -0.0255  0.1832
 3701W        W19775   0.057  10.818   4.755 -0.1137  0.0045  0.0576
 3702W        W19776   9.058   5.087  14.230  0.2639  0.1120 -0.3274
 3703W        W19777   0.325  14.848  14.985  0.0877 -0.0742 -0.0701
 3704W        W19778  12.378  14.043  12.249 -0.0462 -0.0509 -0.0893
 3705W        W19779  13.114   4.933  16.646 -0.2527  0.3332 -0.1435
 3706W        W19780   2.169  12.188   3.689 -0.0590 -0.2929 -0.0986
 3707W        W19781   3.562   4.103   2.606  0.0015  0.1148 -0.0172
 3708W        W19782   3.594   8.173   3.277 -0.2917 -0.2600 -0.0307
 3709W        W19783  14.729   9.895   6.166  0.1337  0.1747 -0.1124
 3710W        W19784   6.484  16.306   4.570 -0.1245 -0.0745  0.0599
 3711W        W19785   3.588   1.884  16.706 -0.3262 -0.0091  0.0105
 3712W        W19786  11.352   1.912  13.842  0.0929  0.3264  0.0631
 3713W        W19787   1.409  17.054  16.607  0.3258 -0.1302  0.0088
 3714W        W19788   7.199  15.149   6.338  0.3497 -0.0194  0.1334
 3715W        W19789  13.349   7.243   0.820 -0.2282  0.1850  0.2806
 3716W        W19790  12.848  15.433   2.031  0.1230  0.2484 -0.4197
 3717W        W19791  16.978  17.468   6.127 -0.0736 -0.1427  0.2115
 3718W        W19792   2.171   7.584   5.754 -0.3111  0.0646  0.0131
 3719W        W19793   0.303  15.869  14.878  0.0682 -0.1300 -0.0498
 3720W        W19794   6.850   7.733   4.663 -0.1089 -0.0356 -0.1584
 3721W        W19795  10.114  14.903  13.353  0.1608  0.0753 -0.1360
 3722W        W19796   7.200   9.671   4.680 -0.0101  0.0904  0.2984
 3723W        W19797   2.314  14.531   5.570 -0.0085 -0.3641  0.3342
 3724W        W19798  14.168   3.906  15.383  0.1111  0.1115  0.0620
 3725W        W19799   1.861  10.097   0.038  0.3393 -0.3633 -0.0146
 3726W        W19800   4.571  11.890   0.800 -0.2642 -0.0172  0.0271
 3727W        W19801  10.790  14.955   4.149  0.1510  0.0109  0.3437
 3728W        W19802  14.760   8.798   0.508  0.1386 -0.2737  0.1086
 3729W        W19803  10.993   5.621   4.755 -0.0664  0.2106  0.0401
 3730W        W19804  12.972   6.082   4.141  0.1183 -0.0350 -0.2090
 3731W        W19805  13.502  16.435  12.982  0.0519 -0.0145 -0.0513
 3732W        W19806   2.404  12.310  12.938 -0.1247  0.1209  0.0688
 3733W        W19807  11.073  10.970  13.830  0.4170  0.1341  0.1139
 3734W        W19808  11.367   8.485  13.380  0.1102 -0.1635  0.0298
 3735W        W19809  15.100  11.139  11.533  0.3095  0.0757  0.1672
 3736W        W19810  10.274  11.537  14.030 -0.1428  0.0577 -0.1278
 3737W        W19811   1.416   5.766  14.798 -0.2051  0.1305  0.1313
 3738W        W19812   4.012  17.207   0.012 -0.0700 -0.2295  0.0145
 3739W        W19813   4.280  15.208  12.424  0.0878 -0.0882 -0.1585
 3740W        W19814   6.788  12.151  14.029  0.2541  0.3027  0.1756
 3741W        W19815   8.135   8.403   3.627 -0.1662 -0.0241 -0.0124
 3742W        W19816  16.896   9.416   5.785  0.1745 -0.0938  0.0086
 3743W        W19817   0.415  11.273  13.290  0.0777  0.0079 -0.0229
 3744W        W19818  13.175   7.715   1.593 -0.0368  0.0102  0.2903
 3745W        W19819  12.006   5.505   1.681  0.2181  0.2443  0.2221
 3746W        W19820   2.039  15.571  13.891  0.1867  0.2634  0.3027
 3747W        W19821   6.497   4.251   4.969 -0.1516 -0.0300  0.0071
 3748W        W19822  11.303  11.198   5.897  0.3172  0.0408 -0.0508
 3749W        W19823  14.206  17.802  15.606  0.0486  0.0602 -0.0271
 3750W        W19824  12.745  16.906  12.523 -0.0541 -0.2061 -0.2382
 3751W        W19825  16.225   5.367   3.748 -0.1768  0.0159  0.0746
 3752W        W19826   1.636  12.591  11.935 -0.1241  0.1486  0.0618
 3753W        W19827   2.936   5.396  13.622  0.0727  0.0436  0.1719
 3754W        W19828   8.008   8.646  12.523 -0.3046 -0.0762  0.1405
 3755W        W19829  16.811   4.706   2.699 -0.2282  0.0124  0.0407
 3756W        W19830   0.401   4.897  15.307  0.2322  0.2743  0.2400
 3757W        W19831   9.966  15.098   0.387  0.0608  0.1510  0.0510
 3758W        W19832   5.491  16.010   4.012  0.2001  0.0540  0.0788
 3759W        W19833   8.382   4.497  14.265 -0.0312  0.2824  0.1075
 3760W        W19834  13.786   9.956  15.915  0.1926 -0.0897 -0.0437
 3761W        W19835  13.597   7.036  15.043  0.0707 -0.2875  0.0801
 3762W        W19836   6.711  10.837   5.034 -0.2858  0.2709 -0.0018
 3763W        W19837   7.981  10.149   3.518  0.2286 -0.0278  0.0236
 3764W        W19838   2.038   3.173   5.321 -0.1512 -0.1235  0.0438
 3765W        W19839  16.323  12.781   4.607 -0.1910  0.2418 -0.0230
 3766W        W19840   4.231  14.271   2.987 -0.2093 -0.0251  0.2384
 3767W        W19841  10.110  16.930   0.876 -0.4451  0.3648  0.1190
 3768W        W19842   1.702  17.444   0.983 -0.1269  0.1049 -0.4553
 3769W        W19843   6.369   3.394   0.766  0.2539 -0.0695 -0.2095
 3770W        W19844  16.667  10.774   4.333 -0.4259  0.1238  0.0305
 3771W        W19845   5.149  13.030  11.802  0.0566  0.2413 -0.2497
 3772W        W19846   7.218   0.074  14.381  0.0126  0.1321  0.0703
 3773W        W19847  12.764   0.734  15.200  0.0550  0.0219 -0.2451
 3774W        W19848   9.124   3.717  13.986  0.3348  0.1352 -0.0908
 3775W        W19849   6.840   2.305   0.288  0.0621 -0.2300 -0.1905
 3776W        W19850   5.810  10.549   0.838 -0.0790  0.0132  0.1342
 3777W        W19851   0.747   2.919   2.541  0.0448 -0.0761 -0.1439
 3778W        W19852   1.590  17.614   4.841  0.1307 -0.0285 -0.0217
 3779W        W19853   4.281  10.277   6.040  0.0722  0.2396 -0.0366
 3780W        W19854  13.817   8.759   2.497  0.0843  0.1079 -0.1850
 3781W        W19855   5.336   2.228  12.337 -0.0103  0.1535  0.0889
 3782W        W19856  13.083   9.262  16.585 -0.2657  0.0934 -0.3213
 3783W        W19857  10.782   6.536   3.613 -0.0436  0.2379  0.0771
 3784W        W19858   5.060  16.117  14.413 -0.1302  0.2933 -0.0276
 3785W        W19859  17.319   3.636   4.337 -0.1165 -0.0070  0.1025
 3786W        W19860  15.692   9.719  16.576  0.0118  0.3147  0.2623
 3787W        W19861   1.520  15.298  15.636 -0.2204  0.3177 -0.0349
 3788W        W19862  16.939  10.499  14.781  0.1367  0.2166 -0.0208
 3789W        W19863  14.300   0.623   3.108 -0.1349  0.0009 -0.1157
 3790W        W19864   3.557  10.808  16.239  0.2263 -0.2193 -0.0294
 3791W        W19865  14.502  15.677   5.328  0.1074 -0.3117 -0.0706
 3792W        W19866   5.631   2.941   3.221 -0.1431 -0.2424 -0.0491
 3793W        W19867   1.707  16.915   3.189  0.1243 -0.0620 -0.0223
 3794W        W19868  17.227  12.599  16.157 -0.1844  0.0569 -0.0661
 3795W        W19869   9.300   2.551  12.348  0.0621 -0.2792 -0.2627
 3796W        W19870  11.648   8.773   3.946 -0.0530 -0.2669 -0.0905
 3797W        W19871   0.610  17.495   3.987  0.1440 -0.1425 -0.1757
 3798W        W19872  12.582   9.058   3.983  0.0750  0.4908  0.0724
 3799W        W19873   4.023   5.439  13.031 -0.2533  0.1477 -0.1313
 3800W        W19874   0.743   6.095   1.630  0.0831 -0.1856 -0.3808
 3801W        W19875   3.138  12.864   2.196  0.0173 -0.5019  0.0271
 3802W        W19876   6.636  16.411   1.394  0.0784 -0.3217  0.2025
 3803W        W19877   9.554  14.611  15.857 -0.1230 -0.0706  0.0595
 3804W        W19878   1.859  10.456   6.029  0.2853 -0.2082 -0.1521
 3805W        W19879   2.941  13.027   5.712  0.0638  0.1259  0.3023
 3806W        W19880   3.187   6.759  16.052 -0.0322  0.0794  0.1477
 3807W        W19881  16.998   2.711   2.814  0.2218 -0.0035 -0.1664
 3808W        W19882  16.788   9.388  14.468 -0.1242  0.0044 -0.2365
 3809W        W19883   7.419   6.920   5.360 -0.2394  0.0005 -0.2704
 3810W        W19884   4.486   8.415  12.593 -0.0078 -0.0456 -0.2992
 3811W        W19885  11.271   8.550   0.785  0.0654  0.2968 -0.1822
 3812W        W19886   7.752  11.572   6.140  0.2730 -0.1604  0.1025
 3813W        W19887   9.237   9.044   4.171 -0.3438  0.2647  0.2009
 3814W        W19888   0.066   6.337   3.942 -0.3080  0.2486 -0.0465
 3815W        W19889   1.538   1.569  16.523 -0.0828 -0.0002  0.0644
 3816W        W19890   2.720   9.367  12.124  0.1006  0.1164 -0.2133
 3817W        W19891   7.805  12.365  14.833  0.3044 -0.0144 -0.2702
 3818W        W19892  12.395   7.588  12.150  0.1611 -0.1777 -0.2743
 3819W        W19893   6.246   3.312   6.065  0.0694  0.3343  0.3160
 3820W        W19894  14.633  14.747   6.104  0.0739 -0.2251 -0.0195
 3821W        W19895   9.818   5.727   2.148  0.2225  0.0947  0.2387
 3822W        W19896  11.774   8.919   0.318  0.1983  0.3056  0.0055
 3823W        W19897   3.551   9.880   4.462 -0.3050  0.0622 -0.0023
 3824W        W19898  10.720  11.035   4.651  0.3092 -0.1583 -0.3303
 3825W        W19899   7.636   2.382   1.261  0.1890 -0.1571 -0.0255
 3826W        W19900  11.114  14.361  12.899 -0.2054 -0.1232 -0.1774
 3827W        W19901  15.592   2.428   1.417  0.3450 -0.0004 -0.2016
 3828W        W19902  15.867  17.844   5.212  0.0817 -0.3074  0.2302
 3829W        W19903  12.903   8.507   5.217  0.2129  0.0634  0.0688
 3830W        W19904  12.816   5.099  15.510  0.2973 -0.2249  0.1136
 3831W        W19905  14.412  14.872  15.144 -0.3900 -0.1336 -0.0557
 3832W        W19906  12.048   8.519  14.231  0.2794  0.1157  0.2019
 3833W        W19907   5.652  16.711  12.921  0.0979  0.2354  0.1913
 3834W        W19908  11.015   7.995   4.907  0.2152  0.3112  0.0190
 3835W        W19909   9.172   0.355  11.809 -0.0582  0.3295  0.0552
 3836W        W19910   1.789   4.363  13.761  0.0582 -0.1656  0.0863
 3837W        W19911  13.908   7.772   5.538  0.0817  0.0091  0.3655
 3838W        W19912   9.289   3.678   0.171  0.1405  0.2087  0.1067
 3839W        W19913  16.257  15.518  16.261  0.3610  0.0214 -0.0252
 3840W        W19914  11.786  17.524   3.755  0.2905  0.5260  0.0143
 3841W        W19915  10.847  17.370   1.949  0.0834  0.2124 -0.2932
 3842W        W19916  12.278   6.731   0.502 -0.0022 -0.0092 -0.1665
 3843W        W19917  13.554  16.549  16.299 -0.3185  0.2089  0.1746
 3844W        W19918   9.091  13.495   0.021  0.1373 -0.4407 -0.1090
 3845W        W19919   2.113   1.717  16.391  0.0776 -0.2931  0.1103
 3846W        W19920  14.423  15.212  16.613  0.2293  0.1021  0.3497
 3847W        W19921   0.998   5.587  16.673 -0.1419  0.0375 -0.1868
 3848W        W19922   9.214   5.108   2.457 -0.0406  0.1802  0.1416
 3849W        W19923  13.073   2.251  16.312 -0.1067  0.0739  0.1044
 3850W        W19924   2.976  17.728   2.628 -0.2355 -0.0327  0.0228
 3851W        W19925  16.353  13.206   5.691  0.0085 -0.1275 -0.3070
 3852W        W19926   3.915  12.554   3.468  0.1428  0.0515 -0.0539
 3853W        W19927  11.940   9.436  15.872  0.0995  0.0624  0.0341
 3854W        W19928   1.582   5.592   1.480  0.0793 -0.3953  0.0783
 3855W        W19929  16.723  12.693  16.022 -0.1941 -0.0835 -0.2073
 3856W        W19930   3.418   4.710   0.086  0.0539  0.2424  0.2704
 3857W        W19931  16.635   7.299  16.120 -0.2034 -0.0420 -0.0142
 3858W        W19932  13.710  10.214  15.366  0.3232 -0.0110 -0.0248
 3859W        W19933   5.904  12.728   2.440 -0.2471 -0.2481  0.1353
 3860W        W19934   1.601   0.197   4.556 -0.0456  0.1015 -0.2130
 3861W        W19935   4.210  10.387  16.419  0.0537  0.0760 -0.1314
 3862W        W19936   3.090  12.164  15.185  0.0876  0.4880  0.1280
 3863W        W19937   5.329   5.359  12.982  0.2660  0.3215  0.1230
 3864W        W19938  17.512  16.358  12.322  0.1742  0.1262  0.0969
 3865W        W19939  16.798   0.474   4.547  0.0479 -0.1206  0.1795
 3866W        W19940  17.737   7.958   4.780 -0.0387  0.2707 -0.2520
 3867W        W19941  14.935   7.519  12.631  0.0845  0.3230 -0.0116
 3868W        W19942   6.135  12.026   4.711  0.1964 -0.1797 -0.0420
 3869W        W19943  17.402  16.139   5.519  0.0257 -0.0246 -0.0139
 3870W        W19944   6.151   5.261   0.033  0.0589  0.1758  0.4118
 3871W        W19945   0.855  10.472   4.232  0.3191 -0.3034 -0.1011
 3872W        W19946   0.377   2.639  14.098 -0.2520  0.1177  0.0992
 3873W        W19947  10.733   2.294  16.016  0.3076  0.0668 -0.0200
 3874W        W19948  14.540   5.263  13.387 -0.2748  0.0464 -0.0589
 3875W        W19949  10.643   5.482  15.370 -0.0443  0.0798 -0.0068
 3876W        W19950  13.524   3.742   0.303 -0.0279  0.1258  0.0796
 3877W        W19951  15.851   8.620   4.351  0.1024 -0.0149  0.3841
 3878W        W19952  14.905  14.425   4.613 -0.0354  0.0839  0.4204
 3879W        W19953  10.035   1.019   2.569  0.1613 -0.0100  0.0208
 3880W        W19954   6.373   3.817  16.268 -0.0642  0.0285  0.2259
 3881W        W19955   9.449   5.855  11.653 -0.1650  0.0013  0.0101
 3882W        W19956   5.227   5.419   5.173 -0.0071  0.0567 -0.1832
 3883W        W19957   7.874   2.901  15.880 -0.1263 -0.3162  0.1046
 3884W        W19958   7.565   5.729   2.974 -0.1935 -0.0152 -0.0190
 3885W        W19959   1.565   0.724   0.634 -0.0072  0.1616 -0.0870
 3886W        W19960  11.644   8.191   4.206 -0.1419 -0.2603  0.0144
 3887W        W19961  12.533  13.574   4.844  0.0283 -0.1171 -0.2100
 3888W        W19962   2.764  17.118   2.278  0.3264 -0.3458 -0.0863
 3889W        W19963   5.321   6.678  15.834 -0.2184  0.1630 -0.0232
 3890W        W19964  14.075  11.098  12.885 -0.3137 -0.0775  0.1343
 3891W        W19965   8.369  12.843   1.269 -0.0348  0.0488 -0.6071
 3892W        W19966   8.300   1.334  13.432 -0.0175 -0.3126  0.0756
 3893W        W19967   1.836   7.661   3.526 -0.0815  0.1585  0.2090
 3894W        W19968  17.646   6.798   2.016 -0.0132 -0.2245 -0.0793
 3895W        W19969  10.072  11.111   1.144  0.3223 -0.2528 -0.0305
 3896W        W19970  12.402   1.737   4.439  0.0550 -0.2956  0.2970
 3897W        W19971  15.902   7.443  12.074 -0.2428 -0.1124  0.1855
 3898W        W19972  15.159  16.885   3.140 -0.3024  0.0407  0.1446
 3899W        W19973   0.868   3.340   2.305 -0.1389 -0.1153  0.0026
 3900W        W19974  10.669  14.848   1.021 -0.2357 -0.1662  0.0701
 3901W        W19975   4.131  15.399   2.873 -0.1377  0.1885  0.1691
 3902W        W19976   8.918   9.434   5.093 -0.0322  0.0780 -0.0376
 3903W        W19977   3.312   4.996  11.461  0.3069 -0.2511  0.1830
 3904W        W19978   6.063   8.390   2.226 -0.0544 -0.3527 -0.1049
 3905W        W19979   5.386   1.706  16.051 -0.0166 -0.3126 -0.0332
 3906W        W19980  13.522   2.399   3.561  0.1153 -0.2075 -0.0006
 3907W        W19981   9.778   8.532  15.577 -0.2703 -0.0085 -0.0340
 3908W        W19982  16.213  17.444   2.659 -0.3213  0.0594 -0.0485
 3909W        W19983   2.923  16.432   0.396 -0.0540 -0.2589  0.2007
 3910W        W19984  15.129   8.872   5.239  0.2537  0.0297  0.0534
 3911W        W19985   8.575  17.789   4.283 -0.0414  0.0286  0.1406
 3912W        W19986   4.739  12.571  13.734 -0.2815  0.1909  0.0834
 3913W        W19987   8.496  14.429  11.305 -0.1647  0.1049 -0.0714
 3914W        W19988  15.133   8.021   1.262 -0.0219 -0.1901 -0.1198
 3915W        W19989  10.854  12.413  10.901 -0.2835  0.0104  0.0020
 3916W        W19990  13.002   0.030   2.307 -0.0141  0.0330  0.1323
 3917W        W19991   5.896  10.625   1.698  0.0205  0.1691  0.0922
 3918W        W19992  10.934   3.462   0.556  0.1132  0.1819  0.1616
 3919W        W19993   1.739  17.454   1.787 -0.0770  0.0384  0.1282
 3920W        W19994   2.449   9.321   2.285 -0.3096  0.1186 -0.0824
 3921W        W19995   1.299  12.341   2.729 -0.2054 -0.0649 -0.0519
 3922W        W19996   0.187  10.745   1.307  0.1356  0.0236 -0.1341
 3923W        W19997  11.975   3.865  14.229 -0.2810 -0.0332 -0.0309
 3924W        W19998   3.024   2.427  12.633 -0.0276 -0.0146  0.0381
 3925W        W19999  16.863   1.009  15.636  0.0410  0.0916 -0.0918
 3926W        W20000  17.414   2.732  15.868 -0.1143  0.3734 -0.1311
 3927W        W20001   3.151   4.518  13.648 -0.0881 -0.3716  0.0309
 3928W        W20002  11.058   7.135   3.683  0.0809  0.1532  0.3504
 3929W        W20003  17.123  17.718   5.062 -0.0087 -0.2324  0.2286
 3930W        W20004   6.606   4.011   2.123  0.2385  0.0482  0.4074
 3931W        W20005  12.103   6.153   5.442  0.2204 -0.1394  0.1936
 3932W        W20006   4.924   6.340   1.364 -0.1405  0.0702 -0.1150
 3933W        W20007  14.884   1.291   3.887  0.0397  0.1334 -0.2518
 3934W        W20008  10.134  16.264   2.829  0.0460 -0.0618 -0.0014
 3935W        W20009   9.154  10.063   1.180 -0.3733 -0.0991  0.0548
 3936W        W20010   1.781   9.741  16.448 -0.0596  0.4271 -0.0811
 3937W        W20011  10.331  13.931   3.511 -0.1254  0.0697  0.1930
 3938W        W20012   0.577   7.729   0.293  0.0670 -0.1063 -0.1870
 3939W        W20013  11.942   1.578   6.189 -0.2692 -0.2502 -0.1040
 3940W        W20014   0.395  17.266  16.512 -0.0907 -0.2137 -0.0434
 3941W        W20015   3.654   2.730   4.562  0.1772  0.1546  0.0233
 3942W        W20016  14.303  15.612   2.042 -0.1467 -0.3605  0.0916
 3943W        W20017  13.134   5.907   0.361  0.1122  0.0897  0.1765
 3944W        W20018   4.320   1.414  13.947 -0.2989 -0.0649 -0.2238
 3945W        W20019  12.750   0.182   6.252  0.0012  0.0705 -0.0363
 3946W        W20020  12.655  14.286   3.665  0.0114  0.1790 -0.0808
 3947W        W20021  12.377   1.869   2.263  0.0962  0.0002  0.3307
 3948W        W20022  14.942   7.123  15.029  0.0218 -0.1713 -0.3117
 3949W        W20023   7.567  11.176  13.350  0.0148  0.1262  0.1787
 3950W        W20024  14.745   5.911  11.538 -0.0349 -0.1065  0.0909
 3951W        W20025  14.753  12.992   6.351 -0.1033  0.1823 -0.0612
 3952W        W20026   8.573  12.957   4.563  0.1208  0.2201  0.0736
 3953W        W20027  17.530   5.620   3.705 -0.1274  0.1313  0.0577
 3954W        W20028   5.737  17.655  16.278  0.2407  0.1658  0.0443
 3955W        W20029   4.482  10.643   4.086 -0.2228  0.1239 -0.1529
 3956W        W20030   6.696  11.483  13.508  0.1291  0.0705 -0.4723
 3957W        W20031  15.943  16.594  15.326  0.1183  0.0102 -0.0494
 3958W        W20032   0.700   2.185  14.354  0.0829 -0.1220  0.3997
 3959W        W20033   5.848  14.689  15.276 -0.1762  0.2186  0.4807
 3960W        W20034  10.194  10.876  13.198  0.1502 -0.2549 -0.0591
 3961W        W20035   0.345  12.631   0.898 -0.0166 -0.0675 -0.0724
 3962W        W20036   5.738   4.642  14.349 -0.1674 -0.1509  0.0808
 3963W        W20037   9.776   2.092  15.010 -0.0341 -0.1380  0.2468
 3964W        W20038   6.724   9.818  12.680  0.1181 -0.4709 -0.1676
 3965W        W20039   4.975   9.328   4.396 -0.0484  0.2101 -0.3094
 3966W        W20040  17.814  11.085  13.539 -0.0254  0.0418 -0.2610
 3967W        W20041   7.370  14.557   3.199 -0.1578  0.0338 -0.0567
 3968W        W20042   7.785   8.136   2.608  0.0719  0.1752 -0.1430
 3969W        W20043  14.952   0.071   3.039  0.0438  0.1764  0.1709
 3970W        W20044  10.959  16.297  12.661  0.1070 -0.2897 -0.0245
 3971W        W20045   6.601  10.656  14.195 -0.0466 -0.3062 -0.1936
 3972W        W20046  10.735  16.188  16.073 -0.1078 -0.0028 -0.2485
 3973W        W20047  15.718   2.063   0.014  0.0285 -0.1832  0.0181
 3974W        W20048   6.671   2.585   3.992  0.0377 -0.0289 -0.0627
 3975W        W20049  14.756  13.112   5.084 -0.2541 -0.0179  0.1697
 3976W        W20050  17.773  16.987  16.581 -0.0710  0.3481  0.2012
 3977W        W20051  11.192   2.702   6.432 -0.0662  0.1739  0.0103
 3978W        W20052  13.110  17.588  14.268  0.2228  0.1638 -0.1330
 3979W        W20053  12.082  13.519   1.129 -0.1010  0.0409 -0.0827
 3980W        W20054  12.882   2.098  12.923  0.1589  0.1572 -0.1096
 3981W        W20055   1.700   8.746   4.582 -0.2625  0.0864 -0.2405
 3982W        W20056   7.927   7.868   1.632 -0.2483 -0.2293  0.1793
 3983W        W20057   8.198   0.239  12.859  0.1534 -0.1449 -0.0565
 3984W        W20058  12.758  16.356   3.531 -0.2376  0.1192  0.0444
 3985W        W20059  12.548   9.643   4.995 -0.2247 -0.0464 -0.0412
 3986W        W20060  11.867   3.062   5.258  0.0620 -0.0988 -0.2485
 3987W        W20061   6.101   0.348  12.646  0.1289 -0.3403  0.2319
 3988W        W20062  17.348  10.859  13.546  0.2387  0.0795  0.1333
 3989W        W20063  12.440   3.106   1.181 -0.1222 -0.2094  0.1216
 3990W        W20064   9.416   9.248  12.552 -0.0312 -0.2236 -0.2387
 3991W        W20065   9.901   2.935   0.590  0.0053  0.3524 -0.4021
 3992W        W20066  12.344   3.594   5.824 -0.1043 -0.0076  0.1624
 3993W        W20067  10.240   0.165   0.439  0.0757 -0.0673  0.2567
 3994W        W20068  10.299   2.509  13.869  0.0607  0.3410  0.2010
 3995W        W20069  17.473  11.203   1.979 -0.0899 -0.1496  0.3110
 3996W        W20070  15.333  10.660  16.144 -0.0683 -0.0891 -0.1281
 3997W        W20071   6.110   2.165  16.355  0.1458  0.0385 -0.2780
 3998W        W20072   9.711  17.441  16.338  0.2126 -0.1702 -0.2509
 3999W        W20073   8.941   4.954   0.280 -0.1224 -0.1102  0.2030
 4000W        W20074  13.964  11.219   1.617  0.0293  0.3714 -0.1221
 4001W        W20075  14.785   5.474  13.761  0.0379 -0.0008  0.1007
 4002W        W20076   0.227  16.690   5.313 -0.1375  0.0564  0.0829
 4003W        W20077  17.088   1.440  16.896 -0.0955  0.0262  0.2857
 4004W        W20078  12.020   7.927  13.720 -0.1775  0.1288  0.2082
 4005W        W20079   9.798  11.859   0.509  0.2503  0.0583 -0.1916
 4006W        W20080   2.692  14.036   1.695  0.0393  0.2125  0.6194
 4007W        W20081   6.751   2.302   4.439 -0.0617 -0.2561 -0.2726
 4008W        W20082  14.640  16.700   4.735  0.0474  0.1190  0.0352
 4009W        W20083  16.419  11.551  15.472 -0.0909  0.4360  0.4019
 4010W        W20084  12.479   1.694  16.029 -0.0454 -0.0849 -0.0343
 4011W        W20085   3.971  15.940   4.789  0.0788 -0.1808 -0.3180
 4012W        W20086   4.863  11.447   0.965  0.0866  0.1750 -0.1626
 4013W        W20087   4.428   0.672  13.191  0.4363  0.0141 -0.1341
 4014W        W20088   2.970   9.217  14.713  0.1953 -0.0562 -0.1310
 4015W        W20089   0.234  15.241   0.607 -0.0166  0.0249 -0.0182
 4016W        W20090   8.310   9.422   0.652  0.0850 -0.1729  0.1046
 4017W        W20091  16.342   8.618   3.651 -0.1584 -0.0310  0.2563
 4018W        W20092  11.238  13.966   4.567 -0.0718  0.2177  0.1800
 4019W        W20093   2.612   2.340  11.527 -0.0806 -0.0862 -0.3215
 4020W        W20094  11.119   8.950  15.028  0.3128  0.0146 -0.0565
 4021W        W20095   0.395  10.773  13.433  0.0798  0.0803  0.0009
 4022W        W20096   1.514  12.087  13.331  0.2099  0.2913 -0.1622
 4023W        W20097  17.344  16.059  13.060  0.1043  0.0068 -0.0403
 4024W        W20098  13.113   4.329   3.075 -0.0987  0.0178 -0.1220
 4025W        W20099   2.799  12.529  14.901 -0.1022 -0.2831 -0.2374
 4026W        W20100   8.799   1.749   3.413 -0.2450 -0.0070 -0.1791
 4027W        W20101  11.363  11.984   1.771 -0.1421  0.0354 -0.2820
 4028W        W20102  14.781  15.008   0.412 -0.3189  0.0916  0.1975
 4029W        W20103  15.305  13.993   4.132 -0.0623 -0.0801  0.1683
 4030W        W20104   3.136   6.162   3.751 -0.3370 -0.0813 -0.0272
 4031W        W20105   0.405  11.252   2.555  0.0811 -0.2612 -0.2177
 4032W        W20106   7.893  14.002  11.867  0.4341 -0.1933 -0.2479
 4033W        W20107  15.733  10.055   5.874 -0.1786 -0.0943 -0.0779
 4034W        W20108   1.361   5.682   0.434  0.2012 -0.3581 -0.0632
 4035W        W20109  15.255  10.464  13.848 -0.3727  0.2150 -0.1349
 4036W        W20110  16.157   1.804   3.429  0.1963  0.1398  0.2268
 4037W        W20111  12.576  14.502   5.423 -0.0163 -0.3345  0.1292
 4038W        W20112   0.356   9.981  12.179  0.0081 -0.0861  0.2929
 4039W        W20113  15.502  16.730   4.928 -0.1458 -0.2322  0.2458
 4040W        W20114   5.777   3.223   5.257 -0.2511 -0.2135 -0.1287
 4041W        W20115  14.924  14.334  15.218 -0.2075 -0.2198 -0.3314
 4042W        W20116  11.685  13.623  14.250 -0.2413  0.1859  0.2361
 4043W        W20117  14.158   2.356  15.646 -0.0441  0.0114 -0.2966
 4044W        W20118   2.056  15.482  15.842 -0.3056  0.0206 -0.0779
 4045W        W20119   1.597   4.007  13.488  0.0730 -0.2232  0.1723
 4046W        W20120  12.679   7.160  14.495 -0.0599  0.0841  0.2457
 4047W        W20121   6.809  13.468  12.687 -0.2459  0.0915  0.0979
 4048W        W20122  12.671   9.884   2.146 -0.0141  0.1527  0.0152
 4049W        W20123  10.208  17.845   0.975  0.0546 -0.0745  0.1489
 4050W        W20124  16.566   7.308  13.280  0.4498  0.1414 -0.1755
 4051W        W20125   0.583   8.614   3.826 -0.1539  0.5038  0.4315
 4052W        W20126   1.922  10.487  15.643  0.1070  0.0273  0.2270
 4053W        W20127   5.817  10.871  12.693 -0.2143  0.0400 -0.4077
 4054W        W20128   3.254   0.698  16.311  0.1981 -0.5868 -0.0186
 4055W        W20129   5.983   5.500   4.531  0.1122  0.0736 -0.0361
 4056W        W20130  17.839   3.922  16.267 -0.3939 -0.1660  0.1353
 4057W        W20131  11.973   4.640   3.563  0.0340  0.0236  0.0116
 4058W        W20132   3.670  10.544  15.479  0.1218 -0.0262  0.2556
 4059W        W20133   7.180   4.418   3.335 -0.0102 -0.0838  0.0134
 4060W        W20134  14.204  16.497   5.505  0.2502  0.2168 -0.1979
 4061W        W20135  16.036   4.835   3.754  0.4233 -0.0235 -0.3445
 4062W        W20136  16.693  12.446  14.165 -0.1149 -0.2352  0.0043
 4063W        W20137   0.011   8.142   5.467 -0.1225 -0.0211 -0.1051
 4064W        W20138   5.405  12.043   6.419 -0.0483  0.1465 -0.3542
 4065W        W20139  12.817   2.222   4.911 -0.1798  0.0040 -0.0368
 4066W        W20140   9.289   1.757   5.067  0.3838  0.1648 -0.0693
 4067W        W20141   1.413  14.107   4.990  0.1306 -0.0049  0.3760
 4068W        W20142   3.820  16.912   2.978 -0.3610 -0.0978 -0.0700
 4069W        W20143  11.766   6.465  13.833  0.0659 -0.1040  0.1275
 4070W        W20144   9.427   7.145   0.391  0.0265 -0.0661 -0.2046
 4071W        W20145  11.993   1.000   3.983  0.1186  0.0754  0.1015
 4072W        W20146  17.767  15.588   4.820  0.1391 -0.2040  0.0536
 4073W        W20147  15.312  14.445  14.738 -0.0830  0.2131  0.0027
 4074W        W20148  15.215  17.153  15.411 -0.0217  0.0522 -0.0209
 4075W        W20149  15.443  14.576   3.467 -0.1694  0.1162  0.1347
 4076W        W20150   8.802  14.066  12.841  0.0377 -0.0010  0.0242
 4077W        W20151   7.270  10.143  12.388  0.1630  0.2593 -0.0641
 4078W        W20152   3.368  17.467   2.951  0.0329 -0.1038  0.1982
 4079W        W20153   3.016   7.887   4.360 -0.2975 -0.2637 -0.0935
 4080W        W20154  11.141   3.708  13.337 -0.1365 -0.2143  0.3325
 4081W        W20155  13.825  16.764   5.064 -0.0961 -0.1323 -0.1722
 4082W        W20156   8.334   5.118  12.897  0.2654  0.2846  0.3336
 4083W        W20157   0.265   2.367  14.514 -0.0608  0.2051 -0.0194
 4084W        W20158   8.999  17.687   2.729  0.2083 -0.0781 -0.1697
 4085W        W20159   5.819  13.360  16.145  0.1422  0.1146 -0.0006
 4086W        W20160   1.946   2.870   1.642 -0.4577 -0.0936  0.0238
 4087W        W20161  16.091   3.387  14.490  0.2855  0.0200  0.1086
 4088W        W20162  16.375  17.575  14.540  0.0788  0.0060 -0.1560
 4089W        W20163   3.348   8.803   0.618  0.1218 -0.1027  0.0637
 4090W        W20164  11.921  14.677   4.799  0.0219 -0.2360 -0.1595
 4091W        W20165   3.777  13.114   0.986  0.0926 -0.2527 -0.1769
 4092W        W20166  11.642   2.944   6.167 -0.4263  0.2182 -0.0330
 4093W        W20167   0.578   5.452   2.128 -0.1524 -0.0826 -0.2533
 4094W        W20168   7.184  16.965  13.540 -0.2496 -0.3262  0.3640
 4095W        W20169  15.862  11.922   3.367 -0.2909  0.1012  0.1031
 4096W        W20170  12.618  11.050  16.269  0.2885  0.1422 -0.1837
 4097W        W20171   0.655  15.551  14.446  0.0085  0.0736 -0.0659
 4098W        W20172  12.418   2.296  12.950  0.0715 -0.0221 -0.3791
 4099W        W20173   1.120  12.989   3.239 -0.1358  0.0924  0.1465
 4100W        W20174   0.891   9.723   3.001  0.0031  0.4146 -0.1838
 4101W        W20175   5.276  12.580  15.782 -0.2621 -0.0823 -0.0947
 4102W        W20176   7.596   2.975   1.800 -0.0962 -0.1260  0.2770
 4103W        W20177   4.742  16.274  15.336  0.0312 -0.2933  0.0808
 4104W        W20178  13.678   9.269  12.171  0.4238  0.4553  0.0782
 4105W        W20179   8.119  10.256   1.929 -0.0025 -0.1623  0.0826
 4106W        W20180  14.265   2.882  15.051 -0.1539  0.4002  0.2623
 4107W        W20181   7.308   0.033   4.832  0.3784  0.1634 -0.0532
 4108W        W20182  14.324  12.900  12.030  0.0279  0.2400 -0.0877
 4109W        W20183   9.887  13.206   1.525 -0.3278 -0.0132 -0.0909
 4110W        W20184   4.899   3.776   4.427 -0.1275 -0.2776 -0.3396
 4111W        W20185   4.228   5.736  12.102  0.0552 -0.0739  0.0869
 4112W        W20186  14.296  12.960   2.187  0.1613 -0.0266 -0.2054
 4113W        W20187  14.716  13.696   2.776 -0.0510 -0.0762 -0.0477
 4114W        W20188   9.915   4.742  14.139 -0.2111  0.1675  0.3367
 4115W        W20189  12.918   2.272   1.741  0.1039 -0.0830 -0.0498
 4116W        W20190   9.969  16.162   5.929 -0.3453  0.0471 -0.1047
 4117W        W20191  11.742  12.596  15.370  0.4877 -0.3579 -0.2052
 4118W        W20192   7.717   1.120  14.123 -0.0851 -0.0615 -0.0089
 4119W        W20193   8.063  15.452  15.784 -0.0476  0.0821  0.0899
 4120W        W20194   4.182  13.431  14.603 -0.0618 -0.1716  0.1997
 4121W        W20195  11.603   3.727   2.523 -0.0013 -0.2131  0.2638
 4122W        W20196   0.404  16.868  11.488  0.2792  0.0648 -0.1450
 4123W        W20197   2.635  13.093   3.997 -0.2775 -0.1279 -0.1695
 4124W        W20198   1.915  15.207   1.786 -0.0060  0.1458 -0.1396
 4125W        W20199   7.592   0.489  12.103  0.2658  0.0464 -0.0431
 4126W        W20200  13.097   7.313  13.233 -0.0796  0.0769 -0.2645
 4127W        W20201  17.085   6.654   5.235  0.1737  0.4255 -0.0575
 4128W        W20202   8.989   6.063  16.571  0.2329 -0.1181  0.1857
 4129W        W20203   4.831   3.506   0.794 -0.2102 -0.2214  0.1147
 4130W        W20204  15.192   6.972  16.620  0.1275 -0.0567 -0.1794
 4131W        W20205   6.265  13.398   5.937  0.2614  0.2348 -0.0105
 4132W        W20206   8.480   5.795  13.774 -0.2723  0.0320 -0.2506
 4133W        W20207   5.099   2.217  12.797  0.2234  0.3827 -0.0917
 4134W        W20208   8.828   4.382  15.816  0.2452 -0.2720 -0.0805
 4135W        W20209   2.330  17.381   0.545 -0.0086 -0.0534  0.1331
 4136W        W20210  17.185   8.851  11.820 -0.0991 -0.2401  0.0821
 4137W        W20211  11.042  17.125   4.476  0.4368 -0.0494 -0.1125
 4138W        W20212   7.138   3.463  14.844 -0.0357  0.1913 -0.1774
 4139W        W20213  12.809  13.783   1.857  0.0101  0.3240 -0.0765
 4140W        W20214   0.180   1.581  14.987  0.0569 -0.0134 -0.1617
 4141W        W20215  11.882   1.598   6.769  0.1654  0.0740  0.2563
 4142W        W20216  14.175   3.744  12.537 -0.1746 -0.0273 -0.2943
 4143W        W20217  10.185   4.670   4.207  0.0163  0.1026 -0.3989
 4144W        W20218   7.276   7.526  14.742  0.0951  0.2062  0.2899
 4145W        W20219   0.470   8.792   0.113  0.0155  0.4080  0.3874
 4146W        W20220  16.357  17.487   1.949 -0.2535 -0.2134 -0.0893
 4147W        W20221   5.606  14.063  16.413 -0.5759  0.2547  0.2108
 4148W        W20222  12.048   4.352  15.535  0.0953  0.1933 -0.0947
 4149W        W20223   8.039   8.286  12.038 -0.0605  0.0830 -0.2960
 4150W        W20224   3.541  16.219  11.519  0.1907 -0.5075 -0.0025
 4151W        W20225   1.872  13.016   1.214 -0.4150  0.1500 -0.0913
 4152W        W20226   4.318  17.110   3.048  0.0858 -0.0505  0.1191
 4153W        W20227  17.061   4.599  12.937 -0.1835  0.1907  0.2003
 4154W        W20228  15.453   9.648   5.723 -0.3029  0.1179  0.1112
 4155W        W20229  10.344   6.751   5.779  0.1629  0.1238 -0.0605
 4156W        W20230   4.568   0.200  13.486  0.0593 -0.0359  0.0807
 4157W        W20231   3.818  10.181  13.349  0.1752  0.0507 -0.0325
 4158W        W20232   6.482  11.008   1.198  0.1673  0.1295  0.0421
 4159W        W20233  15.335   8.731  16.730 -0.0826 -0.1432  0.1492
 4160W        W20234  14.129   6.568   1.224  0.1378  0.3155 -0.2135
 4161W        W20235   1.203   1.191   6.424 -0.0610 -0.2123  0.0282
 4162W        W20236   1.614  12.260   5.630 -0.2269  0.2224 -0.0895
 4163W        W20237  12.452   1.915   4.974  0.0529 -0.0493  0.1125
 4164W        W20238  17.779   4.731  15.205 -0.0181 -0.3216  0.0148
 4165W        W20239  17.253  14.040  12.695 -0.1498 -0.2429 -0.3777
 4166W        W20240  12.100  15.390   5.314 -0.1479 -0.1951 -0.0568
 4167W        W20241  14.401   4.325   3.047 -0.0045 -0.0289  0.0354
 4168W        W20242  17.807   8.969  16.849  0.3530  0.2206 -0.1733
 4169W        W20243  13.546   7.579   4.011  0.0535  0.1861 -0.1084
 4170W        W20244   2.378  12.986   5.073  0.0671 -0.0126  0.0488
 4171W        W20245   6.559  15.690   2.594  0.0853  0.1037  0.1771
 4172W        W20246  10.863   6.914   5.754  0.1643 -0.2297 -0.0048
 4173W        W20247  13.439  11.661  13.236 -0.0654  0.0350  0.1939
 4174W        W20248  10.334  17.547   3.745 -0.1373 -0.0330  0.0754
 4175W        W20249   4.212  12.980  14.367 -0.0169  0.4299 -0.2515
 4176W        W20250  14.368  11.811   0.727  0.1715 -0.1544 -0.0958
 4177W        W20251  12.746   0.040  16.882  0.1308  0.0081  0.0649
 4178W        W20252  17.449   7.141   4.483  0.0881  0.1572 -0.2491
 4179W        W20253  17.487   9.051   0.693 -0.1547  0.5173 -0.1777
 4180W        W20254  17.663   2.362   1.618 -0.1450 -0.1161  0.0491
 4181W        W20255   6.287  11.380  15.763  0.2313  0.0819 -0.0418
 4182W        W20256   5.135   4.888   2.055  0.3015 -0.0188  0.0215
 4183W        W20257   1.553   4.112  12.427  0.1295 -0.0019  0.0678
 4184W        W20258  12.652   3.077  14.168 -0.1335 -0.4466  0.0577
 4185W        W20259  11.051   8.309   5.417 -0.0184  0.2328 -0.0810
 4186W        W20260   5.294   6.311   3.674  0.0767  0.1893  0.3036
 4187W        W20261  14.094   6.329  13.744 -0.1399 -0.0561  0.0239
 4188W        W20262   7.672  10.156  11.969  0.3106 -0.0157  0.1234
 4189W        W20263   7.515  12.616   0.982 -0.2052  0.1069 -0.2333
 4190W        W20264  10.685   1.699   5.005  0.2432  0.0705  0.1422
 4191W        W20265   5.086   2.031  11.802  0.0895 -0.4508 -0.1039
 4192W        W20266  17.306   0.054  15.639 -0.4818 -0.1409 -0.1550
 4193W        W20267   8.026  15.118   1.528 -0.0484  0.1350  0.2304
 4194W        W20268  11.470  16.258  15.043 -0.2295  0.1307  0.1067
 4195W        W20269   5.261  10.366   5.132 -0.0041  0.0219  0.3818
 4196W        W20270   0.040  16.103   2.608  0.1292  0.1453 -0.1382
 4197W        W20271   8.245   6.493   2.928 -0.0075 -0.0036  0.2204
 4198W        W20272  11.696  14.397   1.383 -0.0012 -0.0732  0.2416
 4199W        W20273  17.288  17.108  13.949 -0.2515 -0.1089  0.1605
 4200W        W20274  10.758  16.960  12.164 -0.0710  0.1360  0.2333
 4201W        W20275  11.819   1.904  12.018 -0.0469 -0.1887  0.0971
 4202W        W20276   9.150   9.162   5.519 -0.0068 -0.1076  0.2193
 4203W        W20277   2.347   7.691   3.913  0.3106 -0.1271  0.2199
 4204W        W20278  10.226   3.631   4.211  0.2075 -0.1230  0.1662
 4205W        W20279  17.623  12.945   2.223 -0.0587 -0.0456  0.0970
 4206W        W20280   0.599   5.307  16.357 -0.0468 -0.0597 -0.0823
 4207W        W20281   0.829   7.383  16.807 -0.0669 -0.1176  0.1610
 4208W        W20282   5.480  11.728  15.274  0.2495 -0.0065 -0.0472
 4209W        W20283   7.629   7.418  16.731  0.3657 -0.1837 -0.0098
 4210W        W20284   3.265   3.681  16.821 -0.1167 -0.4232 -0.1928
 4211W        W20285  10.458  16.709  13.409  0.0158 -0.5116 -0.3133
 4212W        W20286   4.765  16.810  16.525  0.1479  0.1042  0.0794
 4213W        W20287   1.363   7.822   3.641  0.2811 -0.0032  0.2738
 4214W        W20288   6.287   0.202   3.876  0.2863 -0.1359 -0.0110
 4215W        W20289   2.454  11.493  12.231 -0.1104  0.0601  0.0574
 4216W        W20290  11.972  12.654   5.287 -0.2105  0.0079 -0.2606
 4217W        W20291  16.984  17.521   5.493 -0.2101 -0.1180  0.1701
 4218W        W20292  10.149   8.243  12.387 -0.0984 -0.0231 -0.4143
 4219W        W20293  14.189  14.813  12.476  0.0207 -0.2703 -0.0707
 4220W        W20294   7.157  10.291  11.849  0.2150 -0.0947 -0.0817
 4221W        W20295  14.073  16.097  15.810  0.4220 -0.1939 -0.1600
 4222W        W20296  16.720   0.333  12.551 -0.0720 -0.1816 -0.1967
 4223W        W20297  12.739   7.551   3.624  0.0962 -0.1096 -0.1518
 4224W        W20298   8.838   7.486  16.863  0.1272 -0.2537  0.5064
 4225W        W20299   1.491   4.350  14.286  0.1305 -0.0175 -0.1517
 4226W        W20300   0.900  17.183   4.331 -0.1844  0.0977  0.0673
 4227W        W20301   1.342   3.317   3.216  0.0933 -0.1449 -0.2557
 4228W        W20302  16.987   2.756   5.193 -0.0322  0.0608  0.1911
 4229W        W20303   9.436   7.879   0.960 -0.0294  0.3969  0.3188
 4230W        W20304   0.547  11.608   4.236 -0.3961  0.4334 -0.1150
 4231W        W20305   8.016   9.486   2.525  0.1007  0.1105 -0.1082
 4232W        W20306  15.409   3.295  15.281  0.0740 -0.1621 -0.0558
 4233W        W20307   1.489  15.877  11.507 -0.1073  0.0349 -0.2947
 4234W        W20308   4.671  12.519  12.738 -0.0394  0.0627  0.1595
 4235W        W20309   7.904  10.576   4.750  0.1647  0.2945  0.0405
 4236W        W20310  17.274   6.784  12.250  0.1591 -0.0051  0.0383
 4237W        W20311  17.665  12.294  14.689 -0.1549 -0.1100 -0.1535
 4238W        W20312  17.550  10.511   4.544 -0.3234 -0.1811  0.0680
 4239W        W20313  16.717   4.465   3.508  0.4108 -0.2294 -0.4568
 4240W        W20314   0.821   9.042  16.788  0.2679  0.0682  0.1514
 4241W        W20315   5.889   8.802  15.789  0.0965 -0.1221 -0.5003
 4242W        W20316   3.988  13.169  13.122  0.0435 -0.0407  0.0546
 4243W        W20317  14.479  11.132   4.147  0.0456 -0.1119 -0.1843
 4244W        W20318  14.657   1.205   5.676  0.0034  0.0591  0.2121
 4245W        W20319   5.574   9.504  15.967 -0.0378 -0.0041 -0.0140
 4246W        W20320  16.415  13.793   0.954 -0.0774 -0.3314 -0.0306
 4247W        W20321  17.662  15.713  16.053  0.2326  0.0102 -0.0198
 4248W        W20322   4.168   8.331  12.199 -0.0965 -0.1533 -0.1993
 4249W        W20323   5.951   2.271   5.594 -0.0242  0.5168  0.1864
 4250W        W20324   5.529  14.574   3.684  0.1939 -0.3512 -0.3259
 4251W        W20325  15.259   0.364  11.372 -0.1711  0.0987  0.0667
 4252W        W20326   7.483  12.663  15.544 -0.0828  0.3018 -0.1961
 4253W        W20327  14.252   1.625   1.758 -0.1782  0.2333 -0.0704
 4254W        W20328   3.776  13.568  14.819 -0.1358 -0.1810 -0.2410
 4255W        W20329   8.799  15.077   1.888 -0.3315 -0.3356  0.0814
 4256W        W20330   1.287   3.732  12.731  0.1962  0.1881  0.0887
 4257W        W20331  15.395   7.103  13.752 -0.2905 -0.0065 -0.0951
 4258W        W20332   8.612  14.096   3.093  0.1728 -0.0329  0.1752
 4259W        W20333  13.863   6.054  14.340 -0.0650 -0.0026  0.0572
 4260W        W20334  15.028   7.143   5.007  0.1324  0.1154 -0.0241
 4261W        W20335   4.063  16.380   1.344  0.0698 -0.1362  0.3210
 4262W        W20336   2.583  15.242   0.030 -0.0455 -0.0485  0.0893
 4263W        W20337   1.589   0.565  13.237 -0.0857 -0.3551  0.0062
 4264W        W20338  16.573  15.720  14.048  0.2947  0.3030 -0.1723
 4265W        W20339   1.923   8.280   2.619  0.1926  0.0940 -0.0224
 4266W        W20340   0.710   2.835   3.767 -0.1592 -0.2606  0.1932
 4267W        W20341  12.175  14.881  12.345  0.1371  0.2440 -0.0213
 4268W        W20342   1.412   8.756   0.209  0.4882  0.1570 -0.4556
 4269W        W20343  14.268  11.464  12.466 -0.1546  0.0456  0.2484
 4270W        W20344   6.906   7.239   5.682 -0.2498 -0.1583 -0.0608
 4271W        W20345   5.559   0.864  11.684  0.0923 -0.2073 -0.0862
 4272W        W20346   4.283   4.925   1.128  0.0654  0.0082 -0.2368
 4273W        W20347   1.769   9.524  12.005 -0.0663  0.0718 -0.0650
 4274W        W20348   5.939   5.656   3.262 -0.0790 -0.3261  0.0343
 4275W        W20349   6.021   8.194   3.245  0.1871 -0.0368 -0.1242
 4276W        W20350   9.600  14.852  13.532 -0.2951  0.1188  0.0473
 4277W        W20351  10.530  11.385  13.125  0.1555  0.0323  0.3507
 4278W        W20352  15.793  17.352  13.163  0.1851 -0.0578 -0.0652
 4279W        W20353   5.201   4.216   3.688 -0.0824  0.0702  0.2139
 4280W        W20354  10.023  13.233  13.687  0.1755 -0.0228 -0.0605
 4281W        W20355  14.029  12.605   0.891  0.0139  0.0034 -0.1690
 4282W        W20356   1.311  11.962  14.017 -0.1257 -0.1780 -0.0741
 4283W        W20357  15.442   1.721   4.670 -0.0176 -0.1341 -0.2448
 4284W        W20358   9.319   8.499  16.467 -0.1793  0.1492 -0.1543
 4285W        W20359   9.691  10.217   5.828  0.3736  0.3985 -0.0859
 4286W        W20360   2.870   4.150   3.030  0.2032  0.1489 -0.1677
 4287W        W20361  16.497   6.040  11.790 -0.2360  0.0959 -0.0876
 4288W        W20362   1.750   6.919  15.598  0.1730 -0.1327  0.0475
 4289W        W20363   3.541   0.641  15.853 -0.1543  0.0980 -0.0566
 4290W        W20364  12.899  14.231   5.749 -0.3980  0.2530  0.3001
 4291W        W20365  16.501   5.858  14.716 -0.0683  0.2421  0.0413
 4292W        W20366   0.388   1.123  13.173  0.1529 -0.1312 -0.0545
 4293W        W20367   9.513   1.936  13.462 -0.0593 -0.2648  0.4298
 4294W        W20368   1.653   4.552  14.740 -0.1198  0.0755  0.2103
 4295W        W20369   2.548   2.348  14.393 -0.0903 -0.0303 -0.0621
 4296W        W20370  17.296  11.519  15.170 -0.2151 -0.0783  0.0443
 4297W        W20371  14.448   2.020  11.786  0.3388 -0.1404  0.1904
 4298W        W20372  16.774   7.883   3.989 -0.0273  0.2435 -0.1520
 4299W        W20373   8.931  12.923   2.115 -0.2284  0.4464 -0.0072
 4300W        W20374  11.102   1.551  14.154 -0.2013  0.2652 -0.3257
 4301W        W20375   1.018  15.241  15.542 -0.0020 -0.1343  0.1245
 4302W        W20376  10.641   4.774  14.608 -0.0886 -0.2571 -0.3379
 4303W        W20377   7.824   1.944  13.657  0.2135 -0.0822 -0.0532
 4304W        W20378   0.534   1.270   4.545 -0.2664  0.0130 -0.0967
 4305W        W20379   7.910   2.404   3.824  0.0109 -0.0526 -0.0300
 4306W        W20380   8.363  16.591   4.990  0.1420  0.0527  0.1365
 4307W        W20381   2.971   3.940   3.877 -0.2304  0.2499  0.0453
 4308W        W20382   3.316  10.186  12.444  0.0235  0.4143  0.0696
 4309W        W20383  16.478   5.041  16.212 -0.0408  0.0682 -0.2568
 4310W        W20384   6.283   2.467   3.697 -0.1609  0.1183  0.0594
 4311W        W20385  11.555   9.746   0.959 -0.0900  0.4188 -0.0911
 4312W        W20386   1.603   3.815   2.446 -0.0227 -0.3805 -0.3165
 4313W        W20387   9.790  10.778   2.475 -0.3260  0.1054  0.0829
 4314W        W20388   0.117   7.425   5.634 -0.0806 -0.2221  0.4294
 4315W        W20389   3.611   5.072   3.570  0.0126  0.2878 -0.1321
 4316W        W20390   6.993  15.366   4.799  0.0658  0.1070 -0.0515
 4317W        W20391   9.333   1.642  11.802 -0.0645  0.1318 -0.2736
 4318W        W20392   9.890   0.093  16.437 -0.0673  0.3577 -0.0192
 4319W        W20393  13.122   2.312   0.316  0.0009  0.0484 -0.1420
 4320W        W20394  10.371   7.701   5.220  0.4869 -0.0962  0.0070
 4321W        W20395   3.996   1.027  16.605 -0.0327 -0.1389  0.0984
 4322W        W20396   8.860  10.688   2.283  0.1427 -0.1262  0.1091
 4323W        W20397  17.103   3.481   0.030 -0.1278 -0.2546 -0.0179
 4324W        W20398  13.741  11.696  15.577  0.2359  0.1108 -0.1193
 4325W        W20399   1.794  10.473  14.598  0.1647  0.0239  0.2279
 4326W        W20400   2.866   8.664  11.646  0.2979 -0.2878  0.1570
 4327W        W20401   9.087   8.219   4.761  0.3002 -0.1470  0.0520
 4328W        W20402  15.623   7.708  12.623 -0.0637  0.2167 -0.1993
 4329W        W20403  11.665  13.704   3.772  0.0009 -0.0990 -0.1380
 4330W        W20404  13.775   2.007   1.076 -0.1208  0.1913  0.0830
 4331W        W20405   1.777   7.253   1.410  0.0341  0.2317 -0.0206
 4332W        W20406   3.401   8.795  14.551  0.0802 -0.3727  0.0852
 4333W        W20407  10.531  12.303   1.806  0.0188 -0.0052 -0.4358
 4334W        W20408   4.536  12.888   2.180  0.1920  0.0250 -0.0422
 4335W        W20409  10.248  11.513  16.314  0.1263 -0.0601  0.0487
 4336W        W20410  12.401   0.657  14.887 -0.0331  0.0343 -0.1871
 4337W        W20411  15.633   9.109  16.651  0.5458 -0.2329  0.0956
 4338W        W20412   6.066   0.388   4.803  0.0024 -0.1421 -0.1638
 4339W        W20413   0.110   5.668  12.117  0.1243 -0.2290  0.0562
 4340W        W20414   1.183  15.373  12.192 -0.0332 -0.0677 -0.0897
 4341W        W20415  17.781   3.821  13.511  0.0024 -0.1232 -0.0029
 4342W        W20416   5.166   6.139   3.177 -0.1239 -0.0533  0.0104
 4343W        W20417  11.839  17.747   5.267  0.0485 -0.0605  0.0319
 4344W        W20418   6.127   3.601   0.218 -0.0925  0.1204 -0.1268
 4345W        W20419  15.633   3.007  13.143  0.1288 -0.1234  0.1232
 4346W        W20420  17.261  12.446   2.325  0.0090 -0.1201 -0.0694
 4347W        W20421  13.227  12.694   5.459  0.0813 -0.0020 -0.1099
 4348W        W20422   1.773  11.080  15.287 -0.1058 -0.2764 -0.0351
 4349W        W20423  11.212   1.397  15.495 -0.2121 -0.3027  0.1053
 4350W        W20424  11.668   1.553  12.341  0.0651  0.4162  0.2195
 4351W        W20425  11.408  11.498  11.621  0.1163 -0.1246 -0.0800
 4352W        W20426   3.499  10.568  14.915 -0.0571  0.1071 -0.0861
 4353W        W20427   5.982   0.879  14.289 -0.0001 -0.1811  0.0448
 4354W        W20428  13.218  13.179   0.555 -0.0259  0.1587 -0.1026
 4355W        W20429  11.417  15.398  12.110  0.3308 -0.0221 -0.1193
 4356W        W20430  12.715  14.485  14.410 -0.3688 -0.1315 -0.3604
 4357W        W20431  11.018   6.354   1.838  0.3903 -0.1095  0.1107
 4358W        W20432   4.873  13.970   5.319 -0.1337  0.0002 -0.1457
 4359W        W20433  16.417   8.878   1.664 -0.0352  0.0029  0.0979
 4360W        W20434   6.916   0.187  16.179 -0.3920 -0.0492  0.0601
 4361W        W20435  14.357  17.359   2.407 -0.2625  0.3622 -0.1704
 4362W        W20436  17.260   9.906  11.081 -0.0810  0.2484 -0.0870
 4363W        W20437   7.345  13.552   2.668  0.3223  0.1130 -0.1855
 4364W        W20438   7.229  12.043  12.265  0.2590 -0.0552  0.0061
 4365W        W20439   2.835   3.659  14.425 -0.1583  0.1425 -0.0681
 4366W        W20440   1.444  11.521  14.171  0.1382  0.1089 -0.1436
 4367W        W20441   7.484  11.656   1.296 -0.1721 -0.0068 -0.2150
 4368W        W20442   8.964   9.754  15.928 -0.0365 -0.1957 -0.1591
 4369W        W20443   0.088   4.359   3.639  0.2594 -0.0232  0.0920
 4370W        W20444   1.770   6.772   0.144 -0.1186 -0.0690 -0.0957
 4371W        W20445   0.739   0.439   0.422 -0.3543 -0.1049 -0.4030
 4372W        W20446   0.449   4.007   4.612  0.0564 -0.1079  0.2755
 4373W        W20447   8.284  16.223  12.434 -0.3590  0.0448 -0.0556
 4374W        W20448  14.937   3.686   0.178  0.0689 -0.1275  0.1340
 4375W        W20449   1.113  12.961  13.730 -0.2960  0.0473 -0.1245
 4376W        W20450  10.861   2.652   5.104 -0.1696 -0.0303 -0.2842
 4377W        W20451   3.651  11.789  13.878  0.0667 -0.1848  0.1387
 4378W        W20452  17.422   4.474  13.608 -0.1724  0.4515  0.1661
 4379W        W20453  13.012  15.054  13.477 -0.1605  0.0425  0.0614
 4380W        W20454   2.344   7.908  11.044  0.2806 -0.1920  0.3470
 4381W        W20455  16.715   0.526  15.446  0.1346  0.1635  0.2376
 4382W        W20456  10.460  10.820   1.398 -0.0862  0.1118  0.1497
 4383W        W20457  17.423  15.486  16.961 -0.0081  0.1384 -0.2073
 4384W        W20458   4.877   0.558  16.702  0.1455  0.2881  0.1218
 4385W        W20459   0.450   9.058  13.863 -0.1068  0.0419  0.2655
 4386W        W20460  16.675  16.817   3.652  0.0231 -0.2251 -0.1398
 4387W        W20461   5.843   5.202  11.540 -0.0139 -0.1147 -0.1064
 4388W        W20462   2.130   6.723   5.593 -0.0473 -0.2733  0.2477
 4389W        W20463   0.229  15.593   2.526  0.0163 -0.2208  0.0468
 4390W        W20464  11.514  17.315  16.591 -0.1238  0.4271 -0.3628
 4391W        W20465  16.531   3.303   3.197  0.0522 -0.3307 -0.0338
 4392W        W20466   2.854  11.489   4.750 -0.1599  0.0891  0.1563
 4393W        W20467   7.601   3.400   5.097  0.1507  0.2867  0.3396
 4394W        W20468  15.613  15.594  15.379  0.2983 -0.0150  0.0572
 4395W        W20469  12.208   8.947  11.396 -0.1076  0.0175  0.0105
 4396W        W20470   1.682  12.609   0.829  0.1419 -0.2262  0.2255
 4397W        W20471  10.376  16.315  14.643  0.2815  0.2234  0.0691
 4398W        W20472   2.417  15.403   4.164  0.1374 -0.2195 -0.2443
 4399W        W20473   9.234  12.670   2.814 -0.1189 -0.1284  0.1293
 4400W        W20474  14.077   8.625  15.907  0.0051  0.0905  0.0984
 4401W        W20475   4.058   5.441  13.646  0.3583 -0.0041 -0.0732
 4402W        W20476  10.172   3.557   3.189  0.0536 -0.1857 -0.1076
 4403W        W20477  12.359   4.868   1.123 -0.4119 -0.0701 -0.0698
 4404W        W20478   9.830  15.545   0.109 -0.0553 -0.1696  0.0561
 4405W        W20479   6.027   5.089   3.414 -0.0923 -0.1515 -0.0414
 4406W        W20480  15.094  13.956   2.608  0.0314  0.0020  0.1432
 4407W        W20481   0.470  13.306   0.797 -0.4332 -0.1311  0.2530
 4408W        W20482   3.184  16.726  16.387 -0.1130  0.0711 -0.1573
 4409W        W20483   1.620   9.284   2.559  0.1784 -0.0738 -0.0016
 4410W        W20484  13.861  16.780   4.282 -0.0078 -0.1389 -0.4394
 4411W        W20485   4.883   3.228  13.310 -0.0585 -0.2362 -0.0159
 4412W        W20486  16.952   1.285  12.912 -0.0060  0.1425 -0.0640
 4413W        W20487   0.581   0.893   5.548  0.2298  0.4099 -0.2418
 4414W        W20488   9.729   9.725  13.717  0.2911  0.0723  0.5057
 4415W        W20489  15.932  12.899  15.712 -0.0617 -0.3996 -0.0816
 4416W        W20490   2.026  16.089   2.852  0.0071 -0.0540 -0.0285
 4417W        W20491   7.048  16.034   0.653  0.3260  0.0078  0.2587
 4418W        W20492  15.492   8.715  15.430  0.1358  0.0605 -0.0380
 4419W        W20493  11.013   5.294   3.001 -0.0683 -0.1082 -0.2283
 4420W        W20494  12.129   9.900   5.153  0.0198 -0.1540  0.3540
 4421W        W20495   1.574  10.801   1.311 -0.1455 -0.1533  0.1731
 4422W        W20496   7.079   4.504   1.991 -0.0571  0.0173 -0.0114
 4423W        W20497   1.161   1.103  13.544  0.3585  0.2220  0.0836
 4424W        W20498  15.394  10.861   5.467 -0.2883  0.0600  0.0297
 4425W        W20499   8.026  15.484   4.406  0.1647 -0.0901  0.2145
 4426W        W20500   9.325   5.877   2.772 -0.0964  0.1100 -0.1340
 4427W        W20501   7.902  10.172   4.467  0.1660  0.2528  0.0391
 4428W        W20502  16.823   8.096   5.819 -0.0609 -0.1096 -0.2206
 4429W        W20503  14.094   7.995  11.721 -0.1174 -0.1153 -0.2462
 4430W        W20504  17.285  16.792  14.878  0.2887  0.0745 -0.0617
 4431W        W20505  10.610  14.273  11.691 -0.0411  0.4481  0.0390
 4432W        W20506   1.096   6.179   1.331  0.0270 -0.1599  0.2292
 4433W        W20507  16.863   7.628   1.500 -0.3090 -0.0316  0.1219
 4434W        W20508   1.719   5.151  11.335 -0.1059  0.1262  0.4209
 4435W        W20509   0.343  13.033   4.380 -0.1032 -0.1185  0.0168
 4436W        W20510  13.120  12.873  15.563  0.1402 -0.3119 -0.0496
 4437W        W20511   5.615   8.650  15.431 -0.1128  0.1290  0.0463
 4438W        W20512   3.980  16.702   5.291 -0.0838  0.2746  0.1530
 4439W        W20513  12.283  14.396  16.335  0.1477 -0.1021  0.0276
 4440W        W20514   9.747  12.103  13.807  0.0164  0.4808 -0.2464
 4441W        W20515   4.898  12.741  10.635 -0.2378 -0.0836 -0.1233
 4442W        W20516   2.610   9.011  13.893  0.3398  0.3277  0.1212
 4443W        W20517  16.622  14.508  11.759  0.0611 -0.0633 -0.0512
 4444W        W20518   1.037   3.165   3.555 -0.0168 -0.2076 -0.3144
 4445W        W20519  15.269   6.544   4.293  0.1905 -0.2873 -0.0266
 4446W        W20520  15.407   8.914   1.179  0.2856 -0.1407 -0.5623
 4447W        W20521   3.177  12.021   3.427 -0.0051  0.0060  0.0806
 4448W        W20522   8.549  16.027  13.990  0.1603  0.0174  0.2332
 4449W        W20523   8.649   6.919   4.856  0.1376  0.1030  0.0363
 4450W        W20524  15.582   8.518   1.522 -0.0411 -0.1732  0.1684
 4451W        W20525  11.555   8.170  16.032 -0.2990  0.0109  0.2203
 4452W        W20526  15.419  10.169  14.341 -0.1511 -0.0353  0.0518
 4453W        W20527  16.038  12.070  16.865  0.1027  0.2171  0.2054
 4454W        W20528   3.700   8.150  12.125  0.3154 -0.0089 -0.1198
 4455W        W20529   1.529   2.892  15.393  0.2716 -0.4254 -0.1319
 4456W        W20530  13.069  17.319   3.318  0.1556  0.0256 -0.1024
 4457W        W20531  16.150   2.667  16.922 -0.0681  0.0826 -0.1323
 4458W        W20532   6.081   4.034   2.004 -0.0653  0.0928  0.1063
 4459W        W20533  16.589   4.277  16.412  0.0525 -0.5697  0.1388
 4460W        W20534  12.736   1.364   1.328  0.3944 -0.4098 -0.0097
 4461W        W20535   5.531   3.379  13.896  0.0502  0.4207  0.1445
 4462W        W20536  10.955   6.901  16.609  0.1405 -0.1379  0.1768
 4463W        W20537  11.813  11.617  15.298  0.1962  0.0119 -0.2403
 4464W        W20538   2.142  17.702   3.229 -0.1543  0.0635 -0.5105
 4465W        W20539   3.835   9.278   2.408  0.2205  0.0409  0.1230
 4466W        W20540  16.449  10.334  16.672 -0.0889  0.1000  0.2465
 4467W        W20541   2.554   3.143  12.374  0.0769 -0.1173  0.0568
 4468W        W20542  16.113   2.324   5.263  0.1963 -0.1442  0.0013
 4469W        W20543   5.324  16.568   0.896 -0.1419 -0.0799 -0.1539
 4470W        W20544  11.537  14.188  12.600 -0.1508  0.1722 -0.0776
 4471W        W20545   2.226  14.387  12.361 -0.0917 -0.0009 -0.0914
 4472W        W20546  13.364   6.476   1.798  0.0155  0.0560 -0.1544
 4473W        W20547  11.234  11.792  14.118  0.0030 -0.2864 -0.0461
 4474W        W20548  13.637  16.004  16.761  0.2967 -0.2951 -0.1083
 4475W        W20549  14.514   1.714  16.731  0.0648  0.1069 -0.0324
 4476W        W20550  17.264  16.016  12.011  0.0364  0.1230 -0.1821
 4477W        W20551   6.056  14.836  16.621  0.3589 -0.0811  0.0225
 4478W        W20552   8.023  14.972  15.888 -0.0520  0.0978 -0.0195
 4479W        W20553  16.466  11.202  13.979  0.2218  0.1585  0.2602
 4480W        W20554   5.668   0.165   3.625  0.1203 -0.1248 -0.1106
 4481W        W20555  11.420   7.593   4.977  0.1005  0.1393 -0.2779
 4482W        W20556   2.635   8.017  12.873  0.3343  0.2054 -0.0141
 4483W        W20557   2.108  12.625   2.740  0.0336  0.0689  0.0902
 4484W        W20558  11.099  15.566   4.683 -0.0815  0.0981 -0.0731
 4485W        W20559   7.005   7.343  12.953  0.0680 -0.2987 -0.2323
 4486W        W20560   9.002   6.739  16.026  0.1416  0.1248 -0.0816
 4487W        W20561   8.106  15.480  15.282  0.0263  0.0325  0.1083
 4488W        W20562   2.632   7.185   1.367  0.1425  0.0896 -0.0249
 4489W        W20563  14.574   3.144  15.422 -0.0624 -0.0157  0.0943
 4490W        W20564   2.604   1.138   1.384  0.1265  0.0710 -0.2058
 4491W        W20565  10.116   6.141   3.563 -0.0468  0.1374  0.3450
 4492W        W20566   2.303   5.626   2.091  0.0980 -0.2108 -0.2203
 4493W        W20567  16.641  11.012   1.587  0.1835 -0.0928 -0.0371
 4494W        W20568   4.018   7.469  15.559  0.1404 -0.1485 -0.0439
 4495W        W20569   8.164  13.396   1.699 -0.0960 -0.0270 -0.0760
 4496W        W20570   6.557   1.931  12.159 -0.3378 -0.2024 -0.2481
 4497W        W20571   1.783   2.391   1.681 -0.1977 -0.1751 -0.0237
 4498W        W20572   3.612  13.277  14.425 -0.2027  0.1118 -0.1063
 4499W        W20573  10.701  16.439   3.003  0.0741  0.3268 -0.2054
 4500W        W20574  12.106  17.295   5.197  0.4234  0.2991 -0.3856
 4501W        W20575   3.482   9.655   5.969  0.0406  0.1701 -0.2110
 4502W        W20576   3.714   9.512  12.738 -0.0233  0.0966  0.3126
 4503W        W20577   7.652   2.220   4.207 -0.0721 -0.0329  0.2312
 4504W        W20578   0.387   9.256   5.844 -0.0883  0.0988 -0.1824
 4505W        W20579   7.211   9.941  15.063  0.0814  0.1818 -0.2448
 4506W        W20580  11.597  12.987   2.973 -0.0566  0.1318 -0.2387
 4507W        W20581  15.761  11.042   5.847  0.0943 -0.1336  0.0521
 4508W        W20582  16.415   2.918   6.531  0.2048  0.2139  0.0102
 4509W        W20583   8.470   4.368   3.043  0.2185  0.0399  0.3268
 4510W        W20584   3.418   3.318  16.025  0.1888 -0.0047  0.0828
 4511W        W20585   8.724   7.146   5.450 -0.2811  0.3782 -0.0359
 4512W        W20586   0.265   5.764   1.916  0.3769 -0.2561 -0.2985
 4513W        W20587   2.793  15.921   0.615  0.0802  0.1463  0.0664
 4514W        W20588  12.496  16.140   0.305 -0.1617 -0.2224 -0.0839
 4515W        W20589  13.889   3.933   3.692  0.1301  0.0628  0.1296
 4516W        W20590   4.697  10.822   2.732  0.1259 -0.1318  0.3037
 4517W        W20591   2.615   6.299  12.666  0.0385  0.0536  0.1167
 4518W        W20592  12.416   4.827   3.691  0.0095 -0.3907 -0.1385
 4519W        W20593   1.206  11.784  14.678  0.0688 -0.1155 -0.2749
 4520W        W20594  11.494   8.497   5.432  0.0580 -0.1443  0.1217
 4521W        W20595   0.410   6.636  16.850 -0.0498 -0.1149 -0.0534
 4522W        W20596  11.444  12.751  12.307 -0.0318 -0.0661 -0.0344
 4523W        W20597   1.821  13.997   1.003 -0.0173 -0.0035  0.0386
 4524W        W20598  10.902   0.975   5.135 -0.3198  0.0534 -0.3104
 4525W        W20599  14.094   5.148   1.412  0.0901  0.4900 -0.0650
 4526W        W20600  11.584   7.075   3.522  0.2827  0.1442 -0.2507
 4527W        W20601  14.383  10.807  16.409  0.0465 -0.1683 -0.2193
 4528W        W20602  13.182   5.000  15.884  0.7230 -0.2095 -0.2202
 4529W        W20603  15.714   3.187  14.834  0.0908 -0.3586 -0.0287
 4530W        W20604  10.827  17.013  12.725  0.0743  0.3930 -0.1154
 4531W        W20605   6.949   7.819   4.168  0.0101  0.3084  0.0879
 4532W        W20606   6.168  12.374   3.223 -0.2477 -0.0214 -0.0848
 4533W        W20607   9.967  11.024   6.145 -0.2632  0.1249 -0.2993
 4534W        W20608   4.819   7.915  15.134  0.2192 -0.1711 -0.1600
 4535W        W20609  13.989  12.317   4.736  0.1136 -0.0576 -0.0846
 4536W        W20610   2.519  13.605  11.752 -0.1495 -0.3930  0.2334
 4537W        W20611   1.182   1.010  12.156  0.3226  0.2384  0.1866
 4538W        W20612   9.384   3.367   1.651 -0.1305 -0.0589  0.1840
 4539W        W20613   0.315   3.107  15.798  0.1779 -0.1697 -0.1057
 4540W        W20614  14.381   6.903  16.641 -0.0279  0.5519  0.0885
 4541W        W20615  11.909   8.721  15.293  0.2278  0.1569 -0.2430
 4542W        W20616   5.625   6.825  12.771 -0.5105 -0.1232  0.0153
 4543W        W20617  15.255  13.533   3.771 -0.1616  0.2222  0.1084
 4544W        W20618   1.916  12.442   4.296 -0.0485 -0.1906 -0.1623
 4545W        W20619  12.495  11.963   3.534  0.1205  0.4790  0.0447
 4546W        W20620  13.688  15.610   3.405 -0.1189  0.0628  0.0211
 4547W        W20621  17.814   5.850  16.066  0.1341  0.1754 -0.0228
 4548W        W20622   8.267  12.508  16.210 -0.2358 -0.1590 -0.0548
 4549W        W20623   2.284   1.837  12.339  0.1426  0.1135  0.3438
 4550W        W20624   6.314  13.159   4.732 -0.0533  0.1957  0.2396
 4551W        W20625  17.740  13.748  11.928 -0.2357 -0.1225 -0.4337
 4552W        W20626   9.355   2.117   4.170  0.2651  0.0653  0.2991
 4553W        W20627   9.529  15.193   0.565  0.1650  0.1063  0.2278
 4554W        W20628   0.515  17.648  14.480 -0.3121  0.2486 -0.1397
 4555W        W20629  14.043  15.923   4.730 -0.2117  0.0368 -0.0407
 4556W        W20630  11.170  13.554  14.397  0.2653 -0.1881 -0.2028
 4557W        W20631   4.309   1.005   1.005  0.0731  0.1707 -0.0693
 4558W        W20632  15.211   3.770  15.130 -0.2129  0.3090 -0.2340
 4559W        W20633   7.578   6.174   6.023 -0.0657 -0.0033  0.3248
 4560W        W20634   1.349   4.869  11.859 -0.2200  0.0237  0.1265
 4561W        W20635  15.039  15.340   2.828  0.2036  0.0201 -0.0659
 4562W        W20636  10.094   5.869   0.267  0.0584 -0.0608 -0.0010
 4563W        W20637   1.701   7.200   2.389  0.1197 -0.2792 -0.1340
 4564W        W20638   4.399   9.370  11.487  0.1193  0.0236  0.0363
 4565W        W20639   2.246  14.019   5.344  0.1171 -0.1738 -0.1384
 4566W        W20640  13.618   0.742  12.316 -0.0225  0.1401  0.0464
 4567W        W20641  15.937   9.244  12.201  0.0224 -0.3312 -0.2917
 4568W        W20642  12.676   7.822  11.828 -0.1380  0.1566  0.1240
 4569W        W20643  12.516   6.832  15.639 -0.0033 -0.1558  0.0490
 4570W        W20644  14.848  10.249   2.441 -0.0060  0.2285  0.0236
 4571W        W20645  17.567   0.505  15.957  0.1881 -0.1538  0.1581
 4572W        W20646  13.210   7.128  16.704  0.5195 -0.1065  0.1859
 4573W        W20647   1.530  17.230  15.739 -0.1963  0.2970  0.0716
 4574W        W20648  13.162  12.526   0.256  0.1887  0.0268 -0.4057
 4575W        W20649   3.824   8.543  14.283 -0.0236  0.1458 -0.1296
 4576W        W20650  17.766   4.901   1.515 -0.1024  0.0515  0.1962
 4577W        W20651   7.742  11.444  15.399 -0.0074 -0.1605  0.1640
 4578W        W20652  14.322   7.559   0.400 -0.2274  0.0027 -0.0391
 4579W        W20653  11.306   3.044  15.184  0.0428 -0.1625  0.0421
 4580W        W20654   1.371  17.597  16.496 -0.0712  0.0653 -0.2533
 4581W        W20655   5.227   9.285   2.027 -0.1737  0.0770 -0.1774
 4582W        W20656   3.874   5.081  13.390 -0.2431 -0.0638 -0.2495
 4583W        W20657  14.905  11.090   1.390  0.2090 -0.0415 -0.0529
 4584W        W20658   7.097  14.750   5.051 -0.0366  0.2120  0.1064
 4585W        W20659  16.850   0.376   3.967 -0.2438 -0.2796 -0.1998
 4586W        W20660   1.480  12.074   2.146 -0.0646  0.1243 -0.3050
 4587W        W20661   4.098   2.357   5.301  0.1176  0.1690  0.0249
 4588W        W20662   0.852   0.349  12.431 -0.0238  0.0603  0.3015
 4589W        W20663   9.219   7.125  16.896  0.0447  0.0839 -0.1971
 4590W        W20664   3.312  15.208  16.385  0.4382 -0.2927 -0.2772
 4591W        W20665   2.614   6.751  13.553  0.0245 -0.2661  0.0443
 4592W        W20666  10.400  11.512   4.792 -0.2758 -0.0087  0.0452
 4593W        W20667  13.972  15.721  14.752 -0.3772  0.0123 -0.0019
 4594W        W20668   2.123   6.218   4.185 -0.2113 -0.0608 -0.0258
 4595W        W20669   5.724   9.533   3.961  0.2658  0.0362 -0.0868
 4596W        W20670   3.363   7.761  11.973  0.2202 -0.1176 -0.0713
 4597W        W20671   6.115   5.111  13.418  0.2690  0.2058 -0.0801
 4598W        W20672  12.554   6.540   0.093 -0.1520  0.0115 -0.0583
 4599W        W20673   8.220  15.393  12.614 -0.0594  0.0382 -0.3561
 4600W        W20674   3.702   7.031   3.919 -0.1172  0.2090 -0.0385
 4601W        W20675   7.113  15.593   1.943 -0.0936 -0.0482  0.2606
 4602W        W20676   3.760   6.512   1.739 -0.2207 -0.0637  0.0947
 4603W        W20677  11.954  11.286  13.425 -0.2298  0.0443 -0.0939
 4604W        W20678   6.955   3.243  16.174  0.0806  0.1486 -0.2471
 4605W        W20679   6.237   2.298   4.682 -0.3420  0.0231  0.1438
 4606W        W20680   3.432  14.795  14.296 -0.3454  0.1312 -0.2191
 4607W        W20681   2.063  14.004   1.451  0.2740  0.2355 -0.2861
 4608W        W20682   6.894  14.328  12.168 -0.1323  0.0502 -0.0581
 4609W        W20683  11.662   4.403   0.730 -0.2345 -0.0404 -0.1147
 4610W        W20684   9.007   5.699  15.692  0.4505 -0.1936 -0.2391
 4611W        W20685   3.273   6.283   6.482 -0.2461 -0.3352  0.0577
 4612W        W20686  11.582   6.784  13.063  0.1449 -0.0252  0.0580
 4613W        W20687   0.100  13.869  11.066  0.2206 -0.1323 -0.0498
 4614W        W20688  10.293  17.561   4.984 -0.3141 -0.0505  0.1875
 4615W        W20689   1.924  10.256  16.131 -0.1935 -0.2592 -0.2600
 4616W        W20690   6.636  15.745  15.098 -0.1527  0.2538 -0.0843
 4617W        W20691   4.623   6.664  11.970 -0.0286  0.1894 -0.2064
 4618W        W20692  14.549   4.966   1.434  0.2346 -0.0275 -0.0554
 4619W        W20693   1.912   1.864  12.774 -0.0909  0.1641 -0.4157
 4620W        W20694   4.633  12.975   0.245  0.1113 -0.0114 -0.3733
 4621W        W20695   2.242  14.429  15.857  0.0298  0.1795 -0.2584
 4622W        W20696  11.850  10.548   1.770  0.0917 -0.3581  0.0143
 4623W        W20697  13.698  11.210  15.838 -0.0868 -0.0432 -0.0411
 4624W        W20698  11.740  14.536  14.640  0.1673 -0.2252 -0.1401
 4625W        W20699   5.264  13.691  15.059 -0.0562  0.4464  0.1070
 4626W        W20700   9.962  16.467  14.233  0.0634 -0.0510 -0.0700
 4627W        W20701   8.750   9.038   2.810  0.1146  0.0705 -0.3281
 4628W        W20702   7.732  11.931  14.003 -0.1860  0.2861 -0.0810
 4629W        W20703   8.055   0.740  12.244 -0.0936  0.1300  0.1769
 4630W        W20704  15.153  13.143   5.827 -0.2760 -0.1289  0.1686
 4631W        W20705   8.650   9.413   3.866  0.3534  0.3588 -0.1887
 4632W        W20706   8.600  12.587   0.072 -0.0703  0.1865 -0.0694
 4633W        W20707  11.737   3.855  16.701 -0.1259  0.3909 -0.0016
 4634W        W20708  10.783  14.672  15.150 -0.1728 -0.2561 -0.0239
 4635W        W20709   6.633   1.192  11.411  0.0030 -0.5836  0.1661
 4636W        W20710  12.425   9.288   4.668 -0.1036 -0.1989  0.4258
 4637W        W20711   0.422   5.889   3.177 -0.2789 -0.2702 -0.1998
 4638W        W20712   0.380   9.028  16.508  0.1407  0.0178 -0.5407
 4639W        W20713   3.826   2.002  14.036 -0.0797 -0.2048  0.2266
 4640W        W20714  17.715   1.180  13.210  0.0182 -0.0003  0.0196
 4641W        W20715  17.279   0.419  15.078 -0.0499  0.1516 -0.1788
 4642W        W20716   1.276   2.960   4.646  0.0050  0.3715 -0.1586
 4643W        W20717   3.294   3.126   1.368 -0.0689  0.1728  0.0770
 4644W        W20718  12.537  16.870  14.288  0.2756  0.2723  0.1365
 4645W        W20719   8.648   9.169   6.306 -0.1356  0.0226 -0.0169
 4646W        W20720  17.714   9.478  14.891 -0.0117 -0.2965  0.1561
 4647W        W20721  13.945   1.774   0.438  0.0367 -0.2012  0.3661
 4648W        W20722   3.608   4.202   0.319  0.3281  0.2298 -0.1172
 4649W        W20723   3.406   6.913  15.445  0.1502  0.2907  0.2607
 4650W        W20724  12.541  12.891  13.523  0.3785  0.0833 -0.2487
 4651W        W20725  15.984   5.457   1.428 -0.0690  0.0863  0.1255
 4652W        W20726  11.006   2.589  14.576  0.0466  0.1551  0.0733
 4653W        W20727   6.681  17.459  15.715  0.1679  0.1907 -0.3902
 4654W        W20728   9.358  16.758   3.044 -0.0685 -0.2022 -0.0558
 4655W        W20729   7.843   0.860   2.106 -0.0682 -0.1927 -0.2770
 4656W        W20730  15.274  17.132   2.682 -0.1860  0.1136 -0.3184
 4657W        W20731   2.264  17.318   1.013  0.0010 -0.0162 -0.1940
 4658W        W20732   0.436  10.069   3.262 -0.1083 -0.2094 -0.0977
 4659W        W20733  12.755   5.395   0.335 -0.1613  0.1358  0.0772
 4660W        W20734   5.385  10.863   4.125 -0.0430  0.0575  0.1082
 4661W        W20735   0.919  10.987   0.678  0.3244  0.2665  0.4424
 4662W        W20736  12.641   3.512   5.199 -0.0118  0.0969 -0.3396
 4663W        W20737  12.800   4.786   5.098 -0.0889  0.1668 -0.1509
 4664W        W20738  16.715   8.029  12.026  0.0367  0.0406  0.0541
 4665W        W20739  15.520   3.618   4.024 -0.1686 -0.1543  0.0406
 4666W        W20740   6.321   5.636  16.739  0.1298  0.0456 -0.0403
 4667W        W20741   0.341   5.117  16.751 -0.0841 -0.0271 -0.1804
 4668W        W20742  16.201  13.421   2.929  0.2514 -0.0075 -0.2364
 4669W        W20743   4.664  11.655  14.113  0.2593  0.0006 -0.0602
 4670W        W20744   4.133   4.583   1.812  0.0487  0.2251  0.0939
 4671W        W20745   2.167   6.619  14.849  0.0855  0.1929 -0.1209
 4672W        W20746  12.306   0.437  16.656  0.4606  0.0346  0.1855
 4673W        W20747  13.189   1.664   5.605  0.2191 -0.2822  0.1501
 4674W        W20748   3.707  13.403   3.414 -0.0210 -0.0151  0.0811
 4675W        W20749   9.456   6.340  11.573  0.1963 -0.1372  0.0780
 4676W        W20750   7.905   6.294   3.827 -0.1423 -0.2682 -0.0872
 4677W        W20751   6.526  14.294   3.985 -0.0070  0.2613 -0.1871
 4678W        W20752   8.794   5.882   2.742  0.2549  0.1642 -0.0517
 4679W        W20753  17.002  14.643   0.292 -0.0465 -0.0663  0.3021
 4680W        W20754   5.508  16.547   6.274  0.4520  0.2045  0.2039
 4681W        W20755  10.236  17.154   5.723  0.0455  0.0851 -0.2713
 4682W        W20756   0.165  16.337  14.889 -0.0214 -0.3251 -0.0389
 4683W        W20757   9.582  16.799  14.373 -0.0293 -0.1721  0.0869
 4684W        W20758  15.852  16.577   0.631  0.3013  0.0686 -0.0814
 4685W        W20759  16.993   5.166   5.635  0.0923  0.1976 -0.0270
 4686W        W20760   1.734   7.234  16.422 -0.0152 -0.1372  0.1523
 4687W        W20761  14.945   6.607   4.931  0.2387  0.0612 -0.1602
 4688W        W20762  15.234   1.499  16.124 -0.1123  0.0986  0.2796
 4689W        W20763   3.236   5.053  14.365 -0.1716 -0.0806 -0.1922
 4690W        W20764   5.822   9.029  12.443  0.0610  0.0218  0.0547
 4691W        W20765   2.303   6.314  16.871  0.0345  0.2116 -0.0431
 4692W        W20766   2.508   7.566  13.042 -0.0929 -0.0774 -0.1951
 4693W        W20767  10.342   2.620  11.866  0.0441 -0.0489  0.0611
 4694W        W20768  15.829   1.498   1.290 -0.0090  0.0195  0.1557
 4695W        W20769   7.454   9.672  13.878  0.2268 -0.1022  0.2152
 4696W        W20770  15.407  12.494   5.721  0.4044  0.0790 -0.2840
 4697W        W20771   9.224   1.329  14.839  0.0669  0.2066 -0.0662
 4698W        W20772  16.262  16.139  13.984  0.2871  0.1176 -0.0233
 4699W        W20773   1.795  12.932  10.619  0.1823  0.2664  0.2212
 4700W        W20774  11.074   2.547   1.775  0.1880 -0.1172  0.1498
 4701W        W20775   4.059  15.581  15.804  0.2065  0.1280  0.0210
 4702W        W20776   4.109   7.343   4.030  0.0779  0.1915 -0.1232
 4703W        W20777  14.610  14.305   3.442 -0.4437 -0.3947 -0.0106
 4704W        W20778  16.976   6.725  11.633  0.0896 -0.2082 -0.0562
 4705W        W20779   8.844  12.017   3.164 -0.3360  0.0803  0.1102
 4706W        W20780   6.980   2.843  14.097  0.1728 -0.1221  0.1100
 4707W        W20781  17.308   9.729  16.770 -0.3451  0.0309 -0.0104
 4708W        W20782   4.220   3.296  13.317 -0.3202  0.0512  0.1880
 4709W        W20783  10.167   4.700  14.577  0.3223 -0.1287 -0.0782
 4710W        W20784  15.198  15.901   3.410 -0.2072 -0.2677  0.1960
 4711W        W20785  15.278   8.440   0.843  0.1411 -0.2951 -0.0250
 4712W        W20786  16.352  11.774  14.980  0.0082  0.2767  0.0346
 4713W        W20787  14.440   9.060   4.083 -0.1213 -0.2359 -0.0598
 4714W        W20788   8.080   5.137   2.480  0.0659  0.1809  0.3106
 4715W        W20789   3.342   5.911  13.921 -0.3154  0.0676 -0.2037
 4716W        W20790   8.022   2.863   2.627 -0.0090 -0.1448 -0.2128
 4717W        W20791   6.105  13.465   3.710 -0.0247 -0.2048 -0.1246
 4718W        W20792   6.423   2.221  16.926 -0.0549 -0.0837  0.0239
 4719W        W20793  12.760  10.601  13.051  0.1018 -0.0773 -0.0478
 4720W        W20794  17.396  17.789   5.981 -0.0567 -0.2665 -0.0143
 4721W        W20795   2.289  16.898   4.854  0.1751  0.1612 -0.0409
 4722W        W20796  11.329  10.404   1.613 -0.0677 -0.1266  0.0973
 4723W        W20797  12.897   3.303  14.995  0.6185 -0.1041 -0.1998
 4724W        W20798  11.584  11.479  13.830  0.1499 -0.0487 -0.0844
 4725W        W20799   7.698  10.098  13.853 -0.0624 -0.1411  0.0501
 4726W        W20800  12.557   8.133  15.386  0.0584  0.0816  0.0430
 4727W        W20801   3.232   6.591   1.657 -0.0854 -0.1900 -0.0372
 4728W        W20802   5.863   9.888  16.601  0.1963  0.5458  0.0982
 4729W        W20803   5.779   8.864   0.931 -0.2618  0.0368 -0.0615
 4730W        W20804  17.661  13.283   4.231 -0.2439  0.2832 -0.1470
 4731W        W20805  17.186  13.332  13.353  0.0094 -0.2214 -0.3415
 4732W        W20806  16.815   7.281   1.917 -0.2209 -0.2472 -0.1456
 4733W        W20807   2.867  10.575  16.274 -0.0395 -0.2688 -0.1623
 4734W        W20808  10.137   7.896   3.942  0.1407  0.1193 -0.0698
 4735W        W20809   1.308   8.754   4.143  0.1451  0.0542  0.1102
 4736W        W20810  10.585  16.774   5.761 -0.1059  0.3374  0.1412
 4737W        W20811   8.814   2.421   2.505 -0.0894  0.0402 -0.1324
 4738W        W20812   4.118  15.087   5.884 -0.0639  0.1421  0.3077
 4739W        W20813  12.177   5.005  13.662 -0.0043 -0.1729 -0.1725
 4740W        W20814  10.130  10.594   0.367  0.0244  0.0726 -0.2335
 4741W        W20815  14.415  11.986  12.510  0.2144 -0.0495 -0.0497
 4742W        W20816  11.996   9.185   2.462 -0.2878 -0.0921  0.0525
 4743W        W20817   5.715   8.872  16.235  0.1074 -0.3890  0.1168
 4744W        W20818   7.518   6.208  14.196  0.1213  0.1389 -0.2429
 4745W        W20819  10.188   6.439   2.902  0.1299 -0.1152 -0.2507
 4746W        W20820   5.265  11.226   2.133 -0.1865  0.2299 -0.2086
 4747W        W20821   9.716  16.543  15.861 -0.2019  0.1113 -0.3378
 4748W        W20822  14.811  15.061  13.537  0.1743 -0.2197 -0.0070
 4749W        W20823   2.715   6.124  11.468  0.3458  0.1649  0.0981
 4750W        W20824   3.376  16.267   0.893  0.0388  0.3916 -0.0910
 4751W        W20825  14.549   3.182   2.212 -0.1504  0.1004  0.0913
 4752W        W20826   5.293  10.839  15.843  0.0123  0.0736 -0.1244
 4753W        W20827   6.405   4.259  13.914 -0.1297  0.1011  0.3361
 4754W        W20828  16.832  10.965   0.595  0.0442 -0.0962  0.2997
 4755W        W20829  16.509   8.348   2.745  0.1994 -0.2360 -0.0823
 4756W        W20830   4.616  14.412   5.222  0.0647  0.3214  0.0948
 4757W        W20831   3.410   4.915  15.310 -0.0513  0.0997 -0.2087
 4758W        W20832  12.706  10.278  16.755  0.0156  0.0503 -0.0512
 4759W        W20833  12.612   0.697   1.912  0.0876 -0.1220 -0.0509
 4760W        W20834  11.193  14.475  12.445  0.0757 -0.1473 -0.1198
 4761W        W20835   2.130  11.485  16.682  0.1178  0.0267 -0.1683
 4762W        W20836   7.955  10.334   3.072 -0.0927 -0.3339 -0.1468
 4763W        W20837  11.748   9.081  16.201 -0.3741 -0.0222 -0.1584
 4764W        W20838  12.676   6.105   3.402  0.1176 -0.0359  0.2460
 4765W        W20839  11.195   8.241  13.857 -0.1373 -0.0888 -0.0270
 4766W        W20840  11.351  11.174   0.107 -0.0716  0.0370 -0.2076
 4767W        W20841   7.717   9.972  12.574 -0.2659  0.0854 -0.0931
 4768W        W20842   3.268   2.997   4.736  0.0653  0.2375 -0.0602
 4769W        W20843   5.327  12.772   1.676 -0.0783 -0.0995 -0.0159
 4770W        W20844   8.989   0.351   2.951 -0.2973 -0.1116 -0.1049
 4771W        W20845   6.714   6.327  13.732  0.1030 -0.0686  0.0083
 4772W        W20846   9.680  11.605  16.662  0.2187  0.0964  0.1450
 4773W        W20847   9.012  12.677  12.737 -0.0381  0.0207 -0.4535
 4774W        W20848  10.832   0.437   3.929  0.1950 -0.0396 -0.1518
 4775W        W20849  15.619  13.851  13.170 -0.0366 -0.3424  0.1732
 4776W        W20850  16.508   5.431  16.520 -0.0017 -0.1482  0.1738
 4777W        W20851   9.837  16.775   3.337 -0.2663 -0.1977 -0.0867
 4778W        W20852  16.300   1.150  14.365  0.1774 -0.0323 -0.2486
 4779W        W20853  17.638   5.250  15.529 -0.0341 -0.0700 -0.2722
 4780W        W20854   4.587   8.801  16.442  0.0284  0.1533 -0.2679
 4781W        W20855   0.845   7.552   1.162  0.1652  0.2319  0.4858
 4782W        W20856   7.370  10.689  13.173  0.1171  0.2310  0.0712
 4783W        W20857  12.945  14.460   1.640 -0.0317  0.1582 -0.0522
 4784W        W20858   9.419   2.250   4.873  0.1522 -0.0486  0.2206
 4785W        W20859   6.279  10.413  13.386 -0.0222 -0.1320 -0.1332
 4786W        W20860  14.190   0.968  13.444  0.2062  0.0340 -0.0993
 4787W        W20861   9.949  15.804   3.041 -0.0695  0.1626 -0.1417
 4788W        W20862   1.839   1.232   5.649  0.0086 -0.1717 -0.1333
 4789W        W20863  15.879  11.608   0.603  0.3131 -0.0784 -0.2329
 4790W        W20864   2.410   0.584   4.811  0.0041 -0.2967  0.3064
 4791W        W20865  10.628   3.656  12.178 -0.0848  0.1678  0.0499
 4792W        W20866  11.259  10.749  16.402  0.2908 -0.2927  0.1965
 4793W        W20867   5.189  11.353   4.179  0.0282 -0.0798  0.1960
 4794W        W20868   9.562  17.093  16.624 -0.5450  0.3473  0.2829
 4795W        W20869   4.487   3.646   5.193  0.0846  0.2168  0.1350
 4796W        W20870  16.573   3.810  12.896 -0.0302 -0.3029 -0.1842
 4797W        W20871   9.425  11.789   0.995 -0.2019 -0.0618  0.1350
 4798W        W20872   4.154   7.259   5.223 -0.4286  0.3905 -0.0017
 4799W        W20873  16.861   3.352   4.215 -0.0052 -0.0113  0.0732
 4800W        W20874  10.194   8.495  15.798  0.1431  0.1853 -0.1700
 4801W        W20875   3.773   3.173  13.603  0.1180 -0.2192 -0.0527
 4802W        W20876   2.090   6.556  13.463  0.0989  0.1312 -0.0840
 4803W        W20877  11.555   4.730  13.305 -0.2871  0.1121 -0.0218
 4804W        W20878  11.369  14.783  16.154  0.0792 -0.2356  0.4037
 4805W        W20879  16.207   3.634   2.811 -0.2685 -0.2786 -0.0221
 4806W        W20880  14.197   3.937  12.093  0.1144  0.4408  0.0750
 4807W        W20881  15.666   7.353   0.501  0.5752 -0.1215 -0.0304
 4808W        W20882   7.437  15.947  11.752 -0.0213  0.0001 -0.0926
 4809W        W20883   7.525   2.817  14.154  0.0174 -0.0597 -0.1993
 4810W        W20884   7.094  10.601  12.541  0.1238  0.1522  0.2550
 4811W        W20885  13.320   1.115   0.783  0.0041 -0.2532  0.0544
 4812W        W20886  16.370   2.042   4.820  0.1011 -0.4858 -0.3355
 4813W        W20887   7.079   6.000  11.312  0.2119 -0.1884 -0.1396
 4814W        W20888  12.330   1.350   0.983 -0.4457 -0.1792  0.5419
 4815W        W20889  16.530  11.552   1.543 -0.0588  0.1905 -0.0706
 4816W        W20890   5.467  15.124  14.733 -0.1492 -0.0451  0.1072
 4817W        W20891  16.782   8.873  14.516  0.2363  0.1808  0.2625
 4818W        W20892   8.352   8.106   4.048  0.1416  0.0238 -0.0604
 4819W        W20893  11.633  10.407   0.067 -0.0005 -0.0356  0.0457
 4820W        W20894   0.503   9.565   5.459  0.1998  0.1807  0.2328
 4821W        W20895   1.403   8.198   0.025  0.2104  0.0814  0.1257
 4822W        W20896  14.378   6.214   5.754  0.2288 -0.1962  0.2993
 4823W        W20897  13.198  16.248   1.504 -0.1318  0.3703  0.0235
 4824W        W20898   5.723   7.565   6.015  0.1520  0.0908  0.4671
 4825W        W20899  15.285   6.306  13.640  0.1639 -0.1422  0.0378
 4826W        W20900   1.900   8.262  16.074 -0.0392 -0.2971  0.0752
 4827W        W20901   4.741   9.065   3.954 -0.0266 -0.1388  0.1067
 4828W        W20902   8.400   6.775   0.129  0.2304 -0.1146  0.0401
 4829W        W20903  10.616   0.940   6.136 -0.2403  0.1546  0.2990
 4830W        W20904  10.098   2.782  16.274  0.1369 -0.0157 -0.1026
 4831W        W20905   4.287   8.514  13.640  0.2684 -0.1340 -0.0008
 4832W        W20906  14.360   8.655  12.214 -0.1234 -0.0752 -0.2118
 4833W        W20907   6.787   1.669   1.652 -0.0189  0.0396  0.1114
 4834W        W20908   4.203   3.622  16.963  0.3394 -0.1507 -0.1280
 4835W        W20909   0.652  14.465  13.176  0.1378 -0.1502 -0.0251
 4836W        W20910  10.870  12.901  13.901 -0.0909 -0.2361 -0.2291
 4837W        W20911   2.038  16.806  12.381  0.1635  0.1054 -0.0818
 4838W        W20912  10.995   6.565  14.754 -0.3491 -0.2235 -0.0497
 4839W        W20913   6.415  15.055   1.323  0.1620 -0.1363 -0.0391
 4840W        W20914  13.091  14.916  14.961 -0.3322  0.1587 -0.2452
 4841W        W20915   9.523   9.755   6.042  0.1363  0.5675 -0.0370
 4842W        W20916  10.811  11.340   1.491  0.0233  0.1492 -0.3383
 4843W        W20917   3.397  10.515   4.414 -0.1829  0.0021 -0.0594
 4844W        W20918   1.535   0.538  15.054  0.3739  0.1078 -0.3887
 4845W        W20919   4.816  16.895  14.097 -0.0943 -0.1131 -0.0891
 4846W        W20920   7.313   5.645   3.680  0.2543  0.3038  0.1446
 4847W        W20921   8.503   5.532  12.028  0.1880 -0.1232  0.2348
 4848W        W20922   1.419   0.544  13.723 -0.0088 -0.0789 -0.1478
 4849W        W20923   3.383   5.664   2.110 -0.1948 -0.0097 -0.3911
 4850W        W20924   4.558   2.774  12.229 -0.0224  0.3175  0.1922
 4851W        W20925   3.564  16.096   3.447 -0.2810 -0.2734 -0.0169
 4852W        W20926   6.790   3.426   4.009  0.1392 -0.0094 -0.1765
 4853W        W20927   0.532  16.177   0.606 -0.2599  0.2852  0.0328
 4854W        W20928  11.060   3.510   4.021 -0.1047  0.4125  0.2006
 4855W        W20929   7.682  15.657  16.077 -0.2689  0.2409 -0.2937
 4856W        W20930   5.805  14.346   3.203 -0.3368 -0.2098  0.0532
 4857W        W20931  16.588   1.087  15.165  0.1409  0.0540 -0.2341
 4858W        W20932  14.416  17.468  15.956 -0.0284 -0.0970 -0.1880
 4859W        W20933   2.326  16.574   3.890 -0.1083  0.3003 -0.0142
 4860W        W20934   8.791  15.646   0.404  0.1933  0.0620 -0.0620
 4861W        W20935   6.534   8.187   5.917  0.1844  0.0524 -0.5662
 4862W        W20936  17.590  16.264  13.447 -0.1655  0.0725 -0.4098
 4863W        W20937   0.632  12.297   0.475  0.1878 -0.0933 -0.1013
 4864W        W20938   7.519   6.432  12.008  0.0421 -0.1942 -0.0679
 4865W        W20939   0.803   6.885   5.242  0.1220  0.2077 -0.0913
 4866W        W20940   7.242  13.033   2.694  0.4239 -0.0554  0.1004
 4867W        W20941   7.729   1.686  12.809  0.5008  0.0190 -0.4366
 4868W        W20942  14.128   5.246   5.692  0.1132  0.4855  0.0099
 4869W        W20943   5.714   0.977  15.127 -0.4598  0.0112 -0.1326
 4870W        W20944  11.686   3.718  12.875  0.0169  0.1299 -0.1481
 4871W        W20945   1.487  17.389   5.812  0.1112 -0.2398  0.1942
 4872W        W20946  13.690  15.176   3.659  0.2394  0.0435  0.0458
 4873W        W20947  13.540  16.431  15.301  0.0283 -0.1478  0.1306
 4874W        W20948   5.031  13.647   0.808 -0.1209 -0.0004  0.0298
 4875W        W20949  15.899  14.758   3.396  0.2971 -0.4742  0.0936
 4876W        W20950   6.919   4.634   4.986 -0.1327  0.3061 -0.1077
 4877W        W20951  12.670  11.427   1.129 -0.0735  0.0670  0.1011
 4878W        W20952   8.490   5.831   5.138  0.0466  0.1269 -0.2855
 4879W        W20953   9.644  14.571  14.706  0.1379 -0.1741  0.0582
 4880W        W20954  11.147   4.461  15.954  0.0256 -0.0670 -0.1998
 4881W        W20955  12.247   9.591   2.676 -0.0914  0.0215 -0.0469
 4882W        W20956  10.935   7.248  15.815  0.2365 -0.2195 -0.1887
 4883W        W20957   7.066  10.786   2.326 -0.0764 -0.1230 -0.3532
 4884W        W20958   8.640   9.115  16.682 -0.3103 -0.6126 -0.1877
 4885W        W20959  17.632  12.089  16.658 -0.1769 -0.0588  0.1391
 4886W        W20960   1.287   8.098   0.686 -0.0386  0.2485  0.2739
 4887W        W20961   5.270   0.115   1.768  0.4196 -0.0004 -0.0604
 4888W        W20962   7.342  16.889   0.820  0.3896  0.2052  0.1042
 4889W        W20963   8.674  10.132  14.270  0.2877  0.0748 -0.0111
 4890W        W20964   6.577   0.954   0.308 -0.0067 -0.0986 -0.1392
 4891W        W20965   0.078  17.137   0.452  0.2553  0.2090  0.0086
 4892W        W20966   5.605   7.317   5.566 -0.1106 -0.1410 -0.1403
 4893W        W20967  11.436  13.211   3.848  0.1510 -0.1058 -0.1052
 4894W        W20968   4.644   7.058  15.713 -0.1022  0.1521 -0.0244
 4895W        W20969  17.346  11.261  13.841  0.0546 -0.0114  0.0657
 4896W        W20970  13.907   4.278  13.854 -0.0695 -0.2752  0.0252
 4897W        W20971   6.219   5.510  14.170  0.0815 -0.2930 -0.1745
 4898W        W20972   6.573  10.918   2.819 -0.1683 -0.2124 -0.2675
 4899W        W20973   7.493  14.316   1.381  0.2555 -0.3080  0.0689
 4900W        W20974   9.956   7.021   0.334  0.0047 -0.0200 -0.2034
 4901W        W20975   1.129  11.658  12.650  0.1270 -0.1388 -0.0496
 4902W        W20976   0.234   9.326  12.900 -0.0741  0.0376 -0.1571
 4903W        W20977   3.185   8.573   3.032 -0.3268  0.2137  0.0087
 4904W        W20978   8.600   8.556   1.858  0.0005  0.2562  0.1976
 4905W        W20979  17.543   2.087  15.235 -0.0639 -0.1816  0.1130
 4906W        W20980  12.096   0.628  10.961  0.0940  0.1942  0.0954
 4907W        W20981  16.960  13.823  15.653  0.0947 -0.0882 -0.3076
 4908W        W20982  14.167   4.624   4.079 -0.0259 -0.2132 -0.2288
 4909W        W20983  11.302  14.643   4.743 -0.1371 -0.2279 -0.0055
 4910W        W20984  13.354   2.050  11.889 -0.1482 -0.3419 -0.0116
 4911W        W20985  13.564   9.844   3.999 -0.2096 -0.1317 -0.0715
 4912W        W20986  15.746   6.313   5.280  0.1955  0.1460 -0.0501
 4913W        W20987  12.853  16.594   2.561 -0.2712 -0.2733  0.1330
 4914W        W20988  16.732   1.737   4.911  0.2173  0.1205 -0.2782
 4915W        W20989  15.284   9.454   3.381  0.1989  0.1520  0.0342
 4916W        W20990   2.983   7.458  13.015 -0.2603  0.1103  0.0890
 4917W        W20991   4.034   3.268  13.986 -0.0842 -0.1810 -0.1990
 4918W        W20992   3.429  17.223  16.201  0.0693  0.4225  0.0533
 4919W        W20993  17.684  16.844   0.134  0.1659 -0.2438  0.3111
 4920W        W20994   7.218   7.750   1.597  0.0698 -0.0446 -0.1943
 4921W        W20995  11.454  10.117  14.332 -0.0979 -0.3221  0.1704
 4922W        W20996  13.380  14.720   2.895  0.0424  0.1645  0.1095
 4923W        W20997  12.594   9.645  13.555  0.0242 -0.0981 -0.0247
 4924W        W20998   0.113  12.189  11.866  0.3783 -0.3235 -0.0940
 4925W        W20999   0.457  16.279  13.974 -0.2423 -0.2971 -0.0872
 4926W        W21000  11.520   4.469   4.855 -0.0690  0.1502  0.2901
 4927W        W21001   0.388  12.532  15.234  0.1833 -0.2120 -0.3123
 4928W        W21002   3.140   3.821   1.733 -0.3853 -0.3869 -0.1726
 4929W        W21003   6.229  16.139   2.758 -0.1181  0.1715 -0.0172
 4930W        W21004   1.358  11.163   5.523  0.2344  0.2157  0.0012
 4931W        W21005   2.840  12.113  11.996  0.0067  0.1402 -0.1178
 4932W        W21006  17.471   1.513   1.265  0.2391  0.0936  0.3353
 4933W        W21007   4.175  17.170  12.541 -0.4697 -0.1177 -0.2333
 4934W        W21008  10.830  15.518   3.156  0.2531 -0.0152  0.2807
 4935W        W21009   9.021   8.535  15.515 -0.0459  0.2172 -0.6335
 4936W        W21010  12.053  11.781   5.511  0.0521 -0.0266  0.3453
 4937W        W21011   5.177   4.742  16.541 -0.1370 -0.0743 -0.0058
 4938W        W21012  14.409  11.781  16.321 -0.0764 -0.1844 -0.1819
 4939W        W21013   1.618   7.358  12.795  0.2128  0.0034 -0.0792
 4940W        W21014   6.971  14.441   3.495 -0.2198  0.1589 -0.2340
 4941W        W21015   9.768  17.091   5.827  0.0710  0.1095 -0.0519
 4942W        W21016   1.264   1.845  16.147  0.1122  0.1856 -0.0792
 4943W        W21017   3.788  16.150   2.311 -0.1410 -0.1585 -0.0299
 4944W        W21018   7.777  17.125   1.081 -0.1049  0.0514 -0.1982
 4945W        W21019   7.525  15.952   6.484 -0.1600 -0.1983  0.3005
 4946W        W21020  10.633   6.773  12.436  0.0286  0.0243  0.1288
 4947W        W21021   6.475   9.428   1.707  0.2182  0.1754 -0.0907
 4948W        W21022  15.749  14.140  14.757  0.0906  0.3291 -0.3228
 4949W        W21023  16.774  15.187  15.888 -0.0853  0.0813  0.1690
 4950W        W21024   9.276   1.962   0.184  0.3048 -0.1242  0.3659
 4951W        W21025   6.170  10.314  11.083 -0.0384  0.1760  0.0785
 4952W        W21026   3.212   6.532   4.558  0.0461  0.0675 -0.0723
 4953W        W21027  13.766  11.991  14.564  0.0150  0.0209  0.0269
 4954W        W21028  16.761  12.185  13.729 -0.1122 -0.1221 -0.1069
 4955W        W21029   8.838   7.180   0.325  0.0388 -0.0098 -0.2053
 4956W        W21030  15.021   5.165  12.879  0.2534 -0.1333 -0.1907
 4957W        W21031   7.119  10.578  11.463 -0.0281 -0.0318 -0.2303
 4958W        W21032  13.613  14.258   5.211 -0.1503 -0.1832  0.2787
 4959W        W21033  16.840  14.004  11.663 -0.1456 -0.1385  0.1991
 4960W        W21034   1.371  10.359   6.072  0.0485  0.1813 -0.0065
 4961W        W21035   3.410   1.017   0.313 -0.2420  0.0878 -0.2489
 4962W        W21036   5.192   7.703   1.300 -0.2731 -0.1511  0.0525
 4963W        W21037   1.414   0.311  15.791 -0.2362 -0.1277 -0.0514
 4964W        W21038   2.149  15.534   5.858 -0.1102  0.0176  0.1433
 4965W        W21039  15.201  15.051  12.563 -0.3360  0.1556 -0.1544
 4966W        W21040   2.455  11.360  13.541  0.1205 -0.0960 -0.2087
 4967W        W21041   5.818   4.375   3.146  0.1068 -0.0718  0.0707
 4968W        W21042  16.870   1.045  16.435 -0.1220  0.2843  0.3692
 4969W        W21043  11.960   5.165  14.228  0.2465  0.2203 -0.3682
 4970W        W21044   6.111  17.705   3.444  0.1947 -0.1518  0.1204
 4971W        W21045  16.263  10.832   0.834  0.0448  0.0916  0.2061
 4972W        W21046   5.972  13.172  12.290  0.1021  0.2593 -0.2147
 4973W        W21047   8.903  15.860  13.039  0.0146 -0.0606 -0.2666
 4974W        W21048   7.604   3.910  10.439 -0.1381  0.3721  0.0537
 4975W        W21049  17.347   6.649  13.613  0.0168 -0.0899 -0.4337
 4976W        W21050   3.103   6.021  12.929  0.0507 -0.0869  0.0151
 4977W        W21051   5.851   7.581   2.118 -0.0948 -0.0472  0.0768
 4978W        W21052   7.619  10.367   4.095  0.0074 -0.0025  0.1751
 4979W        W21053   9.557  14.146  15.545 -0.2212 -0.1378  0.1068
 4980W        W21054   3.902   3.281   3.209  0.3831  0.4132 -0.1096
 4981W        W21055  11.584   4.468  15.290 -0.0113  0.1782  0.1756
 4982W        W21056   3.465  10.362   2.373 -0.2355  0.0648  0.0643
 4983W        W21057  11.926   9.087  11.775 -0.0085  0.0777 -0.1146
 4984W        W21058   7.441  13.350   5.384 -0.1612 -0.1879  0.2173
 4985W        W21059  12.127  13.202  11.815 -0.0426  0.0894  0.0682
 4986W        W21060  14.192  16.820   2.666  0.0242  0.2218 -0.1202
 4987W        W21061  17.562  14.784   4.547  0.0414  0.1074 -0.0609
 4988W        W21062  14.912  12.232   5.638  0.1387  0.0393  0.3979
 4989W        W21063  11.796  15.451  11.791 -0.0990 -0.1536 -0.2844
 4990W        W21064  12.140  17.102   1.757  0.1335  0.1870 -0.2858
 4991W        W21065   9.161   9.595  12.329  0.0885 -0.1297  0.0994
 4992W        W21066  10.476  16.363  11.834  0.2874  0.0811 -0.0782
 4993W        W21067   2.917   2.631   2.053 -0.2290 -0.2771  0.5146
 4994W        W21068   5.875   4.589  12.734 -0.1647 -0.1431 -0.1482
 4995W        W21069   0.583   0.558  15.006 -0.1462 -0.0161 -0.1069
 4996W        W21070   5.397   9.076   6.236 -0.1748  0.1691 -0.4408
 4997W        W21071   7.352  10.021  16.424  0.0867 -0.2349 -0.1180
 4998W        W21072  10.045   2.248   2.901 -0.0655  0.1293 -0.1859
 4999W        W21073  13.955   8.104   2.064 -0.0829  0.0325  0.0752
 5000W        W21074   2.676  16.017   5.136  0.1308 -0.0761 -0.2090
 5001W        W21075   5.437   9.384  12.401  0.0740 -0.2820  0.0035
 5002W        W21076  12.564   8.098  15.921  0.3072  0.0381  0.0067
 5003W        W21077   8.711  17.186  12.040 -0.2018 -0.0409  0.1518
 5004W        W21078  11.383   0.369  12.798 -0.0426  0.1739 -0.2817
 5005W        W21079   3.787  14.266  14.272  0.0532  0.0766  0.2031
 5006W        W21080   9.999  14.379   1.673 -0.0318 -0.1598 -0.3704
 5007W        W21081  12.669   9.953   5.379  0.0942  0.1972 -0.2146
 5008W        W21082   1.219  14.719   1.370  0.1640 -0.0394  0.2555
 5009W        W21083   1.142   0.300   2.755 -0.0418  0.0876 -0.1563
 5010W        W21084  14.517  14.231  15.571  0.1552  0.1389 -0.2046
 5011W        W21085   6.358  15.280  16.619 -0.5606 -0.1005  0.1293
 5012W        W21086  15.435  11.540  12.750  0.3608  0.0406 -0.0975
 5013W        W21087   7.264   1.298   5.107 -0.0670  0.0411 -0.0361
 5014W        W21088   6.076  13.256   3.250  0.0230  0.0892  0.1666
 5015W        W21089   6.618  15.053  13.190 -0.2935 -0.1138 -0.1031
 5016W        W21090   0.139  13.604  14.330 -0.0184 -0.2803  0.0209
 5017W        W21091  13.011  16.987   2.939 -0.2812  0.0183 -0.1783
 5018W        W21092  11.834  10.602   0.846 -0.0175 -0.0206 -0.0002
 5019W        W21093   2.313  14.115   4.861 -0.1110 -0.2179  0.1447
 5020W        W21094  14.522  10.208  13.481  0.1249  0.1222  0.0120
 5021W        W21095   1.057  10.116   4.515  0.1664 -0.2168  0.1297
 5022W        W21096   0.074   5.496  16.594 -0.0781 -0.0099  0.1668
 5023W        W21097   8.044  11.155   0.150 -0.1999 -0.0080 -0.0126
 5024W        W21098  11.533  10.002  11.841 -0.1862 -0.1050  0.3083
 5025W        W21099   5.121   7.884   4.269  0.0429  0.1786 -0.2394
 5026W        W21100   3.384  12.793   1.756  0.0740  0.1815  0.1728
 5027W        W21101   9.672   1.011   1.258  0.2700  0.1009  0.0616
 5028W        W21102  11.737   3.675  14.829  0.0755  0.2191 -0.0318
 5029W        W21103   0.038   7.646   3.954 -0.0368 -0.1521  0.0493
 5030W        W21104   5.025  14.712   3.076  0.0071  0.1319 -0.1677
 5031W        W21105   0.067   4.395  15.557 -0.0175  0.0020  0.2105
 5032W        W21106   4.330   7.269   3.060 -0.0278 -0.2032  0.2555
 5033W        W21107  16.641  16.550  13.060  0.1010 -0.1294  0.0004
 5034W        W21108  15.394   4.318   0.498 -0.0217  0.1101  0.0629
 5035W        W21109  11.134  10.183   0.074  0.0602  0.0060 -0.0440
 5036W        W21110   1.622   0.405   0.200  0.0934  0.0537  0.2024
 5037W        W21111  16.680   8.329   0.546  0.2613 -0.1891  0.1078
 5038W        W21112   1.540   6.009  15.558 -0.1608 -0.3961 -0.0279
 5039W        W21113  14.442  10.726  13.440  0.1102 -0.1273 -0.2807
 5040W        W21114   7.771   8.995   2.883  0.1692  0.0409  0.4723
 5041W        W21115   1.041  10.670   5.670  0.0828 -0.3859  0.2739
 5042W        W21116   7.332   5.674  15.414  0.1056  0.0064  0.0711
 5043W        W21117  11.126  12.371   0.844 -0.0226 -0.1695  0.1169
 5044W        W21118  14.004  16.020  12.405  0.0279  0.1338 -0.0971
 5045W        W21119   9.282  14.142   0.024 -0.2645  0.1069 -0.1521
 5046W        W21120   4.148   7.760   3.346 -0.0299  0.0335 -0.1382
 5047W        W21121   5.993  14.680   5.275  0.1250  0.1179  0.1898
 5048W        W21122   9.147   0.816   5.291 -0.1753 -0.0324  0.2582
 5049W        W21123   0.878  11.964  14.362 -0.0104  0.1982  0.0185
 5050W        W21124  14.942   4.325   6.149  0.1767  0.0132  0.3031
 5051W        W21125   2.988   0.906  13.814 -0.1968  0.0193 -0.0898
 5052W        W21126  10.808  11.567   3.694 -0.0818 -0.1709  0.2095
 5053W        W21127  14.687  16.277   5.061  0.4287  0.5010  0.3342
 5054W        W21128   8.034  17.741   1.753 -0.1433  0.1031  0.0497
 5055W        W21129   0.380   0.524   1.306 -0.0759 -0.2368  0.0997
 5056W        W21130   6.037  16.269  15.664 -0.0310  0.2700  0.1139
 5057W        W21131   0.213  13.172   5.264 -0.3617 -0.0705 -0.0768
 5058W        W21132  11.551   6.122   1.014  0.0109 -0.1114  0.0886
 5059W        W21133   8.967  14.215  14.272 -0.1822 -0.0247  0.0208
 5060W        W21134  10.705  15.432   1.430  0.1316 -0.1961 -0.1586
 5061W        W21135   4.313   0.650   0.606  0.0423 -0.0268 -0.0569
 5062W        W21136  10.007  16.786   1.927 -0.0013  0.2616 -0.1099
 5063W        W21137   1.168  14.053   4.164 -0.0525 -0.1245 -0.0037
 5064W        W21138   8.285  13.211   0.600 -0.1789 -0.0731  0.0118
 5065W        W21139   1.462   1.873  11.849  0.1365  0.1910 -0.0317
 5066W        W21140   6.169   3.382  11.867  0.2498  0.2613 -0.0767
 5067W        W21141   3.479  15.350   0.273  0.0197  0.0173 -0.0927
 5068W        W21142  16.860   2.331  13.770 -0.1069 -0.2903 -0.0696
 5069W        W21143   3.084   5.569   3.034 -0.1836  0.3055  0.2871
 5070W        W21144  16.637  17.350   2.871 -0.3786 -0.0978 -0.0502
 5071W        W21145   5.887   2.787   0.655  0.1706 -0.0334  0.2068
 5072W        W21146   4.479   6.612  14.531  0.0491 -0.3098  0.0801
 5073W        W21147   5.355  17.718  11.378  0.2287  0.1805 -0.2875
 5074W        W21148  17.590  13.982   3.925  0.1528  0.1184 -0.0008
 5075W        W21149   3.015  15.849  15.362  0.1679 -0.3070 -0.1354
 5076W        W21150  15.008   0.058   4.591  0.3035  0.1652  0.1099
 5077W        W21151  16.379   3.040   0.715 -0.1627  0.1094 -0.3795
 5078W        W21152  10.480   9.243  12.398  0.0650 -0.0460 -0.0777
 5079W        W21153  10.986   5.798  15.133 -0.2724  0.5319  0.0881
 5080W        W21154  13.893  15.051  12.945  0.3765 -0.1849  0.0447
 5081W        W21155  15.955   6.214  11.893 -0.0603  0.0356  0.1767
 5082W        W21156   0.420  11.560  14.221 -0.1293 -0.0226 -0.3273
 5083W        W21157  10.302   6.643  16.094  0.1269 -0.0153 -0.2132
 5084W        W21158   2.051   0.227   3.527 -0.1712 -0.0862  0.0836
 5085W        W21159   2.385   4.886   6.238  0.1325  0.0834  0.1629
 5086W        W21160  15.090  16.969   2.244  0.2239  0.0084 -0.4043
 5087W        W21161   9.023   7.649  15.697 -0.0165 -0.0351  0.0531
 5088W        W21162   8.669  15.768   4.833  0.2069  0.2188 -0.2121
 5089W        W21163  15.043   6.708  12.881 -0.1117 -0.0340  0.0797
 5090W        W21164  11.424   3.139   1.764  0.0875  0.2306  0.2421
 5091W        W21165   9.239   9.002   0.864  0.1370  0.1973  0.1074
 5092W        W21166  13.776  16.249   5.129 -0.2598 -0.0318  0.0704
 5093W        W21167   2.787  10.993   2.464 -0.0061  0.3389 -0.0199
 5094W        W21168  12.943  13.499  12.821 -0.1549 -0.0477  0.0417
 5095W        W21169   1.347  17.088   1.773 -0.0694 -0.1891  0.3465
 5096W        W21170   0.112  17.082  15.107 -0.1167 -0.2081  0.0919
 5097W        W21171   1.764   3.346  14.134 -0.1474  0.3522 -0.0105
 5098W        W21172   0.639  14.163   0.298  0.3451 -0.0671  0.1960
 5099W        W21173  15.996  11.099  13.746  0.4634  0.1513 -0.1315
 5100W        W21174   7.573   6.062   4.731 -0.4318  0.0928 -0.1058
 5101W        W21175   0.977   0.530  15.887  0.1115 -0.4300 -0.0198
 5102W        W21176  16.602  11.115  15.858 -0.1532  0.2188 -0.3289
 5103W        W21177  14.489   6.861  13.190  0.0449  0.1632  0.0103
 5104W        W21178  14.474  16.585  15.308  0.0875  0.1439 -0.1113
 5105W        W21179   7.305   0.314  12.559  0.1794  0.1411  0.0436
 5106W        W21180   6.173   4.883   2.982  0.0447  0.0120  0.0247
 5107W        W21181  15.895   5.285   4.305  0.2421  0.1170 -0.0646
 5108W        W21182   2.100  16.703   1.037 -0.3085 -0.2607 -0.1563
 5109W        W21183   3.713   3.289  11.049  0.0097 -0.0597  0.1284
 5110W        W21184   2.410  14.564   5.113 -0.0817  0.3628  0.0496
 5111W        W21185  14.593   2.658  15.404  0.1247  0.1163 -0.0868
 5112W        W21186  16.444   9.491  11.537 -0.1185 -0.3150  0.1035
 5113W        W21187  12.203   1.680  16.469 -0.2927  0.0370  0.0770
 5114W        W21188  14.426   5.585  12.520  0.4033  0.0940  0.1200
 5115W        W21189   9.052  16.165   1.293 -0.0717  0.1968 -0.2037
 5116W        W21190  14.256  17.153  11.205 -0.1242 -0.1046  0.1027
 5117W        W21191  12.329  14.965   5.765 -0.2444  0.1028 -0.0640
 5118W        W21192   3.212   4.522  11.270 -0.2745 -0.0880 -0.1294
 5119W        W21193   0.012   7.356   1.939 -0.1714  0.0177  0.2292
 5120W        W21194   1.327  17.045   6.129  0.0109  0.3525 -0.0804
 5121W        W21195   3.158   7.994   5.488  0.2906  0.0060  0.1245
 5122W        W21196  17.551  11.813   5.899  0.2716 -0.0303  0.2641
 5123W        W21197   1.602  12.807  14.555 -0.3131  0.2099  0.0774
 5124W        W21198  15.711   7.320  14.332 -0.0252 -0.2770 -0.0401
 5125W        W21199  17.175  10.866  15.258  0.0416 -0.2397  0.1398
 5126W        W21200  13.798  13.710  15.451  0.3500  0.0745  0.0334
 5127W        W21201   9.726   1.066  13.596 -0.2108  0.3800 -0.0189
 5128W        W21202   4.381   9.529   2.188  0.0058 -0.3022 -0.1105
 5129W        W21203  16.516  14.764   4.554  0.1975  0.1563  0.0603
 5130W        W21204  11.961   4.092   3.684 -0.0775 -0.1114 -0.0785
 5131W        W21205  14.572  15.540  13.429 -0.2311  0.0563 -0.1440
 5132W        W21206   5.123  16.180   3.633  0.0869 -0.0074 -0.0540
 5133W        W21207  12.935   4.756  14.525 -0.2009 -0.0695  0.1553
 5134W        W21208  11.497   7.957  13.029  0.0679  0.0991  0.0022
 5135W        W21209   8.725  11.719   1.640  0.1168  0.0885 -0.0314
 5136W        W21210  15.627   6.120  12.764  0.2290 -0.1726  0.2366
 5137W        W21211   4.603  13.843   0.472 -0.0111  0.1038  0.2052
 5138W        W21212  16.363   2.831   5.241  0.1430  0.2496 -0.2092
 5139W        W21213  13.535   2.021   0.530  0.0936 -0.0555  0.0325
 5140W        W21214   7.114  10.590  15.196 -0.0855  0.1268  0.1626
 5141W        W21215   1.446  15.141   1.486 -0.2870  0.2415  0.2783
 5142W        W21216   2.507   1.577   1.299  0.1453  0.2642  0.0881
 5143W        W21217  12.567  10.311   2.983 -0.2339  0.1767 -0.0787
 5144W        W21218  17.752   1.265  15.276  0.0678  0.0142 -0.2870
 5145W        W21219   7.413   5.837   0.916 -0.1960  0.5310 -0.0484
 5146W        W21220   8.770  13.542  12.708  0.0806  0.0618 -0.0855
 5147W        W21221  13.540   0.566   0.324  0.0455 -0.1426  0.0669
 5148W        W21222  17.802   5.396   1.632 -0.2325  0.0538 -0.0741
 5149W        W21223   0.316  16.337  16.811  0.2938 -0.2073 -0.1504
 5150W        W21224   1.779  15.892  12.914  0.3877  0.0646  0.0795
 5151W        W21225  16.699  16.863   0.370  0.3369 -0.4036  0.1555
 5152W        W21226   3.191   9.107  13.820 -0.2629 -0.0416  0.2681
 5153W        W21227   6.672  14.044  14.136 -0.2012  0.0191  0.0384
 5154W        W21228   4.100  16.359  14.194  0.1574 -0.1054 -0.2350
 5155W        W21229   1.710   0.034  16.722  0.3209  0.0565 -0.1181
 5156W        W21230  12.374   3.045   4.985 -0.0150 -0.1554  0.0230
 5157W        W21231  11.150   1.134   0.296  0.0289 -0.1193 -0.1555
 5158W        W21232   0.307  16.736  13.440  0.0720 -0.0294  0.2247
 5159W        W21233  12.857  10.849  11.677  0.2237  0.0445 -0.2813
 5160W        W21234  15.232   0.581  12.479 -0.3387  0.0088  0.3809
 5161W        W21235  11.020   0.948   1.093  0.0409 -0.0345 -0.0020
 5162W        W21236  11.920  12.433  13.109 -0.1325 -0.0826  0.1155
 5163W        W21237  10.116   0.079  11.502 -0.2017  0.0924 -0.0691
 5164W        W21238   0.995  16.783  14.875  0.0745  0.0984  0.0006
 5165W        W21239   8.665   2.004  13.766  0.2402  0.0773  0.2667
 5166W        W21240   0.900   5.196   5.164 -0.0044 -0.0313  0.0283
 5167W        W21241  15.440   6.357  14.527  0.0727  0.2333 -0.0436
 5168W        W21242   5.324   3.090  13.466 -0.0304 -0.2144 -0.0698
 5169W        W21243   2.636  10.632  11.455  0.1119 -0.0335 -0.1836
 5170W        W21244   3.892   8.632  12.796  0.0582 -0.1119  0.0163
 5171W        W21245   7.786   3.557  12.796  0.4448 -0.2232 -0.4439
 5172W        W21246   3.213   4.583   2.522  0.0900 -0.0304 -0.2233
 5173W        W21247   5.987   3.276  13.179 -0.0877 -0.0878 -0.1005
 5174W        W21248   4.673  11.843  14.965  0.0332  0.0461  0.2501
 5175W        W21249  10.752   7.692  15.536  0.1251 -0.0050  0.0097
 5176W        W21250  17.628   1.178   5.251 -0.5545  0.3311  0.1160
 5177W        W21251  17.696   2.186   5.593 -0.0339 -0.1836  0.1345
 5178W        W21252   3.376  12.349   4.346  0.0260  0.0724  0.0069
 5179W        W21253  14.321  10.519   1.700 -0.2411 -0.2040  0.1168
 5180W        W21254   7.718   6.894   3.217 -0.1463 -0.5970  0.4070
 5181W        W21255  13.554   4.359  12.358  0.1130 -0.0293 -0.3259
 5182W        W21256   8.878   1.099  12.079 -0.0363  0.0392  0.3855
 5183W        W21257  14.277  16.610  15.793 -0.1403  0.0192 -0.1386
 5184W        W21258   0.959  11.938  15.710  0.0361  0.0464  0.0571
 5185W        W21259  10.152  14.955   3.611  0.0886  0.1192  0.0456
 5186W        W21260  14.629   6.060  12.546  0.1767 -0.1292 -0.0965
 5187W        W21261   3.412  11.149   5.291 -0.1652  0.0612  0.3191
 5188W        W21262   5.309   2.567   0.782  0.1579  0.1328  0.2568
 5189W        W21263  12.141   4.219   5.507 -0.1984 -0.0871  0.1531
 5190W        W21264   9.869  14.134   5.453 -0.0278  0.1201 -0.4246
 5191W        W21265  14.516   7.003   5.095 -0.1065 -0.0022  0.2147
 5192W        W21266  12.550   9.159  16.720 -0.1918  0.1598 -0.0809
 5193W        W21267   1.209   0.960  15.147 -0.4249 -0.0228 -0.2672
 5194W        W21268   4.631  11.141   0.518 -0.3208  0.1320  0.1635
 5195W        W21269   6.573   5.101   2.734 -0.1638 -0.1792 -0.2390
 5196W        W21270   8.237   2.816  14.823 -0.1395 -0.3319 -0.0476
 5197W        W21271   8.598   3.642   2.259 -0.0608  0.2064  0.4275
 5198W        W21272   0.879   6.586   2.686 -0.0048  0.1922 -0.1562
 5199W        W21273  15.786  13.146   4.950  0.2442 -0.0905  0.1512
 5200W        W21274  16.244   7.785   4.659  0.4111  0.1507  0.0080
 5201W        W21275   9.208  13.417  13.933 -0.2255  0.0824 -0.5707
 5202W        W21276   7.948  10.639   0.605  0.4668  0.0561 -0.1930
 5203W        W21277   6.626   1.446   5.702 -0.2309 -0.0341  0.0444
 5204W        W21278   3.541  12.661  16.188 -0.0734  0.3203  0.1425
 5205W        W21279   9.064   9.085  15.275  0.2523  0.3468 -0.3591
 5206W        W21280   8.794  17.410   3.964 -0.1427 -0.1397 -0.1028
 5207W        W21281   3.911  15.505  12.135 -0.4658 -0.1166  0.1548
 5208W        W21282  15.755  12.229   5.305 -0.0669 -0.1971  0.1760
 5209W        W21283   6.826   2.959   5.288  0.1263  0.2847  0.2171
 5210W        W21284   3.406   7.440  16.458 -0.1134  0.1030  0.2471
 5211W        W21285   6.394  12.037  16.433 -0.0475 -0.0577 -0.1428
 5212W        W21286  10.693   4.675   0.973 -0.0152  0.2522 -0.4594
 5213W        W21287   0.572  15.124   1.991  0.2778  0.1209  0.0095
 5214W        W21288   4.865   8.913  13.082 -0.2319 -0.3377 -0.0680
 5215W        W21289   7.653   5.808   1.359 -0.0487  0.0126 -0.0343
 5216W        W21290   3.251   4.800   1.982  0.1161  0.0048 -0.0298
 5217W        W21291   6.297  17.109   2.531 -0.1394 -0.1184 -0.2378
 5218W        W21292  16.111   5.598   0.977 -0.0082  0.2800 -0.0227
 5219W        W21293  13.856   4.360   5.024  0.1632 -0.3114  0.2565
 5220W        W21294  17.678  15.946  14.734  0.1122  0.0067 -0.2492
 5221W        W21295  13.575  15.944  14.519 -0.0024  0.1311 -0.1060
 5222W        W21296   8.323  11.546  15.486 -0.3103  0.0239 -0.1724
 5223W        W21297   9.823   6.002  13.543  0.0864 -0.3004 -0.0137
 5224W        W21298   7.286   5.967  16.868  0.1453 -0.3431 -0.0279
 5225W        W21299   3.620  14.632  13.167  0.1280  0.0627  0.0177
 5226W        W21300   3.560  16.142   4.487  0.2608  0.0307  0.1084
 5227W        W21301  16.316  12.612   3.713 -0.0417 -0.1123  0.1324
 5228W        W21302  16.499  15.943  16.221  0.0186 -0.1531  0.2575
 5229W        W21303   6.718  14.829   3.907 -0.0468 -0.2322 -0.0794
 5230W        W21304  14.633   6.094  16.432 -0.3272 -0.1057  0.0701
 5231W        W21305  15.412  10.252   5.011 -0.0599  0.0348 -0.0291
 5232W        W21306   3.812   1.481   1.571 -0.0545 -0.0703 -0.0885
 5233W        W21307   9.416  11.290   2.836 -0.0067  0.0281 -0.2528
 5234W        W21308  12.386  15.766  15.764 -0.1902 -0.2606 -0.0580
 5235W        W21309   3.889  11.437   4.293 -0.0609  0.0879  0.1889
 5236W        W21310  10.025   8.923  14.465  0.0736  0.1607 -0.0229
 5237W        W21311  12.399   7.219   3.845 -0.1943 -0.1355 -0.0235
 5238W        W21312   0.874   8.334  12.560  0.1244 -0.0882 -0.1329
 5239W        W21313  11.461   7.168  12.592  0.2382 -0.0720 -0.2392
 5240W        W21314   1.521  15.218  11.364 -0.1483  0.1549  0.0832
 5241W        W21315  12.832  14.115  13.579 -0.0560  0.1487  0.2186
 5242W        W21316   7.086   2.240  14.049 -0.0117  0.0238 -0.1818
 5243W        W21317  10.742   1.185  15.423  0.0988 -0.1646  0.0272
 5244W        W21318  11.427   6.687   1.814 -0.2747 -0.1891  0.0889
 5245W        W21319   5.929  11.606  12.239 -0.1250 -0.2724 -0.2998
 5246W        W21320   8.687   6.606   4.445 -0.4108 -0.1482 -0.3964
 5247W        W21321  13.731   7.519  16.108  0.1195  0.0346 -0.0224
 5248W        W21322  17.589  13.434   4.926 -0.0215 -0.3162  0.1029
 5249W        W21323   0.177  15.827   3.006  0.1739 -0.3531 -0.1636
 5250W        W21324  13.013  14.896  12.920  0.0677 -0.1266  0.0015
 5251W        W21325   8.618  16.821  12.332 -0.1120 -0.1082 -0.0787
 5252W        W21326   0.210   9.606   0.374 -0.1937 -0.2777  0.3420
 5253W        W21327   9.100  14.709  15.806  0.1241  0.0406 -0.3280
 5254W        W21328   1.213  17.780   1.048 -0.2670 -0.0045  0.4076
 5255W        W21329  16.241   1.934   0.588 -0.1455  0.1721 -0.0412
 5256W        W21330   3.501  11.974   2.978 -0.2851  0.0382  0.2515
 5257W        W21331  17.132   9.666   4.397  0.1633 -0.0458 -0.1390
 5258W        W21332   3.376   0.457   0.220  0.0069  0.0805  0.0421
 5259W        W21333   5.082  15.553  12.975 -0.1023  0.1054 -0.2121
 5260W        W21334   8.496  14.854  14.974  0.1002 -0.1426 -0.1753
 5261W        W21335   4.910  17.434   5.818  0.2605 -0.3299 -0.0326
 5262W        W21336   0.946  13.589  16.184  0.1088  0.1204  0.0383
 5263W        W21337  10.528   3.776  15.393 -0.4908 -0.1695  0.2164
 5264W        W21338  12.980   4.159   1.731  0.1662 -0.0348  0.0321
 5265W        W21339   4.065   5.936  16.239  0.2113  0.1544 -0.0478
 5266W        W21340   6.630  15.576   5.031 -0.0302 -0.1215 -0.1468
 5267W        W21341  10.212  15.066  11.960 -0.3157  0.0947  0.0244
 5268W        W21342   5.650   5.687   1.556 -0.1112  0.2343 -0.0599
 5269W        W21343  10.102  11.056  15.577  0.0006 -0.0052  0.0175
 5270W        W21344   6.152   2.703  16.302  0.1354 -0.1575 -0.0546
 5271W        W21345   1.945  16.548   5.853 -0.1141  0.3462 -0.1402
 5272W        W21346   5.673  10.781  16.777 -0.4672  0.1812  0.3248
 5273W        W21347  15.576   9.900  12.031 -0.0657 -0.1426  0.1507
 5274W        W21348  12.956  17.194   1.637 -0.4013  0.1787 -0.0295
 5275W        W21349   7.967   4.460   4.710 -0.2595 -0.1546 -0.1328
 5276W        W21350  10.808  17.035  11.623 -0.0963 -0.0494 -0.3188
 5277W        W21351   4.706   1.623  14.236  0.1036 -0.0856 -0.0137
 5278W        W21352   7.483   5.692   4.294 -0.2402 -0.0755  0.0282
 5279W        W21353   1.029   4.669   1.108 -0.4877  0.1964  0.0416
 5280W        W21354  13.295   9.627  11.741  0.0916 -0.2285 -0.2616
 5281W        W21355  13.266  17.462   5.627 -0.0681 -0.2479  0.1411
 5282W        W21356  11.215   7.270   3.220 -0.1176 -0.1032  0.0447
 5283W        W21357   8.265   9.407  16.404  0.1726  0.1230 -0.0200
 5284W        W21358  11.212   3.790   2.989 -0.3542  0.0008 -0.0905
 5285W        W21359   1.778  10.731  16.256  0.3136 -0.1558  0.1592
 5286W        W21360  13.250   8.983  14.419 -0.0738  0.1661 -0.1301
 5287W        W21361   7.852   9.553  16.134  0.1866 -0.0390  0.2931
 5288W        W21362  13.965   3.751  15.814 -0.1045 -0.3539 -0.0208
 5289W        W21363  17.258  13.538   2.160 -0.0294  0.4067 -0.3568
 5290W        W21364  12.181   5.740  16.543  0.0527 -0.2911 -0.0163
 5291W        W21365   4.483   9.169  16.919  0.1706 -0.1392  0.0985
 5292W        W21366  12.816  14.106   0.675  0.0113 -0.0003 -0.0027
 5293W        W21367   1.350   6.381   2.816  0.0853 -0.0682  0.0901
 5294W        W21368   4.130  14.443  13.483  0.0538 -0.1521 -0.1075
 5295W        W21369  10.653   2.412   3.884  0.1247 -0.3736  0.0859
 5296W        W21370   8.875  10.527   3.104  0.1003  0.0525 -0.0054
 5297W        W21371   6.494   8.789   1.151 -0.0148 -0.2649  0.0999
 5298W        W21372   7.598  12.559   5.023 -0.0457 -0.0887  0.2165
 5299W        W21373   5.149  10.588  16.921  0.1092 -0.0394 -0.1343
 5300W        W21374   2.575   9.133  15.175  0.3442  0.0869  0.0993
 5301W        W21375   0.291   1.121   6.644  0.0384  0.1106  0.0096
 5302W        W21376   0.087   1.540   2.009  0.2457  0.0037  0.2063
 5303W        W21377   8.137   5.885   2.261 -0.2415  0.0247  0.0830
 5304W        W21378   0.894  13.936  15.405 -0.1409 -0.0068 -0.3602
 5305W        W21379   1.755  12.740  15.303  0.0462  0.0461  0.2307
 5306W        W21380   7.572   7.145   1.858  0.2163 -0.0329 -0.0078
 5307W        W21381   0.695  15.082   2.507  0.1101 -0.1708  0.1431
 5308W        W21382  13.269   6.256   3.310  0.1809  0.2622  0.3522
 5309W        W21383  15.050   3.624   4.525 -0.0740  0.0998  0.1722
 5310W        W21384   4.749  11.913  15.661  0.0686 -0.0789 -0.1799
 5311W        W21385  11.693  11.576  12.080  0.0573  0.0987  0.3993
 5312W        W21386  13.302  13.531   5.925  0.2198 -0.2051 -0.2769
 5313W        W21387   5.020  14.050  15.332  0.1639  0.1213  0.3078
 5314W        W21388  11.602   0.949   0.242 -0.1544  0.4265  0.1046
 5315W        W21389   8.452   9.176   0.185 -0.0974  0.0639 -0.0610
 5316W        W21390   6.947   6.391  14.915  0.1408 -0.0909  0.0851
 5317W        W21391  12.360   7.382   6.253 -0.1507  0.0086 -0.1328
 5318W        W21392  12.298   7.349  12.931 -0.1555  0.0103 -0.0542
 5319W        W21393  17.658  12.937  16.501 -0.2322 -0.3210  0.1435
 5320W        W21394   0.267   3.512  16.123  0.1578  0.0102  0.0511
 5321W        W21395  10.798  11.564  14.212  0.3094 -0.1078 -0.0769
 5322W        W21396  11.343  13.747   1.987 -0.0542  0.1181 -0.4015
 5323W        W21397  15.971   1.754   4.594  0.0044  0.2832 -0.2747
 5324W        W21398   5.611  14.174   0.570  0.0027  0.0873 -0.0758
 5325W        W21399   9.453   7.885  10.530 -0.0871 -0.1661 -0.3107
 5326W        W21400   0.602   3.711  12.248 -0.1042  0.2401  0.1849
 5327W        W21401   6.579  16.451   5.044  0.1048  0.1180 -0.1739
 5328W        W21402   2.665  13.973   2.311 -0.2540  0.4235 -0.3213
 5329W        W21403   3.507   7.443   0.478  0.0672  0.1686 -0.0171
 5330W        W21404   3.720   3.858  16.938  0.1307  0.0838 -0.2489
 5331W        W21405  11.505  17.082   4.552  0.0712  0.0217  0.0764
 5332W        W21406   5.256   0.302   3.282  0.1095 -0.3793  0.1083
 5333W        W21407   9.229   9.525   1.092  0.0838 -0.0863 -0.2035
 5334W        W21408  14.558  10.978   5.333 -0.0260 -0.0909  0.1255
 5335W        W21409   9.725   2.292   2.323 -0.5947 -0.1766 -0.0434
 5336W        W21410  11.588  15.849   0.985 -0.1706  0.1829  0.2070
 5337W        W21411   9.481   4.707   3.459 -0.1263 -0.0717 -0.0546
 5338W        W21412   9.696  14.585  12.633  0.1876  0.1644  0.2205
 5339W        W21413  12.925  11.356   1.657 -0.1656  0.1549  0.0960
 5340W        W21414  16.458  10.274   4.189 -0.0340  0.2180  0.0108
 5341W        W21415  15.910  13.450  16.720 -0.0345 -0.0202  0.0205
 5342W        W21416  15.500   2.036   1.026 -0.0342 -0.0034  0.0497
 5343W        W21417   8.843  16.691  15.872 -0.0768  0.2615  0.0115
 5344W        W21418  10.198   7.171  16.840 -0.2012  0.0318 -0.1823
 5345W        W21419   7.832   9.069   2.155  0.1000 -0.2129  0.0865
 5346W        W21420  16.901   4.336   0.980  0.2837 -0.0581 -0.0362
 5347W        W21421   4.539  14.771  12.042 -0.0399 -0.0327 -0.0287
 5348W        W21422   1.652  10.555   3.939 -0.0679 -0.0641  0.1634
 5349W        W21423   7.681  12.357   0.054 -0.4095 -0.2219  0.0578
 5350W        W21424   9.050  17.783  14.334 -0.2272  0.2524 -0.3450
 5351W        W21425   6.404  17.484  16.217 -0.1610 -0.0436  0.0861
 5352W        W21426   1.638   1.693   5.447 -0.0858 -0.0175  0.1871
 5353W        W21427  12.414  15.240  14.341  0.1463  0.1401 -0.0029
 5354W        W21428  10.144   9.619  13.906 -0.0817  0.0563  0.2249
 5355W        W21429   7.707  11.577  16.662 -0.0163 -0.0712  0.0938
 5356W        W21430   5.115  13.980   2.675 -0.1075  0.0738  0.1281
 5357W        W21431   3.236   9.225  13.354 -0.0300  0.1129 -0.3445
 5358W        W21432  13.922  12.535  15.808 -0.1960  0.1717  0.0942
 5359W        W21433   0.204  15.292  13.975  0.2613 -0.1545  0.1705
 5360W        W21434  16.968  11.062   5.101 -0.0502 -0.1488  0.0992
 5361W        W21435  10.258  16.459   4.622 -0.2931 -0.2189  0.2155
 5362W        W21436  15.525   5.400   6.691 -0.1596  0.0199  0.2270
 5363W        W21437   5.111   8.360  13.914 -0.2037 -0.1170  0.3528
 5364W        W21438  10.324  11.619  12.692  0.0451  0.1880  0.0481
 5365W        W21439  11.070   4.328  14.081  0.3414 -0.1090  0.0123
 5366W        W21440  12.969   1.299   2.595 -0.1069  0.1389 -0.1089
 5367W        W21441  15.871  15.450   4.737 -0.0554 -0.2247  0.0859
 5368W        W21442  16.214   4.732   5.090  0.3471  0.2985  0.0779
 5369W        W21443  15.706  17.041   2.916  0.3101 -0.0437 -0.1006
 5370W        W21444  11.324   0.961  15.850 -0.1399 -0.4150 -0.3614
 5371W        W21445   3.439   3.216   4.249  0.2810 -0.2259  0.0516
 5372W        W21446   7.327  16.193  16.653 -0.2491  0.1046  0.1216
 5373W        W21447   9.320  10.055  13.937 -0.0618  0.1964 -0.3255
 5374W        W21448  11.755  13.853   1.578  0.0360  0.1713 -0.0214
 5375W        W21449  16.325   0.675  12.454 -0.1015 -0.0397 -0.4111
 5376W        W21450  13.193  13.513   3.671  0.1579  0.0831 -0.2232
 5377W        W21451  12.278   3.225   5.451  0.0258  0.1739  0.1101
 5378W        W21452   4.765   1.035   1.350 -0.1986  0.1089 -0.2193
 5379W        W21453   5.377  16.064   4.507  0.1679 -0.0181 -0.1696
 5380W        W21454   3.459   3.066   5.719 -0.0572 -0.1798 -0.0277
 5381W        W21455  12.212  14.531  14.811  0.0028  0.0283  0.0274
 5382W        W21456   0.981  12.856  11.570 -0.1112 -0.0751  0.0936
 5383W        W21457  17.437   1.967   5.155  0.2019  0.2552  0.1283
 5384W        W21458  13.976   4.702   0.662  0.2267 -0.1556 -0.2726
 5385W        W21459  10.747  17.041   1.164 -0.0041  0.0797 -0.2390
 5386W        W21460   7.967   5.501   0.891 -0.0743  0.0610  0.0853
 5387W        W21461   1.249  10.211   4.994  0.0606  0.0556 -0.1350
 5388W        W21462   6.704  15.723   4.381  0.0193 -0.0317  0.0666
 5389W        W21463   3.449   2.904  13.161  0.2026  0.1035  0.0225
 5390W        W21464   0.081   5.267  16.161 -0.2623  0.0064 -0.0961
 5391W        W21465   8.998   9.519  16.835  0.0056 -0.1178 -0.2487
 5392W        W21466   8.388  11.712   1.211 -0.1312 -0.1729  0.0090
 5393W        W21467   6.624  15.904   6.266 -0.0292  0.1774  0.0707
 5394W        W21468   3.103   9.594   1.735  0.2160 -0.1209  0.2030
 5395W        W21469   8.927   2.186   1.950  0.2549  0.0152 -0.1155
 5396W        W21470  11.191   2.152   3.148 -0.0352 -0.0051 -0.0597
 5397W        W21471  12.631   3.944   5.457 -0.3387  0.2633  0.2479
 5398W        W21472  17.519  14.780   0.208 -0.1447  0.1624 -0.0458
 5399W        W21473  11.628  11.422   3.554 -0.1082 -0.1183 -0.2286
 5400W        W21474  16.860  11.539   0.361  0.0887 -0.1792 -0.0583
 5401W        W21475  16.901   9.869  15.913 -0.0959 -0.1168  0.1718
 5402W        W21476  10.686   3.881   4.886  0.0645 -0.1630  0.2077
 5403W        W21477  10.598   9.724  15.310  0.0413 -0.1802  0.0137
 5404W        W21478   2.706   7.067  12.769 -0.1387 -0.1730  0.2924
 5405W        W21479   9.740   6.107  11.969  0.0598 -0.1016  0.0815
 5406W        W21480  11.283   6.753   5.487 -0.1507 -0.1427 -0.0906
 5407W        W21481  14.211   8.700  16.847 -0.0728 -0.1028  0.3195
 5408W        W21482  10.269  17.518   6.098  0.0615  0.0348 -0.1477
 5409W        W21483  17.655   1.882   0.360  0.0339  0.1357  0.0125
 5410W        W21484  10.445   0.638  16.213 -0.0497  0.3745  0.2845
 5411W        W21485  10.793   5.045  12.824 -0.1819  0.0533  0.0971
 5412W        W21486   6.223   1.092   3.951  0.0343 -0.3249  0.0099
 5413W        W21487  15.165   2.654   2.167 -0.1155  0.3075  0.3671
 5414W        W21488   6.155  16.374   3.224  0.0712  0.1045  0.1019
 5415W        W21489  11.325   0.631   0.496  0.0722 -0.2218  0.2984
 5416W        W21490   8.330   2.534  13.937  0.0762 -0.1133 -0.4035
 5417W        W21491  17.738   6.771  12.563  0.4635 -0.2162  0.2289
 5418W        W21492   7.859   2.855  13.059 -0.3733 -0.0684  0.2785
 5419W        W21493  14.690   2.994   5.134 -0.0058 -0.4577 -0.1840
 5420W        W21494  15.331   4.899   6.594 -0.0989  0.1145 -0.2865
 5421W        W21495   5.938  10.502  14.656 -0.1355 -0.1389  0.2788
 5422W        W21496  13.740   3.836   1.205  0.0610 -0.0698 -0.1499
 5423W        W21497  17.262  13.134   1.793  0.2261  0.0493  0.2825
 5424W        W21498   2.016   4.358  12.762  0.0456  0.2514 -0.0802
 5425W        W21499  12.741   2.282   1.141  0.0020 -0.0145  0.1042
 5426W        W21500   0.084  17.446   4.798 -0.0786 -0.3274  0.3205
 5427W        W21501  12.270   4.144  12.479 -0.0037 -0.0769 -0.0051
 5428W        W21502  15.658   6.240  16.376  0.1183 -0.1260  0.0878
 5429W        W21503   2.550  10.491  16.693  0.0381 -0.3097  0.1284
 5430W        W21504  14.671   9.395  15.089 -0.0476 -0.0498  0.2750
 5431W        W21505  16.945  17.001   5.833  0.1725  0.0501  0.1959
 5432W        W21506   1.843   7.970   5.759 -0.3122 -0.2247  0.1841
 5433W        W21507   4.519   9.837  15.340  0.1204  0.0238  0.1648
 5434W        W21508   8.518   1.293   3.728  0.1384  0.4021 -0.2088
 5435W        W21509   7.344   8.600   4.232 -0.1011 -0.2452  0.0870
 5436W        W21510  11.559   5.323  11.696  0.1201  0.1849  0.1086
 5437W        W21511   0.255   6.946  15.147  0.2233  0.1475 -0.2618
 5438W        W21512  16.163  16.830  14.882  0.1202  0.1225 -0.1259
 5439W        W21513  16.541   7.740   5.619  0.1557  0.0853 -0.3462
 5440W        W21514  14.045  12.970  12.846  0.1666 -0.1109  0.0404
 5441W        W21515   8.463   0.568   2.945  0.2211  0.0812 -0.0469
 5442W        W21516   6.845   6.248   1.416  0.2269 -0.3201 -0.2331
 5443W        W21517  17.814  12.785  15.398 -0.1119  0.0992  0.2366
 5444W        W21518   5.486  17.127   0.153 -0.0220  0.0512 -0.0619
 5445W        W21519  13.348   5.470  14.143 -0.1911  0.0837  0.1854
 5446W        W21520  11.923  15.560  16.264  0.2964 -0.0495  0.1305
 5447W        W21521  12.549   5.592   3.433 -0.0795 -0.4516 -0.2483
 5448W        W21522  15.862  17.060   4.711  0.0318 -0.0458 -0.1072
 5449W        W21523   8.393   9.586  13.444  0.1126 -0.1806  0.0086
 5450W        W21524  11.914   3.636   3.933 -0.1424  0.1176  0.1495
 5451W        W21525  16.466  14.569  16.328  0.2053 -0.0048  0.1344
 5452W        W21526   2.497  16.042   2.977  0.2054  0.1608 -0.0967
 5453W        W21527   4.387   2.815  13.538 -0.1190 -0.1321  0.1348
 5454W        W21528   5.654  16.208  15.321 -0.0869 -0.0531 -0.1128
 5455W        W21529   2.258  17.167   2.410  0.1050 -0.1265 -0.3039
 5456W        W21530   8.823   4.068   4.829  0.0042  0.2666 -0.1306
 5457W        W21531  12.666  10.469  14.794  0.1200 -0.0588 -0.0437
 5458W        W21532  17.569  11.580  15.641 -0.2291  0.0905  0.1717
 5459W        W21533   1.725   2.379  14.514  0.2567  0.0471  0.0829
 5460W        W21534   4.997   0.958  15.792  0.2294  0.2776 -0.0512
 5461W        W21535   9.725   7.615  15.358  0.1151 -0.3157 -0.1943
 5462W        W21536   7.757  11.654  13.086  0.1578  0.1845  0.1343
 5463W        W21537  17.250   8.394   3.244  0.1717 -0.0722 -0.1090
 5464W        W21538   7.063   9.438  13.018 -0.1694  0.0986 -0.1475
 5465W        W21539   0.962   7.698   2.241  0.3120 -0.0151 -0.2077
 5466W        W21540  14.470   7.343  12.672  0.2149  0.0517  0.2521
 5467W        W21541  10.652   4.157  12.363 -0.0369  0.1532 -0.1324
 5468W        W21542   1.581  12.301  11.486  0.0325  0.0763  0.0102
 5469W        W21543   8.843  15.569  14.715  0.0017 -0.3620 -0.0554
 5470W        W21544   3.694   6.881  14.975 -0.4631 -0.1994 -0.1992
 5471W        W21545  10.975  16.022   3.172 -0.0274  0.0576 -0.1388
 5472W        W21546   0.333  16.068  13.479  0.1577  0.1960  0.4017
 5473W        W21547  15.177   0.114   6.143  0.2889 -0.2270 -0.0558
 5474W        W21548   7.327  14.857  16.631 -0.0320 -0.1538 -0.0696
 5475W        W21549  14.746   8.541   4.531 -0.1326 -0.0136 -0.0151
 5476W        W21550   3.663   1.220  14.493  0.3665 -0.1037  0.2100
 5477W        W21551  14.985   4.261   2.955  0.0942 -0.2095  0.1278
 5478W        W21552  14.946  14.546   5.763 -0.1547 -0.2195  0.0627
 5479W        W21553   3.700  15.071  13.522  0.1098  0.2844  0.1858
 5480W        W21554  13.036   6.556  11.668 -0.0954 -0.1470  0.0260
 5481W        W21555  14.459  10.521   5.535  0.1777  0.0666  0.1605
 5482W        W21556   6.908  17.193  11.779  0.0923 -0.0072  0.1003
 5483W        W21557   8.165   5.372   3.786 -0.0906 -0.3467  0.1109
 5484W        W21558   7.608   0.238   4.300  0.0845 -0.1900 -0.0177
 5485W        W21559  17.291  12.883  13.230 -0.1059  0.0908 -0.1685
 5486W        W21560  15.475  16.287  15.843 -0.3473  0.2729  0.1803
 5487W        W21561  15.126   6.069   4.582 -0.0983  0.0209  0.0768
 5488W        W21562   3.203  15.530  14.708 -0.3684 -0.2438  0.0964
 5489W        W21563  12.330   9.001   3.342 -0.3230  0.2282  0.0239
 5490W        W21564  10.660  12.926  15.643  0.0773 -0.1862 -0.2263
 5491W        W21565  14.804   8.838  12.354  0.1268  0.0197  0.1923
 5492W        W21566  16.917  14.011   4.591 -0.0192 -0.0460 -0.2111
 5493W        W21567   7.197   7.122  12.113  0.0771  0.1614 -0.1637
 5494W        W21568   2.432  11.593  14.699 -0.1178 -0.0832 -0.1503
 5495W        W21569   7.847  15.208   0.711  0.1023 -0.1268  0.1760
 5496W        W21570   0.725  11.455  12.924 -0.1275 -0.0836  0.1170
 5497W        W21571   1.628   1.010  14.858  0.1609  0.0894 -0.0809
 5498W        W21572   9.880   1.638  14.432 -0.0586 -0.0000  0.1934
 5499W        W21573   8.097  16.656  11.923  0.1906  0.1248  0.2830
 5500W        W21574   4.313  11.172  10.803 -0.1861  0.0579  0.1823
 5501W        W21575   5.776  17.518  11.398 -0.1375 -0.3933 -0.0491
 5502W        W21576  10.734  17.524   2.843 -0.1231  0.1959  0.3196
 5503W        W21577   1.260   5.328   0.016  0.0139  0.1117  0.1287
 5504W        W21578  16.024  11.022   2.382  0.2657 -0.1218 -0.0709
 5505W        W21579   7.995  14.680   4.840 -0.0790  0.0560  0.0266
 5506W        W21580  16.821   4.309  12.579  0.0678  0.1328  0.0812
 5507W        W21581   7.156   9.710  11.747 -0.0065 -0.2938 -0.0381
 5508W        W21582   8.271   4.059   3.629  0.1288 -0.0565  0.1185
 5509W        W21583   9.233  10.035   3.749 -0.0688  0.1396  0.4191
 5510W        W21584  15.853   8.085   5.006 -0.0439 -0.0896  0.1666
 5511W        W21585   5.378  17.321  15.873 -0.3580  0.1063 -0.2442
 5512W        W21586  14.017   1.381   2.631 -0.0057  0.4803  0.0932
 5513W        W21587  14.103  15.349   6.462 -0.2570  0.1030  0.0177
 5514W        W21588  10.017   1.698  13.633  0.0110 -0.2714 -0.0031
 5515W        W21589  11.325  17.187  13.404 -0.2719 -0.4151 -0.2465
 5516W        W21590   1.563   8.979   3.620 -0.1408  0.0199 -0.0459
 5517W        W21591   8.917   9.130   1.197  0.2103  0.3090 -0.1774
 5518W        W21592   2.407   6.305  15.813  0.1986 -0.0015  0.1583
 5519W        W21593   9.765   7.189  13.439 -0.2040  0.1864  0.1481
 5520W        W21594  14.017   5.306  16.806 -0.1011  0.0638  0.3335
 5521W        W21595  17.098  14.696  13.153  0.0236 -0.1580 -0.3309
 5522W        W21596   2.745   8.429   1.010  0.2130 -0.2694  0.0369
 5523W        W21597   4.551   4.617   2.545 -0.3447 -0.0068  0.1702
 5524W        W21598   1.228  14.010   5.468  0.0339  0.0416  0.2131
 5525W        W21599  16.785   4.690  16.248  0.0251 -0.1706 -0.3156
 5526W        W21600   7.255   9.418  15.263  0.0658  0.1455  0.0420
 5527W        W21601  11.208  16.513  15.882 -0.1747 -0.1736  0.3447
 5528W        W21602   4.779  10.657   6.357  0.2201 -0.1950  0.2892
 5529W        W21603   1.261   1.030  14.401 -0.0558 -0.2678  0.0739
 5530W        W21604   6.402   8.674   0.307 -0.1573 -0.2383 -0.1202
 5531W        W21605  15.759  17.616   1.982 -0.0030 -0.2333 -0.2322
 5532W        W21606   1.267  12.384  15.970  0.0537  0.3268  0.1372
 5533W        W21607   2.979  11.526  11.467  0.0989  0.2809 -0.0593
 5534W        W21608   4.821  15.723  15.410 -0.2491  0.1304 -0.1306
 5535W        W21609  15.529  11.161  11.997  0.4007 -0.1653 -0.0960
 5536W        W21610   6.227   1.686  16.683  0.4913 -0.2862  0.0003
 5537W        W21611   0.918   4.226   1.860 -0.0037  0.0214  0.0561
 5538W        W21612  14.755   3.743   0.645 -0.0408 -0.0881 -0.0793
 5539W        W21613  16.135   5.706   5.659 -0.0783  0.3936 -0.0829
 5540W        W21614  13.709   2.142  13.093 -0.0342  0.0451  0.1049
 5541W        W21615   1.246   3.568   1.035 -0.1709 -0.4460  0.0393
 5542W        W21616   4.699  16.447  14.376  0.0869  0.0488 -0.0185
 5543W        W21617  16.960   3.820  13.940 -0.3529  0.3027  0.3963
 5544W        W21618  10.751   9.283  16.743 -0.1013 -0.1494  0.2213
 5545W        W21619  16.588   5.412   5.746 -0.1729 -0.1545 -0.0258
 5546W        W21620  12.367   2.967  15.935  0.0139 -0.0476  0.3391
 5547W        W21621   0.118   4.443  11.792 -0.0925 -0.1238  0.0911
 5548W        W21622   3.142  13.424   2.121  0.3605 -0.0045 -0.1301
 5549W        W21623  11.531  16.384  16.280 -0.4958  0.3331  0.1764
 5550W        W21624   0.163   9.300   1.324 -0.2054 -0.2095  0.2162
 5551W        W21625  13.603   3.009  16.816  0.2507  0.1870  0.1752
 5552W        W21626   0.294   9.584   1.672 -0.1179  0.0995 -0.1374
 5553W        W21627   8.030   9.657   5.088 -0.1277 -0.0145  0.1941
 5554W        W21628   2.356   0.838   4.148  0.1214 -0.0459  0.2954
 5555W        W21629  10.232  16.956   4.915 -0.0043 -0.0318  0.4145
 5556W        W21630   4.005  12.513  16.472  0.1909 -0.1112 -0.0089
 5557W        W21631  13.217  17.158  16.512  0.0237 -0.0258 -0.1222
 5558W        W21632   2.334  14.539  14.973 -0.0644  0.2517 -0.0554
 5559W        W21633  10.623   9.089   0.894  0.2052  0.1092 -0.0177
 5560W        W21634  12.336   5.223  15.580 -0.0848  0.0265 -0.2874
 5561W        W21635   3.847   4.381   6.103  0.0152 -0.3410  0.0773
 5562W        W21636  12.923  13.859   3.860 -0.0623 -0.1747  0.0047
 5563W        W21637  16.629   5.710  15.594 -0.0043  0.3592 -0.1014
 5564W        W21638  13.822   6.782  12.680 -0.4042  0.2914 -0.0706
 5565W        W21639   0.864   0.582   4.887  0.5000 -0.3744 -0.0967
 5566W        W21640  13.660  14.016   0.061 -0.1188  0.0699 -0.1063
 5567W        W21641  16.197   0.938   2.386  0.2650  0.4892  0.0870
 5568W        W21642  16.822   6.727   3.427 -0.2695  0.0261  0.0134
 5569W        W21643  15.370   5.911  14.277 -0.1763 -0.1386  0.1151
 5570W        W21644  15.369   8.596   4.468  0.1184 -0.0409  0.0393
 5571W        W21645   3.947   6.838  15.492  0.2532  0.2533 -0.0321
 5572W        W21646   2.037   5.618   1.246 -0.2303 -0.1752 -0.0068
 5573W        W21647   3.536   4.715  13.330  0.0615  0.3393  0.0114
 5574W        W21648  17.255  14.781   6.237 -0.0357  0.0314 -0.3978
 5575W        W21649  16.310  12.197  14.712 -0.2703  0.0226  0.1794
 5576W        W21650  14.894   8.953  14.714 -0.1579 -0.0080 -0.2206
 5577W        W21651  15.468  15.798  15.798  0.0453 -0.0782  0.2163
 5578W        W21652  11.008   8.915  14.221  0.1720  0.3596 -0.0817
 5579W        W21653   2.657   0.353  12.801  0.3230 -0.1360 -0.1937
 5580W        W21654   1.465   8.185   1.507 -0.2010 -0.1952  0.3127
 5581W        W21655  10.267  13.251   1.140 -0.1149 -0.2446  0.0596
 5582W        W21656   3.700   0.918  11.695 -0.0620  0.0200  0.2104
 5583W        W21657   6.965   5.467   3.090  0.0549 -0.0338  0.2594
 5584W        W21658   9.309  14.911  11.750  0.0988 -0.0195  0.0219
 5585W        W21659   6.475   6.512  12.141 -0.1065  0.0941 -0.1933
 5586W        W21660   3.185   6.875  13.712 -0.1651  0.1048  0.2279
 5587W        W21661  17.653  15.568  13.772 -0.1498 -0.0406 -0.1204
 5588W        W21662   8.083  15.143  14.847 -0.0313  0.0171  0.0308
 5589W        W21663   8.482   9.794  13.939 -0.0079 -0.1070  0.0551
 5590W        W21664  17.717   8.829  12.023 -0.1029  0.1317  0.0356
 5591W        W21665  13.367   2.291   1.256 -0.1171 -0.0387  0.2935
 5592W        W21666  16.126  11.792  13.177  0.1289  0.0361  0.1630
 5593W        W21667   4.214   6.816   5.467  0.0101 -0.0531 -0.2549
 5594W        W21668   4.303   4.121  13.464  0.2488 -0.0214 -0.1043
 5595W        W21669   4.171  12.859  13.502  0.2447  0.0406  0.0007
 5596W        W21670   3.750  10.634  13.747  0.0959  0.2547  0.1522
 5597W        W21671  13.307   2.933   3.605 -0.1597  0.2194 -0.2490
 5598W        W21672  15.649   3.616   3.527  0.1662  0.2609  0.2758
 5599W        W21673  17.072  16.995  11.834  0.0683  0.0899  0.1594
 5600W        W21674  14.127  16.579   3.868  0.1324  0.0467 -0.1866
 5601W        W21675  11.692   8.847   1.350 -0.0815  0.0465 -0.0503
 5602W        W21676  10.156  15.707  16.744 -0.0264  0.0814 -0.1088
 5603W        W21677   8.974  13.604  15.246 -0.4349 -0.0919 -0.1149
 5604W        W21678   2.276   2.744  12.209 -0.0589 -0.0497  0.0258
 5605W        W21679   9.655   0.173  13.388  0.1038 -0.0117 -0.2677
 5606W        W21680   9.999  14.814  16.051 -0.1092  0.0321  0.1007
 5607W        W21681   9.678  12.896  10.780 -0.2353  0.1663  0.0529
 5608W        W21682   0.588   7.682  11.977 -0.0542  0.2165 -0.1435
 5609W        W21683   5.206  13.630  13.616 -0.0595  0.1761  0.1558
 5610W        W21684   4.792   0.531  10.331  0.1881  0.0442 -0.4669
 5611W        W21685   8.814   4.610   1.253 -0.1282  0.0571 -0.1963
 5612W        W21686   5.745  15.784   1.555 -0.1179  0.1941  0.1058
 5613W        W21687   1.139  15.150  14.623 -0.2687 -0.0017 -0.1976
 5614W        W21688  15.934  17.102   1.909 -0.4176  0.1653 -0.3212
 5615W        W21689   9.340  12.394   5.655 -0.3041 -0.0193  0.1378
 5616W        W21690  14.631   3.728  12.902 -0.0148 -0.0905  0.2952
 5617W        W21691  14.205   5.237  12.208  0.0823  0.1519  0.0077
 5618W        W21692   5.576  15.361  12.811  0.3065  0.0860 -0.1427
 5619W        W21693   8.847   9.370   4.315 -0.1132 -0.0507 -0.0060
 5620W        W21694   1.756   4.108  16.183  0.2086 -0.0234 -0.1473
 5621W        W21695  11.027   6.232   1.188 -0.5179  0.0627  0.2277
 5622W        W21696   4.617  15.462   3.683  0.1351  0.1017  0.1501
 5623W        W21697  10.699  14.418  12.540 -0.0399 -0.0965 -0.2962
 5624W        W21698  10.132   2.595   4.395 -0.2483 -0.1741  0.3885
 5625W        W21699  11.291   7.811   2.056 -0.0128  0.0780  0.1038
 5626W        W21700   5.046   2.427  11.401 -0.1992 -0.0875 -0.1102
 5627W        W21701  12.770  10.856   4.005 -0.2288  0.2467 -0.1376
 5628W        W21702   9.429   3.001  13.378  0.1995 -0.1102  0.2533
 5629W        W21703   4.486   6.372   3.944  0.0922  0.0100 -0.2001
 5630W        W21704   4.188  17.541  12.182 -0.0224  0.2741  0.0939
 5631W        W21705   0.619   6.200  14.620  0.1962  0.1635 -0.2387
 5632W        W21706  17.359  11.082  14.324  0.1468  0.0106 -0.3115
 5633W        W21707   7.486   9.585   0.759 -0.1921 -0.2293  0.1024
 5634W        W21708  11.629  15.390  13.622  0.1553 -0.0146 -0.0536
 5635W        W21709  13.750   4.335  11.887 -0.0495 -0.2268 -0.2003
 5636W        W21710   7.979   9.552  14.018  0.0200  0.1234  0.0861
 5637W        W21711   6.776   1.023   1.081 -0.1995  0.0477 -0.0736
 5638W        W21712   6.444  16.037  12.997 -0.0399  0.2466 -0.1322
 5639W        W21713   1.541  15.565  13.761 -0.0852 -0.1357 -0.2168
 5640W        W21714  16.317  16.574   3.347 -0.0625 -0.2895  0.0430
 5641W        W21715   5.358   5.332   2.839 -0.0459 -0.1165  0.6644
 5642W        W21716  11.827   2.610   3.473 -0.0884  0.2225 -0.1021
 5643W        W21717   8.718   9.803  14.603 -0.0578  0.3858  0.1756
 5644W        W21718  12.031  17.093  15.924  0.0343  0.0039  0.0727
 5645W        W21719   4.727   8.541   1.865 -0.0528  0.1138 -0.0718
 5646W        W21720   2.521  17.320  14.598  0.0655  0.0107 -0.0767
 5647W        W21721   9.566   9.071   5.162  0.0310  0.3435  0.1616
 5648W        W21722  13.674   5.675  12.812 -0.0225  0.5136  0.0175
 5649W        W21723  17.571   5.871  16.618  0.0016 -0.2258 -0.2100
 5650W        W21724  17.292  13.684   0.096  0.0219 -0.4272  0.1602
 5651W        W21725   0.263   3.000  16.343  0.2469  0.1208  0.1934
 5652W        W21726   3.714  14.577  12.678  0.0632  0.1146 -0.0622
 5653W        W21727   6.758   9.725   1.041  0.0043  0.2011  0.1125
 5654W        W21728   9.265  12.944   3.287  0.0767  0.1566 -0.2430
 5655W        W21729  14.544   2.767  13.050 -0.1200  0.2908 -0.5320
 5656W        W21730   4.071  14.046   3.694 -0.0180 -0.2259  0.1058
 5657W        W21731  10.212   6.172  14.915  0.1889 -0.1750  0.1918
 5658W        W21732   2.912   1.347   0.954  0.0277 -0.4912 -0.0447
 5659W        W21733   0.185   3.687  12.744  0.0868  0.0324  0.1587
 5660W        W21734   6.665   4.998   4.695 -0.1167 -0.0595  0.0725
 5661W        W21735  17.807  13.215   2.966 -0.3695  0.0098  0.0639
 5662W        W21736   1.293   8.603  14.855 -0.2092  0.0106 -0.3492
 5663W        W21737   3.544   2.342  16.878  0.0173  0.5436  0.0629
 5664W        W21738  10.663   9.014  13.822 -0.2448  0.2611 -0.0730
 5665W        W21739  14.596   6.258  14.552 -0.0156  0.0154  0.4316
 5666W        W21740  15.484   5.835  12.369  0.0555  0.1373 -0.0680
 5667W        W21741   2.772  12.242   3.706  0.1827 -0.4128 -0.0285
 5668W        W21742   6.339   7.819  12.352 -0.1261 -0.2908  0.1033
 5669W        W21743  12.318  12.087  14.216  0.3701  0.1809 -0.0459
 5670W        W21744   1.837   0.237  15.503 -0.0589 -0.5416  0.0934
 5671W        W21745  13.791   1.807   2.930  0.3343 -0.1951 -0.1821
 5672W        W21746  17.053  14.112  16.818  0.0197 -0.1033 -0.0471
 5673W        W21747   9.995  15.809  12.382  0.2337  0.0862 -0.1994
 5674W        W21748   9.054  16.118  14.668 -0.0698  0.2151  0.0539
 5675W        W21749  16.479   9.815  12.066 -0.0581  0.0992  0.0127
 5676W        W21750   4.948   5.499   1.002 -0.4421  0.3564 -0.0049
 5677W        W21751   5.513   5.161   2.218 -0.0091 -0.0184  0.1685
 5678W        W21752  16.822  16.348   3.670  0.0159  0.2712 -0.0895
 5679W        W21753  13.117  14.384   5.201  0.2585 -0.1449 -0.0386
 5680W        W21754   7.339   7.197   2.329  0.3095  0.1935 -0.0077
 5681W        W21755  13.549   3.512   4.615 -0.0370 -0.0429  0.3350
 5682W        W21756  10.961   2.844  13.150 -0.0509  0.1244 -0.3134
 5683W        W21757   2.980  10.350   0.662  0.0457 -0.1424 -0.1531
 5684W        W21758   1.930  13.438   0.152  0.1616  0.0394  0.0434
 5685W        W21759  16.251   0.200  12.390  0.1047 -0.0164 -0.1518
 5686W        W21760   8.549   6.744   2.559  0.0946  0.2133  0.0917
 5687W        W21761  13.698   6.355  15.644 -0.3693  0.0669  0.0034
 5688W        W21762   2.365   5.364   0.219  0.0003  0.0521  0.3292
 5689W        W21763   5.621   7.153  15.644 -0.0440 -0.0706 -0.1732
 5690W        W21764  13.621   6.875  14.244 -0.1670  0.1115  0.1091
 5691W        W21765   7.311  10.275   0.308 -0.0599  0.1367  0.1234
 5692W        W21766  16.943  16.394   2.556  0.1150 -0.4399 -0.1608
 5693W        W21767   4.882   5.056  13.558  0.0395 -0.0241  0.1481
 5694W        W21768  10.336   4.027  12.013 -0.1513  0.1491 -0.3112
 5695W        W21769  13.649   6.369   2.599 -0.1133  0.1420 -0.2112
 5696W        W21770   1.285  12.332   3.289  0.1175 -0.1383  0.1586
 5697W        W21771   6.381  17.660  14.703 -0.1031 -0.1081  0.0703
 5698W        W21772   7.461   4.209  13.633 -0.0347  0.2006  0.0143
 5699W        W21773   2.075   6.064   1.595  0.3609 -0.2206 -0.0457
 5700W        W21774  15.788   1.534  14.735 -0.0992 -0.0484 -0.0112
 5701W        W21775   8.303   8.835  15.782  0.1219  0.3389  0.0179
 5702W        W21776  15.865   3.360   4.984 -0.1231 -0.1295 -0.0994
 5703W        W21777  10.563   4.317  13.338 -0.1196  0.3536  0.1858
 5704W        W21778  17.224   1.153  13.307  0.2298  0.0567  0.1510
 5705W        W21779   1.581  16.672   1.091 -0.2406  0.1588 -0.3609
 5706W        W21780   0.985  10.244   3.814  0.1696 -0.3260  0.1211
 5707W        W21781   0.073   4.870   3.523  0.0879 -0.0345  0.4306
 5708W        W21782   5.186  14.196  16.676  0.0274  0.1987 -0.1399
 5709W        W21783   4.304  13.730   4.594  0.1551 -0.4035  0.1082
 5710W        W21784   3.081   7.314  15.344 -0.2024  0.0624 -0.1772
 5711W        W21785  15.270   6.879  12.188 -0.0350  0.0831  0.1940
 5712W        W21786  14.026  15.405   2.473  0.1130 -0.2133  0.1114
 5713W        W21787   5.910  10.490  12.419  0.0343 -0.0496  0.2349
 5714W        W21788  17.607   2.498   5.201  0.0895  0.1027  0.1731
 5715W        W21789   8.040   4.587  13.048 -0.0251 -0.1065  0.0463
 5716W        W21790   4.457  16.552   4.857 -0.0684  0.3602  0.0398
 5717W        W21791  14.854   6.577  11.943  0.0986 -0.1617 -0.2538
 5718W        W21792  16.418   3.982  13.853 -0.0497 -0.2453  0.4348
 5719W        W21793  13.161   3.362   1.956  0.1973  0.1065  0.1409
 5720W        W21794   8.988   2.891   2.620 -0.0865  0.1505  0.0337
 5721W        W21795  11.678   7.641   3.341  0.0922 -0.2132 -0.4363
 5722W        W21796  14.085   5.916  12.743 -0.0984  0.4056  0.1232
 5723W        W21797   9.614  13.824  11.747 -0.0883  0.1135  0.1830
 5724W        W21798  14.106   4.434   2.688 -0.1651  0.0685  0.1258
 5725W        W21799   1.900  11.540  12.570 -0.0065 -0.0480 -0.1135
 5726W        W21800   0.197  14.992   1.632  0.0032  0.0962 -0.0607
 5727W        W21801  11.340   8.031   4.588 -0.2416 -0.0248  0.0081
 5728W        W21802   8.218   7.336   1.069 -0.1693  0.0334 -0.0713
 5729W        W21803  17.800   4.739   5.116  0.3086 -0.0006 -0.2311
 5730W        W21804   8.542   0.489  16.207 -0.0417  0.0365  0.2330
 5731W        W21805   6.756  12.027  14.976 -0.0157  0.0938  0.1884
 5732W        W21806   6.803  11.353  15.629 -0.0034 -0.1381 -0.2403
 5733W        W21807  14.647   9.143  11.965  0.4432  0.1213 -0.0956
 5734W        W21808  16.694   0.406  13.314  0.3972  0.0629 -0.0872
 5735W        W21809  16.965   9.793  12.045 -0.0534  0.0574 -0.0444
 5736W        W21810   3.991   8.802  13.337 -0.0420  0.2215  0.0505
 5737W        W21811   8.389   7.987  16.441  0.0528  0.2214 -0.0912
 5738W        W21812   3.094   1.950  12.448  0.1354  0.2428 -0.1821
 5739W        W21813   3.144  11.627  13.681  0.1071 -0.0557  0.1561
 5740W        W21814  15.955  12.288  12.243 -0.4793  0.0906  0.0448
 5741W        W21815  13.583   7.203   4.706  0.1488  0.2561 -0.0953
 5742W        W21816   7.421   8.510  12.826  0.2049  0.3559  0.0915
 5743W        W21817  16.248   4.819   0.667  0.1129  0.2059  0.0737
 5744W        W21818   5.758  12.030  15.023 -0.0372  0.1347  0.1240
 5745W        W21819   9.425   2.177  14.008  0.2047  0.1098 -0.1400
 5746W        W21820  13.334  14.892   0.182 -0.0150 -0.0334  0.0995
 5747W        W21821  13.806   4.573   5.565 -0.0614  0.2117  0.1357
 5748W        W21822   6.680  16.261  14.540  0.0525  0.4237  0.2723
 5749W        W21823  17.011   2.246   0.699  0.1618 -0.0338 -0.0993
 5750W        W21824   4.536   4.318  16.171  0.0562  0.0954 -0.3824
 5751W        W21825  17.087   7.947   0.447 -0.2483 -0.1288  0.0918
 5752W        W21826  13.277  11.457   0.130  0.1609  0.2159  0.0027
 5753W        W21827  13.560   2.330  14.900 -0.0493 -0.1488 -0.0022
 5754W        W21828  13.432  10.059   1.229 -0.1177  0.0153  0.1100
 5755W        W21829  11.989   9.093   3.000 -0.1523  0.0478  0.5450
 5756W        W21830  10.898   0.223  12.967 -0.1138  0.1790  0.3446
 5757W        W21831   2.236   4.553  13.311  0.2420 -0.0378  0.1486
 5758W        W21832  14.269  17.170  14.024 -0.0065  0.0286 -0.1925
 5759W        W21833   7.241   4.656  15.284  0.1844  0.0214 -0.0147
 5760W        W21834   8.450   8.525  16.498  0.0708  0.1284 -0.0651
 5761W        W21835  12.692   7.188  12.098  0.0315  0.0588 -0.4028
 5762W        W21836  16.994   2.397   0.097  0.3465 -0.3170 -0.2011
 5763W        W21837   5.468   0.932   1.941  0.1435  0.1072 -0.0618
 5764W        W21838  13.605   4.635   3.102  0.0140  0.1030 -0.0694
 5765W        W21839  16.210  10.658   3.701  0.2103  0.2953 -0.1935
 5766W        W21840  15.994  17.433   5.615 -0.3475  0.0701  0.2900
 5767W        W21841  17.584   7.801   3.010  0.2362 -0.4244  0.2684
 5768W        W21842   1.604   1.311   1.267 -0.0746 -0.2265  0.0300
 5769W        W21843  10.826   7.564   3.360 -0.0711  0.0237 -0.1160
 5770W        W21844  15.261  14.200   3.159  0.0591 -0.0163 -0.0387
 5771W        W21845   9.808   7.431   3.745  0.2730 -0.0837 -0.0772
 5772W        W21846   4.296  17.040  16.439  0.3780 -0.3704  0.0393
 5773W        W21847   3.413  17.782  15.746  0.0531  0.1258  0.1565
 5774W        W21848  12.667   8.815   4.798  0.0089  0.1402 -0.1648
 5775W        W21849   1.277  13.791  12.390  0.2489 -0.2371  0.0324
 5776W        W21850   4.077  16.558  10.881  0.3801 -0.2372 -0.0708
 5777W        W21851   0.323  13.116  12.208  0.3526 -0.0943 -0.1577
 5778W        W21852  17.733  13.427   2.013  0.1873 -0.0298 -0.1041
 5779W        W21853   3.980   8.704   4.183  0.0824 -0.1972  0.0427
 5780W        W21854   7.598   2.741   6.070 -0.3978 -0.0503  0.0444
 5781W        W21855   7.465  16.674   2.212  0.1550 -0.0123 -0.1373
 5782W        W21856   4.487   6.173  11.943  0.0447 -0.0218  0.1453
 5783W        W21857  12.278   0.838  15.608  0.0691  0.0702 -0.2251
 5784W        W21858  16.846  16.733  13.606  0.0371  0.3879 -0.0157
 5785W        W21859  12.191   4.602   4.117 -0.0243 -0.0936  0.2984
 5786W        W21860   3.208   8.265   1.732  0.0836 -0.0418 -0.2614
 5787W        W21861  12.983  11.023   0.302  0.1990 -0.1806 -0.4076
 5788W        W21862  14.969   4.827   6.267  0.1706  0.0451  0.1031
 5789W        W21863   2.576   7.925  14.338 -0.0318 -0.3899  0.0326
 5790W        W21864   4.478  16.991   2.510 -0.0432  0.5076 -0.1441
 5791W        W21865   3.740  13.978  15.848 -0.2830 -0.2757  0.0229
 5792W        W21866   2.012   9.156  13.006  0.0692  0.3157  0.1112
 5793W        W21867   0.344   4.067   5.733 -0.1457  0.0247  0.1771
 5794W        W21868  10.151   8.440  16.537 -0.1576  0.0796 -0.0396
 5795W        W21869   5.891   4.521   5.674  0.2665  0.3864  0.2761
 5796W        W21870   7.893  17.575  14.978  0.2811  0.1010 -0.1443
 5797W        W21871   9.152   4.230  11.968  0.2194 -0.1464 -0.2818
 5798W        W21872   1.483  15.037   3.645 -0.1470  0.2400  0.0314
 5799W        W21873  10.014   7.624  15.945  0.2201  0.3213 -0.1337
 5800W        W21874  13.179  16.928   2.001  0.1475 -0.0545  0.1925
 5801W        W21875   0.520   5.492  13.861 -0.1339 -0.0309  0.0837
 5802W        W21876  13.127   9.642   3.205  0.1344 -0.0609  0.1891
 5803W        W21877   3.293  13.027  15.385 -0.1724  0.0780 -0.2086
 5804W        W21878  13.625  15.044   4.600  0.0367 -0.4566  0.0870
 5805W        W21879  14.326   0.065   2.284  0.2497  0.0873  0.1586
 5806W        W21880   5.521   2.487  11.556 -0.0339 -0.1058  0.1063
 5807W        W21881  17.681   1.723  13.932 -0.2875  0.0875 -0.0509
 5808W        W21882  16.294  10.757   1.901  0.3463 -0.0267  0.0608
 5809W        W21883  11.287   7.708   0.182 -0.1031  0.1960  0.2524
 5810W        W21884   9.330   5.589   4.621  0.2558  0.0780 -0.2810
 5811W        W21885   0.702   7.703   5.157 -0.0111  0.1376  0.2491
 5812W        W21886  15.649  14.866  16.708 -0.1253 -0.0832 -0.1266
 5813W        W21887   1.196   5.256   1.499  0.1004 -0.0776  0.0147
 5814W        W21888   8.482  17.047  12.826 -0.2194 -0.0405  0.0728
 5815W        W21889  12.321   3.649   2.994 -0.1106 -0.0472  0.1918
 5816W        W21890   0.758   2.324  14.873 -0.2354 -0.1602 -0.1534
 5817W        W21891   1.422  11.007   0.791 -0.0412  0.1501  0.0300
 5818W        W21892   3.106  15.584   5.133  0.0207  0.1956 -0.2500
 5819W        W21893   7.341   6.657  15.714  0.2554  0.3048  0.1806
 5820W        W21894   8.823   7.843   4.558 -0.3055  0.1670 -0.0566
 5821W        W21895   8.853   7.438   3.668  0.0970  0.0995  0.1877
 5822W        W21896  13.241  15.762   2.084  0.0933  0.0110 -0.1882
 5823W        W21897   2.698   9.959  14.123  0.0500  0.2948 -0.0625
 5824W        W21898  12.520  11.296  15.745 -0.1781 -0.3639 -0.3606
 5825W        W21899  16.453  17.239  14.928  0.0091 -0.1508  0.1583
 5826W        W21900   9.530   8.957   2.397  0.0006  0.1184  0.2219
 5827W        W21901   9.875  13.461  12.003 -0.0164 -0.2165  0.2661
 5828W        W21902  11.175  14.089  11.739 -0.1145 -0.2906  0.1203
 5829W        W21903   8.040   6.150  16.293  0.1718 -0.0166 -0.0709
 5830W        W21904  16.653  10.619  12.698 -0.0798 -0.0318  0.0175
 5831W        W21905   9.287  10.383   2.404 -0.0967  0.2546  0.1083
 5832W        W21906   5.684   6.559  15.518  0.1155  0.1725  0.0665
 5833W        W21907  12.007   3.215   4.112 -0.0863  0.0057  0.0729
 5834W        W21908  15.858   9.812  14.319 -0.3840 -0.1419 -0.2375
 5835W        W21909   1.274   2.365  16.412  0.0592 -0.0357  0.0634
 5836W        W21910   4.536   8.137   3.515  0.3127 -0.2947 -0.1693
 5837W        W21911  17.132   6.927   3.005 -0.3743 -0.0646 -0.0650
 5838W        W21912  10.356   7.376  15.674 -0.1621 -0.2735 -0.0664
 5839W        W21913   4.035   4.232  16.972 -0.2352 -0.0045 -0.1920
 5840W        W21914   5.911   0.908  16.636 -0.1139 -0.1361 -0.0597
 5841W        W21915  17.446   5.849  14.826  0.0343 -0.0052 -0.2397
 5842W        W21916   6.219   8.027  12.886 -0.1283  0.0007 -0.1862
 5843W        W21917  12.249  17.518   4.346  0.1596  0.0800 -0.0976
 5844W        W21918  17.148  13.540  13.874  0.0697  0.0401  0.0489
 5845W        W21919   4.172   6.558  13.997  0.2354  0.0499  0.3142
 5846W        W21920   1.701   3.081   4.318 -0.1112  0.3145  0.0444
 5847W        W21921  16.669  15.086   3.609  0.1520 -0.1019  0.0935
 5848W        W21922  14.520  14.124   1.348 -0.1228  0.0381  0.2386
 5849W        W21923   4.637   0.444   2.196  0.1398 -0.0129 -0.0554
 5850W        W21924   2.023   8.898  13.448  0.3087 -0.0825 -0.2410
 5851W        W21925   3.402  15.984  16.887 -0.1137  0.2393 -0.0875
 5852W        W21926   1.308   0.521   2.250 -0.1947  0.0710 -0.1093
 5853W        W21927   2.652  12.036   6.428  0.0127  0.0037  0.2305
 5854W        W21928   1.795   5.142  11.854  0.1509  0.1473  0.2892
 5855W        W21929   9.785   4.771  16.314  0.0244  0.1720  0.0984
 5856W        W21930   5.240   6.175  16.619 -0.1277  0.0998 -0.2365
 5857W        W21931   0.760  12.539  13.659  0.2843 -0.1922  0.0060
 5858W        W21932  15.082   0.141   6.755 -0.1787  0.0357  0.0131
 5859W        W21933  12.672   8.450  16.243  0.1112 -0.0856  0.0046
 5860W        W21934  14.027   7.606   2.390  0.2362 -0.1488 -0.0192
 5861W        W21935  12.010  10.018   6.469  0.0193  0.3340 -0.3916
 5862W        W21936   1.535   1.023  12.442 -0.2058  0.0161 -0.0689
 5863W        W21937   8.061  17.796   3.503 -0.1274 -0.0094 -0.3333
 5864W        W21938   4.879   7.775   2.602  0.2015  0.1843  0.1385
 5865W        W21939  11.958  14.129  14.906  0.0693  0.0781  0.4251
 5866W        W21940  15.098  11.983  15.888  0.0924 -0.0862  0.0342
 5867W        W21941   8.420   3.300   2.675 -0.0480  0.0854  0.1642
 5868W        W21942  11.561  10.302   0.573  0.0042 -0.0932 -0.1661
 5869W        W21943  16.030  14.261   0.387 -0.0375 -0.1513  0.1438
 5870W        W21944   3.011   7.463   3.156  0.4235 -0.1140  0.0335
 5871W        W21945  10.602  15.098   5.663 -0.1177  0.2014  0.0100
 5872W        W21946   6.162  17.278  13.656  0.1767  0.3956  0.0342
 5873W        W21947   2.542  13.838  14.580 -0.1909 -0.0287 -0.1466
 5874W        W21948  10.289  15.255   0.765 -0.3133 -0.4121 -0.0820
 5875W        W21949   5.882  17.689  13.834  0.1707 -0.0020 -0.0683
 5876W        W21950  15.104   6.094  12.676  0.0222  0.0840 -0.1482
 5877W        W21951   3.248   3.745  12.093  0.0997  0.0941  0.0633
 5878W        W21952   3.556   1.907   3.034 -0.0998  0.1849  0.1641
 5879W        W21953  13.853  13.823   3.036  0.1200 -0.3085 -0.1165
 5880W        W21954   3.683   4.808  14.391  0.0001 -0.1943  0.1252
 5881W        W21955  14.259  13.107  14.686 -0.0443 -0.0461 -0.1066
 5882W        W21956  13.996  17.662  16.747  0.0189  0.2979 -0.0663
 5883W        W21957   8.414  13.630   2.740 -0.2407 -0.0699  0.0878
 5884W        W21958  11.559  16.776  13.797  0.3151 -0.0258 -0.1206
 5885W        W21959   4.369   9.454  16.551 -0.1601 -0.0920  0.4300
 5886W        W21960   4.099  13.850   3.189 -0.0338 -0.0234 -0.1900
 5887W        W21961  16.468   4.078  16.957  0.1147 -0.2388 -0.2074
 5888W        W21962   3.530  10.654   3.918  0.0093  0.0163  0.1914
 5889W        W21963  14.656  11.152  13.096 -0.0281  0.3736 -0.0605
 5890W        W21964   7.649  17.183   0.138 -0.3792 -0.0452  0.1769
 5891W        W21965  13.500   5.431  16.026  0.0433 -0.0251  0.3173
 5892W        W21966   4.026   9.400  14.104 -0.0767  0.0425  0.2990
 5893W        W21967   6.067   2.916   3.590  0.1735 -0.1271 -0.0563
 5894W        W21968   0.153   5.638   2.868 -0.1115  0.0305 -0.2456
 5895W        W21969   6.034   2.487  12.471  0.0619  0.2043  0.2619
 5896W        W21970   9.588   7.832  11.915 -0.2727 -0.2207  0.0105
 5897W        W21971   3.311   6.269  11.571 -0.0101  0.0299  0.2000
 5898W        W21972  14.034  13.429  15.936 -0.2350 -0.0900  0.1767
 5899W        W21973   0.268  10.993  12.478 -0.0244 -0.1035  0.1258
 5900W        W21974  11.124   2.103   3.796 -0.1574 -0.1244  0.2735
 5901W        W21975  14.668   1.569   4.635 -0.1438 -0.0289 -0.0194
 5902W        W21976  14.294  14.918   1.616 -0.0540  0.2621  0.0753
 5903W        W21977   6.692  15.630  13.708 -0.3108  0.3179  0.3973
 5904W        W21978   9.117   5.216   4.883  0.1005 -0.0245  0.1778
 5905W        W21979   6.280   9.527  15.011 -0.0147 -0.0123  0.0182
 5906W        W21980   3.898  14.453   3.965  0.2223 -0.1674 -0.0467
 5907W        W21981  11.630   2.015   5.274 -0.2873 -0.0465 -0.1898
 5908W        W21982   3.705   9.863   2.435 -0.2718 -0.2097  0.1472
 5909W        W21983   9.368   6.917  16.320  0.2797  0.0467  0.1224
 5910W        W21984  11.714   5.030  13.757  0.1120 -0.0844 -0.2659
 5911W        W21985  10.290  12.771   4.233  0.0671  0.0207  0.0904
 5912W        W21986  16.534   1.272   6.527  0.0001 -0.2900 -0.2526
 5913W        W21987  14.506   9.305  14.497 -0.0386 -0.1185 -0.0073
 5914W        W21988   1.132  15.925   1.465 -0.1295  0.0718 -0.1296
 5915W        W21989   0.064   5.254   0.712 -0.0372  0.2073  0.3927
 5916W        W21990   3.273   4.424   5.224  0.3154 -0.0600  0.0313
 5917W        W21991   6.970  12.679   5.267 -0.1861 -0.0464 -0.2618
 5918W        W21992  12.575  14.517  13.085 -0.2915  0.1972 -0.0394
 5919W        W21993   3.219   5.761   4.074 -0.0019 -0.0566  0.1811
 5920W        W21994  16.472   9.354   6.120  0.0265 -0.1511  0.2602
 5921W        W21995  16.532  11.465  12.533 -0.1295 -0.1379 -0.0236
 5922W        W21996  12.368   6.378  15.754 -0.1666  0.1095  0.1368
 5923W        W21997   2.341  10.868   4.583 -0.4993 -0.0319  0.0726
 5924W        W21998   7.185   4.897   5.362  0.2041 -0.0498 -0.2644
 5925W        W21999   0.671   1.108   2.178  0.0481  0.1123 -0.1943
 5926W        W22000  15.395   1.418   1.010 -0.3255 -0.4309  0.0275
 5927W        W22001   3.235   7.260  15.857 -0.2299 -0.0858 -0.1946
 5928W        W22002   2.963   2.045  11.735 -0.1289  0.0873  0.2192
 5929W        W22003   4.731   5.726  14.316  0.0247  0.1107 -0.1383
 5930W        W22004   5.937  13.144  15.154  0.0934 -0.0521 -0.0167
 5931W        W22005  14.992   1.050   6.283  0.1050 -0.1476  0.1695
 5932W        W22006   6.250  13.599  12.252 -0.1154 -0.1458 -0.0088
 5933W        W22007   9.885  12.365  12.758 -0.0179 -0.3355 -0.1082
 5934W        W22008   7.681  17.677   0.900  0.0877  0.4657  0.0951
 5935W        W22009   4.255   4.924  12.290 -0.0703  0.1877  0.2687
 5936W        W22010  10.633   6.236   5.037  0.0643  0.0270  0.0642
 5937W        W22011   7.311   3.008   4.421 -0.0202 -0.1559  0.0974
 5938W        W22012  14.118  11.476   2.036  0.0740 -0.2924  0.1634
 5939W        W22013   6.481   1.024   6.007 -0.1144 -0.0628 -0.1736
 5940W        W22014  14.591   6.854   4.174 -0.2762  0.1437  0.1282
 5941W        W22015   4.024  13.256  15.764 -0.1653 -0.0312 -0.1026
 5942W        W22016   7.926  17.140  15.599  0.0464 -0.0304 -0.1136
 5943W        W22017   3.434  12.419   3.630 -0.0972 -0.0736 -0.0148
 5944W        W22018   4.723  13.850  12.067 -0.1404  0.0660 -0.3125
 5945W        W22019   7.299  11.847   5.413 -0.1839 -0.1145  0.0048
 5946W        W22020   1.465  17.712   0.164  0.0058  0.1863 -0.0673
 5947W        W22021   9.360   7.957  12.644 -0.0845  0.1957 -0.1082
 5948W        W22022  14.153   1.184   2.037 -0.3216  0.0468  0.1204
 5949W        W22023   3.732   6.806  13.875  0.1073  0.0161  0.3714
 5950W        W22024   4.496   4.863  11.618  0.1222  0.0149 -0.1239
 5951W        W22025  16.984   7.286  16.495  0.0608 -0.0988 -0.1359
 5952W        W22026  12.577   1.975  16.525 -0.1063 -0.0806  0.2274
 5953W        W22027   1.464   7.306  12.144 -0.2218 -0.2653  0.2209
 5954W        W22028   3.887  16.004  13.943 -0.0502  0.2754 -0.0371
 5955W        W22029   8.752  14.155  12.251 -0.2277  0.3178 -0.1086
 5956W        W22030  10.340  12.548  15.499 -0.0742 -0.1462  0.0992
 5957W        W22031  14.793  12.264  15.448 -0.0952 -0.2073 -0.0414
 5958W        W22032  12.542  12.611   1.864 -0.3080  0.0604  0.3348
 5959W        W22033   2.715   3.379  15.547  0.2654  0.1110 -0.2641
 5960W        W22034  17.401   3.808   1.657  0.3104  0.0658 -0.1419
 5961W        W22035  16.784  17.022  15.722  0.0093  0.1307 -0.1517
 5962W        W22036   1.273  15.503  11.705  0.1352  0.1022  0.0697
 5963W        W22037   0.106  11.716   1.406  0.2303  0.2119 -0.1834
 5964W        W22038   2.425  11.133   2.179 -0.2871 -0.3679  0.1167
 5965W        W22039  11.213   0.392  16.614  0.1562  0.2707  0.4840
 5966W        W22040  11.983   2.452  13.144 -0.0438 -0.0360  0.0045
 5967W        W22041  11.731   4.534   3.967 -0.3018  0.1999  0.4028
 5968W        W22042  17.836   4.033  11.023 -0.1465  0.0107  0.1081
 5969W        W22043  16.044  15.214  14.126 -0.2858  0.0217 -0.0683
 5970W        W22044   7.468  16.455  12.011 -0.0879  0.0838  0.0958
 5971W        W22045  15.412   8.320   6.135 -0.1332 -0.1141 -0.2161
 5972W        W22046   6.802  15.183  15.431 -0.1318 -0.0687  0.2234
 5973W        W22047  14.525   5.419   0.045 -0.0322 -0.0302 -0.1618
 5974W        W22048  10.957  15.018   4.744 -0.0179 -0.2103  0.0372
 5975W        W22049  12.922  17.708   3.613 -0.3324 -0.1075 -0.0513
 5976W        W22050   9.287   4.331   1.174  0.0050  0.0703  0.1720
 5977W        W22051  15.539   8.143   4.542 -0.1525  0.0951 -0.2080
 5978W        W22052  14.048   1.413   3.260 -0.2067 -0.2257  0.2759
 5979W        W22053   0.036  16.680  12.000 -0.1582  0.0748 -0.0413
 5980W        W22054   5.838   6.654  13.718 -0.2221 -0.0463 -0.0411
 5981W        W22055   4.244  13.194  15.076  0.0564 -0.1328  0.1442
 5982W        W22056  17.429  11.109  16.413  0.0011  0.0313 -0.0618
 5983W        W22057   3.278   4.646   3.070 -0.3512 -0.0892 -0.0753
 5984W        W22058  15.545   8.204   2.665 -0.2308  0.0918  0.0189
 5985W        W22059   6.300  11.457   1.310  0.1824 -0.0156  0.1351
 5986W        W22060   6.945   9.814  14.539  0.2321  0.0119 -0.0526
 5987W        W22061  13.095   8.616  12.592 -0.1240  0.0578  0.3898
 5988W        W22062  14.238  10.714   4.074 -0.1203 -0.2196  0.0206
 5989W        W22063   1.088   9.238  12.975 -0.0406 -0.1704  0.0093
 5990W        W22064  16.841  15.826  12.781 -0.2655  0.1755 -0.3107
 5991W        W22065   4.828   7.544  14.711 -0.0431 -0.1481  0.0350
 5992W        W22066  13.967  11.268  13.815  0.1502  0.1456  0.0856
 5993W        W22067  14.038  12.690   4.439 -0.2970  0.0642  0.0539
 5994W        W22068   2.805   7.774  13.876  0.1857  0.3990 -0.0031
 5995W        W22069   8.197  13.974   2.402 -0.0889  0.0029  0.0869
 5996W        W22070   5.197   3.127   4.795  0.0484 -0.0663 -0.0620
 5997W        W22071  15.883   7.267   1.410 -0.0662  0.3152  0.1641
 5998W        W22072   1.253   6.494   4.706 -0.5002  0.0663  0.1560
 5999W        W22073   8.892  16.443  13.239  0.0258  0.3571 -0.0126
 6000W        W22074  15.985  15.893  15.216  0.0280 -0.0089 -0.0458
 6001W        W22075   0.774  17.550  15.931  0.2990  0.1579  0.0570
 6002W        W22076  17.567   1.241  13.737 -0.1162  0.0991 -0.1421
 6003W        W22077  16.729   7.047  14.726 -0.2125  0.0443 -0.1361
 6004W        W22078   6.893  14.199   2.533  0.0267 -0.1236 -0.1449
 6005W        W22079   4.726  11.505  14.610 -0.2284  0.0143  0.3483
 6006W        W22080   5.139  10.101  14.709 -0.0261 -0.3129  0.1941
 6007W        W22081   7.771  16.284  15.289  0.1230 -0.3428 -0.2511
 6008W        W22082   0.527  16.863   2.738  0.1260 -0.2119 -0.0445
 6009W        W22083   3.046  14.688  15.089  0.0236 -0.0800 -0.2621
 6010W        W22084   0.914   0.656  14.398  0.2070 -0.2606 -0.0299
 6011W        W22085   3.515  13.283  13.894 -0.0450  0.1762 -0.0895
 6012W        W22086   4.829   4.152   3.332 -0.1365  0.0849 -0.0145
 6013W        W22087  16.626   0.670   0.856  0.2870  0.2422 -0.0811
 6014W        W22088   0.870   1.155   0.017  0.0851  0.1872 -0.3517
 6015W        W22089   3.790  11.985   4.295 -0.0223  0.2676  0.0465
 6016W        W22090   3.567   6.844   1.347  0.3772  0.2298  0.0828
 6017W        W22091  10.511  17.737  11.748  0.1525 -0.4861 -0.0740
 6018W        W22092   0.208  13.954   1.073  0.1679 -0.0540 -0.0472
 6019W        W22093  13.848   0.743  16.921 -0.1580  0.3622 -0.1428
 6020W        W22094  16.535   4.496  13.765 -0.0803  0.2634  0.1222
 6021W        W22095   6.074   2.085  12.146 -0.1436  0.1323 -0.0395
 6022W        W22096   1.504   1.453  14.479 -0.0718 -0.1074 -0.4143
 6023W        W22097   4.015   2.659   0.966 -0.1221 -0.1071 -0.2260
 6024W        W22098   2.470   2.463  15.247 -0.1334 -0.0339 -0.0563
 6025W        W22099  16.197  10.857  12.998  0.0723 -0.0159 -0.0181
 6026W        W22100  14.017  15.339  12.352  0.1094  0.0230  0.0686
 6027W        W22101  14.203   4.631  12.827  0.0190 -0.0488 -0.3515
 6028W        W22102   2.836  11.659   0.769 -0.2360  0.1222 -0.1073
 6029W        W22103  14.356   8.012   0.852 -0.3148 -0.2013  0.0402
 6030W        W22104  14.181  11.149  15.639  0.2866  0.1831  0.1190
 6031W        W22105   8.913  16.527   0.193 -0.2139  0.1886 -0.0559
 6032W        W22106  14.772   5.454   3.847 -0.4613  0.0802 -0.0184
 6033W        W22107  16.232   4.440   3.531 -0.1767  0.1568 -0.2566
 6034W        W22108   7.337   6.893   4.848  0.2416 -0.2208  0.0136
 6035W        W22109  10.885  16.393   0.862 -0.0512  0.0695  0.0541
 6036W        W22110   5.657  13.060  11.945  0.1936 -0.0757 -0.2908
 6037W        W22111   1.236   7.557   3.204  0.1474  0.0542 -0.3677
 6038W        W22112   9.921   5.038   5.487 -0.0309  0.1152  0.1765
 6039W        W22113  11.420  12.863   3.415  0.2715 -0.0797 -0.0758
 6040W        W22114  16.504   4.845  15.391  0.2624 -0.3572 -0.0407
 6041W        W22115  12.545   8.849   6.078  0.0236 -0.0506 -0.2314
 6042W        W22116   8.069   0.153  11.616 -0.0277 -0.0368 -0.0947
 6043W        W22117  17.061  10.443   2.317 -0.0857  0.0375  0.0508
 6044W        W22118  10.836   0.494   4.485  0.1788  0.2278  0.1233
 6045W        W22119  16.947  16.043   4.811 -0.0003 -0.4597  0.2980
 6046W        W22120  10.069   6.653  16.954 -0.1319 -0.1760 -0.3552
 6047W        W22121  16.350  16.234   4.554  0.1001 -0.3188  0.0849
 6048W        W22122  15.341   2.482  16.268  0.2379  0.2441 -0.0256
 6049W        W22123   0.869  12.061   3.369  0.0587 -0.0322  0.0951
 6050W        W22124   7.295  14.974  15.411  0.0691  0.1682  0.4564
 6051W        W22125   3.625  12.048  12.966 -0.2758  0.0447  0.0512
 6052W        W22126  16.213   8.579   0.716  0.0814 -0.0596 -0.1562
 6053W        W22127   7.237  10.865   0.942  0.1634 -0.1301 -0.2053
 6054W        W22128  17.193   3.443  13.625  0.0276 -0.0289 -0.0617
 6055W        W22129   7.483   4.235  15.343  0.0326 -0.0564  0.3972
 6056W        W22130   1.377   9.973  16.234  0.0436  0.1743 -0.0884
 6057W        W22131   7.274   9.788   1.154 -0.2418 -0.1857 -0.2409
 6058W        W22132   2.184   5.659  13.152 -0.2691  0.0857 -0.1048
 6059W        W22133  11.529  16.680   4.225 -0.0556 -0.1764  0.0655
 6060W        W22134   5.924   3.652   0.926  0.1773  0.1191 -0.1208
 6061W        W22135  12.110   0.439   5.294 -0.1204  0.2546 -0.0019
 6062W        W22136  12.727   7.208  16.548  0.1914  0.4873 -0.3307
 6063W        W22137  14.183  10.994  15.108 -0.1307 -0.1463  0.0772
 6064W        W22138  17.670  12.059  15.998 -0.4036 -0.0686  0.1718
 6065W        W22139  15.473  12.583   4.879 -0.5244  0.0580 -0.1802
 6066W        W22140   2.039   2.576   2.065 -0.1803 -0.0881 -0.0062
 6067W        W22141  16.206  12.158  15.356  0.0520 -0.3287 -0.2466
 6068W        W22142   0.451   4.241   1.721  0.1795  0.1504 -0.0882
 6069W        W22143  14.007   3.728   0.278  0.0659  0.0300 -0.0228
 6070W        W22144  10.659  10.311  14.369 -0.2360  0.1568  0.0565
 6071W        W22145   1.023   6.113  12.768  0.0713 -0.1192 -0.1337
 6072W        W22146   9.795   1.400   3.343  0.0727  0.1830  0.1844
 6073W        W22147   8.587   5.454  16.510  0.2760 -0.1892  0.0721
 6074W        W22148  16.176  12.461  16.597  0.0975  0.0050 -0.1232
 6075W        W22149   1.941  14.598  14.626 -0.1323  0.1272  0.0853
 6076W        W22150   6.070  16.252   0.815 -0.0213  0.3144  0.1457
 6077W        W22151   8.315   0.052   0.914 -0.1502  0.4123  0.1032
 6078W        W22152  11.873   3.482   5.644 -0.1874  0.0066 -0.1735
 6079W        W22153  12.573   5.512  16.799  0.0259 -0.1557 -0.1871
 6080W        W22154  10.739  15.516  16.900  0.0766 -0.0189 -0.2238
 6081W        W22155  14.582   8.916   5.213  0.0420  0.0922 -0.2411
 6082W        W22156   3.076   6.985   4.784 -0.0640  0.2556  0.3447
 6083W        W22157  13.234   9.773  16.180  0.0516  0.2773  0.0375
 6084W        W22158  15.426   7.865   1.674  0.0954 -0.3024 -0.1645
 6085W        W22159  10.719   6.056   5.506  0.3156  0.2477  0.0690
 6086W        W22160  10.594   3.206   2.239 -0.3850 -0.1979 -0.2143
 6087W        W22161   9.300  15.556   0.267  0.0675  0.3065  0.0432
 6088W        W22162   7.815  11.876   4.652 -0.0234  0.1104 -0.0349
 6089W        W22163  12.679   3.820  12.403  0.1995  0.1954 -0.0592
 6090W        W22164   6.751   1.156  14.267  0.2474 -0.1337 -0.0836
 6091W        W22165  10.361  17.794   4.179 -0.0656 -0.0722  0.3531
 6092W        W22166   3.587   8.890  14.969 -0.1946 -0.1556  0.3125
 6093W        W22167   6.331   0.255   2.532  0.1234 -0.1323  0.4060
 6094W        W22168  16.919  13.766  13.450 -0.0017  0.0548 -0.1016
 6095W        W22169   5.411  17.010  12.047  0.0384 -0.0355  0.0597
 6096W        W22170   9.350  15.218   4.407 -0.1915 -0.1207  0.0590
 6097W        W22171   2.832  14.143   5.046 -0.1259  0.1918  0.1009
 6098W        W22172   3.782   8.661   3.027 -0.2337 -0.1388  0.0901
 6099W        W22173  17.166   4.448  15.960  0.0778 -0.1976  0.1638
 6100W        W22174   5.659   8.148  15.575  0.0055 -0.1879  0.1367
 6101W        W22175  17.756   7.499   0.663  0.2016  0.1408 -0.4763
 6102W        W22176   7.161   0.162  13.036  0.2456 -0.0703 -0.1729
 6103W        W22177   7.161   5.432  14.918 -0.3642 -0.3168  0.2115
 6104W        W22178   5.832  10.047  12.544 -0.3180 -0.3886  0.1719
 6105W        W22179   5.918  10.512  15.306 -0.1350  0.0846 -0.0391
 6106W        W22180   5.526  15.704  15.153  0.2389  0.3543  0.0197
 6107W        W22181   1.206   7.776  16.687 -0.2667 -0.0235 -0.1265
 6108W        W22182   4.819   0.759   1.776  0.0251  0.1285 -0.1569
 6109W        W22183   1.386   1.861  16.920  0.1881 -0.4885  0.3102
 6110W        W22184  10.820  11.483  16.225 -0.0584 -0.0901 -0.4370
 6111W        W22185  10.518  13.707   1.211 -0.0360  0.0218  0.1381
 6112W        W22186  16.787   6.323   6.083  0.0598 -0.1058  0.0376
 6113W        W22187   2.238  14.997   0.340 -0.1591  0.0118  0.1009
 6114W        W22188  10.993   8.503  15.188 -0.0312 -0.2483  0.1926
 6115W        W22189  14.363  12.284   3.452  0.2530  0.0849  0.1216
 6116W        W22190   8.342   7.269   2.371 -0.1631  0.0126  0.2056
 6117W        W22191  15.955  14.136   6.506 -0.3573  0.1521  0.1006
 6118W        W22192  16.339  17.057   1.197 -0.1947 -0.0071 -0.0094
 6119W        W22193  11.879  11.396   1.508 -0.0753  0.0325  0.0309
 6120W        W22194  15.797   2.641   4.360 -0.1931  0.1180  0.0318
 6121W        W22195   2.291   6.732  12.578 -0.2138 -0.1567 -0.1031
 6122W        W22196   7.014   4.867  13.043  0.2647 -0.2566 -0.0884
 6123W        W22197  13.170   8.731   1.335 -0.2443 -0.0365 -0.0187
 6124W        W22198   6.673   3.511   0.225 -0.0076  0.1199  0.0546
 6125W        W22199  11.625  10.955   5.607 -0.0048  0.1314  0.0430
 6126W        W22200   4.289  11.802   4.346  0.2513  0.2492 -0.2523
 6127W        W22201  10.612   0.323  15.792 -0.0109 -0.1913  0.1779
 6128W        W22202  12.660  15.690  16.943 -0.1439  0.3732  0.1817
 6129W        W22203   5.572   7.182   4.760  0.2706 -0.1192 -0.0612
 6130W        W22204   7.384  17.613  16.243  0.1503 -0.1043 -0.2604
 6131W        W22205  10.700   5.414   1.307 -0.2026 -0.1222 -0.1679
 6132W        W22206  14.862  11.325   0.052 -0.1531  0.1942 -0.0300
 6133W        W22207  11.267  10.385  12.295  0.2804 -0.0698 -0.2299
 6134W        W22208  11.463  13.192  14.580 -0.1051 -0.0152 -0.1500
 6135W        W22209   1.544  11.988   3.052 -0.0521  0.0638 -0.0557
 6136W        W22210  13.005   2.061  13.701 -0.0459 -0.1812  0.0227
 6137W        W22211   3.840   2.300   2.786  0.1685 -0.3797  0.0179
 6138W        W22212   8.415  12.957  14.857 -0.1000  0.1240 -0.1287
 6139W        W22213   4.875   0.431   1.342  0.1688 -0.0093  0.2688
 6140W        W22214  15.419   3.122  12.656  0.0816 -0.1719 -0.3614
 6141W        W22215  12.416   1.113   3.822 -0.2074  0.1225 -0.2694
 6142W        W22216   1.631   6.495  15.331  0.3416  0.3464 -0.0947
 6143W        W22217   1.610  11.776  12.932 -0.3582 -0.1308  0.1116
 6144W        W22218   4.529  14.333   4.253 -0.0411 -0.3545  0.0787
 6145W        W22219   8.073  13.035   3.190 -0.2896 -0.6906 -0.4437
 6146W        W22220  10.503  16.115  12.277 -0.1400 -0.0785  0.0088
 6147W        W22221   3.668  17.129   4.263  0.3112 -0.1306  0.0371
 6148W        W22222  13.592   8.887   5.277  0.0513  0.3948  0.1713
 6149W        W22223   5.566  15.472   5.303  0.4026  0.2187 -0.0799
 6150W        W22224  10.148   3.040   3.370  0.1055 -0.0244 -0.0573
 6151W        W22225  16.402  10.412  16.189 -0.1786 -0.2316 -0.1555
 6152W        W22226   7.734   9.568   1.248 -0.1829 -0.0913 -0.0101
 6153W        W22227   5.606  11.745   4.511 -0.1815 -0.2611 -0.1913
 6154W        W22228   2.884  15.039  16.171  0.2979  0.0775 -0.1579
 6155W        W22229   3.906   5.765   2.758  0.0272  0.0845  0.0956
 6156W        W22230  12.138  11.060  16.028 -0.2567 -0.1242  0.2655
 6157W        W22231  15.235  14.091   0.840 -0.1535  0.1767  0.0991
 6158W        W22232  16.103  12.088   0.456 -0.1430 -0.3689 -0.1186
 6159W        W22233   8.292  13.064   5.217 -0.0842 -0.2013 -0.0565
 6160W        W22234  17.772  13.978  16.078 -0.3116  0.1762  0.1206
 6161W        W22235  16.080  15.841  16.672  0.1499 -0.0645  0.1568
 6162W        W22236   0.073  10.176   4.714 -0.0765 -0.1026 -0.2880
 6163W        W22237   8.373   7.802  11.251 -0.0471 -0.1578 -0.1152
 6164W        W22238   3.468   6.959   2.655  0.0080 -0.1343 -0.1930
 6165W        W22239   0.303   3.547   2.031  0.0165 -0.0542  0.0863
 6166W        W22240  14.747  13.782  15.651  0.1074  0.1168 -0.2548
 6167W        W22241   8.305  10.329   3.876  0.2237  0.3812 -0.1740
 6168W        W22242  10.302  12.989  16.876  0.0235 -0.1263  0.1084
 6169W        W22243   6.610   2.495  14.054 -0.2807 -0.1454  0.2155
 6170W        W22244   1.452   9.612   2.962  0.1157  0.0333  0.2083
 6171W        W22245   9.479  16.641  13.376  0.2376  0.1169 -0.0431
 6172W        W22246  15.781   8.580   1.069  0.2313 -0.3930 -0.0867
 6173W        W22247  14.071  17.509   0.791 -0.0939  0.2655  0.0507
 6174W        W22248   5.473  12.881   0.295 -0.0542 -0.1338  0.2309
 6175W        W22249   7.667   7.055   4.035 -0.3524 -0.2654 -0.1129
 6176W        W22250   7.733  12.766  14.364  0.2235 -0.2254  0.3597
 6177W        W22251  14.653  10.513   4.230 -0.0912  0.1128 -0.1051
 6178W        W22252   7.557  10.434   3.526  0.0318 -0.2718 -0.3028
 6179W        W22253  17.173   2.976  12.120 -0.0158  0.4683 -0.0155
 6180W        W22254   0.995   5.296  12.512 -0.0085  0.1632 -0.1702
 6181W        W22255  16.848  10.017   0.901 -0.2289  0.1402  0.0616
 6182W        W22256  15.942  16.728   6.212 -0.0356  0.1804 -0.0222
 6183W        W22257  15.267  12.048  16.340  0.0190  0.1278 -0.0922
 6184W        W22258  12.837   1.343   5.649  0.0993 -0.1504 -0.0879
 6185W        W22259  10.379  11.249  11.970  0.2458  0.0889 -0.1333
 6186W        W22260   9.133   2.243  13.649 -0.2497 -0.1417  0.0240
 6187W        W22261  11.138  10.437  14.183  0.0619  0.0223 -0.1854
 6188W        W22262   0.833  16.273  11.713 -0.0997 -0.1550  0.1589
 6189W        W22263  15.412   5.121   4.450 -0.0909 -0.1741 -0.1953
 6190W        W22264  11.760   7.707  15.798 -0.2022  0.2013  0.1824
 6191W        W22265  15.444  14.966   2.558 -0.0780  0.0494  0.3022
 6192W        W22266   3.827  17.550   2.894  0.0175 -0.3061  0.0408
 6193W        W22267   7.072   1.828  11.944  0.2452 -0.0352  0.0888
 6194W        W22268   5.292  12.287  16.327  0.0340 -0.1601  0.0380
 6195W        W22269   5.734   9.399  13.397  0.3859 -0.2716 -0.0263
 6196W        W22270  11.732  16.852  16.489 -0.1028 -0.0506  0.0261
 6197W        W22271   5.411   9.709  15.510 -0.2306  0.0094 -0.3041
 6198W        W22272  15.052  17.374   1.765 -0.1590 -0.3788 -0.0269
 6199W        W22273   3.637  15.706   0.615 -0.0553  0.0524  0.1137
 6200W        W22274  15.374   6.647   1.652 -0.0098 -0.0515  0.1175
 6201W        W22275  12.754  15.459  11.718 -0.0466 -0.3070 -0.0424
 6202W        W22276   4.074   9.768   1.302  0.0272  0.0338  0.1248
 6203W        W22277  15.754   3.720  13.105  0.0602 -0.2215  0.0994
 6204W        W22278   7.281  13.358  12.003  0.0152  0.5229 -0.1567
 6205W        W22279  14.051   1.416  13.535  0.2549  0.0515 -0.0951
 6206W        W22280  14.357  12.160   5.062  0.0787 -0.5904  0.2020
 6207W        W22281  12.252   6.364  16.614  0.0577 -0.1218 -0.1996
 6208W        W22282  17.366  16.922   4.922 -0.0467  0.1045 -0.3979
 6209W        W22283   7.623  16.225  13.240 -0.0216 -0.1802 -0.1436
 6210W        W22284   3.307   8.278  16.735 -0.0006  0.0239 -0.0571
 6211W        W22285   3.249  12.373   4.812  0.0086 -0.1025  0.0576
 6212W        W22286   2.238   9.948  16.729 -0.0693 -0.0071 -0.0430
 6213W        W22287  11.971   2.147   2.602 -0.0448 -0.2311 -0.0132
 6214W        W22288   3.219   0.993   0.791 -0.1332 -0.1661  0.3231
 6215W        W22289   5.276  10.042  13.026  0.1216 -0.3090  0.0961
 6216W        W22290  14.122  15.146   2.898  0.0898  0.1189  0.0186
 6217W        W22291   8.970  16.987   4.502 -0.2150  0.0087  0.0187
 6218W        W22292  11.588   9.368   2.222 -0.0967  0.0561  0.0860
 6219W        W22293   8.691  10.414  12.343 -0.0470  0.1453 -0.0390
 6220W        W22294   9.292   5.338   4.148  0.1298 -0.0589  0.0146
 6221W        W22295   5.496   4.484   5.992  0.0057  0.0980  0.0591
 6222W        W22296  12.855   5.517  13.638  0.3336  0.1723  0.1049
 6223W        W22297   7.314  17.666   2.426 -0.4739  0.0853  0.2737
 6224W        W22298   3.231   6.157  16.580 -0.0582 -0.0168 -0.3482
 6225W        W22299  13.703  14.255   2.190 -0.1852 -0.2902 -0.0377
 6226W        W22300  17.251  12.131  13.790  0.1022 -0.0743  0.2621
 6227W        W22301  10.393   5.703   3.498  0.0748 -0.1836  0.1250
 6228W        W22302   6.091  10.075   0.918  0.4859  0.1834 -0.0208
 6229W        W22303   8.712  14.783  14.269  0.0376 -0.2450  0.1231
 6230W        W22304  14.482   4.970   2.687  0.0267 -0.2858 -0.0606
 6231W        W22305  13.280  15.668  11.807  0.4003  0.2296 -0.0247
 6232W        W22306  13.848   8.458   4.328 -0.2009 -0.0274  0.0956
 6233W        W22307   7.324  10.860  15.909  0.1106 -0.1739 -0.2638
 6234W        W22308   8.763   1.315  15.914 -0.1385 -0.0983  0.1733
 6235W        W22309  15.516   9.351   5.325  0.0431  0.0340  0.1046
 6236W        W22310   1.221   6.387  15.597 -0.1965  0.1448  0.3020
 6237W        W22311  12.762  14.104  16.111 -0.1460  0.2554  0.0504
 6238W        W22312   1.713   0.027  12.984 -0.3101 -0.2894  0.0167
 6239W        W22313  12.358   7.616  15.985 -0.3525 -0.1886 -0.0320
 6240W        W22314   9.834   9.669  13.255  0.1976  0.1545 -0.0793
 6241W        W22315  12.882   2.137   2.953 -0.1972  0.2005  0.2391
 6242W        W22316  15.559   2.084  16.024  0.0497 -0.0442 -0.2026
 6243W        W22317  13.809   2.802  14.669 -0.1237  0.1097 -0.0135
 6244W        W22318   1.216   7.453   0.140 -0.0211  0.0355 -0.2466
 6245W        W22319   2.435   3.121  11.390 -0.1068 -0.1010  0.1014
 6246W        W22320  10.527   7.841  16.473 -0.1873  0.1382  0.2154
 6247W        W22321  13.246   6.069   0.869  0.2702  0.0760  0.1125
 6248W        W22322   2.809   9.593   5.890  0.1284 -0.1168 -0.0245
 6249W        W22323  14.726   8.331   1.007  0.0941 -0.0214 -0.1304
 6250W        W22324  12.608   9.825   3.741 -0.0894  0.0244 -0.0672
 6251W        W22325  17.837  11.481  13.236  0.2672  0.2265  0.0225
 6252W        W22326   2.452  15.160   5.171  0.1611  0.1264  0.0154
 6253W        W22327   5.859  12.663  12.257  0.3021 -0.1715 -0.0916
 6254W        W22328   5.069  14.585   0.619  0.4993 -0.1615  0.0575
 6255W        W22329  11.551  12.119  15.265  0.2071  0.1818  0.0808
 6256W        W22330   3.042   6.240  12.453  0.2890 -0.0348 -0.2556
 6257W        W22331   2.886  10.023   5.193  0.0409  0.3032 -0.0968
 6258W        W22332   9.089   6.521   4.788  0.1855  0.2399  0.0303
 6259W        W22333  17.214  13.884  14.881 -0.1178 -0.0902 -0.0434
 6260W        W22334   1.088   8.731  15.854 -0.0371 -0.0963  0.2118
 6261W        W22335   6.114   4.337  11.404  0.0578  0.1467 -0.1273
 6262W        W22336   1.743   5.297  13.124  0.2056 -0.0308 -0.1097
 6263W        W22337  10.669   9.961   0.487 -0.1558 -0.0199  0.2106
 6264W        W22338   4.392  12.073  12.620 -0.0176  0.2234 -0.2420
 6265W        W22339   4.192   1.138  11.531  0.0823  0.1457 -0.1030
 6266W        W22340   5.049  14.663  16.780 -0.0198  0.1835  0.1248
 6267W        W22341   6.531  13.846  11.895 -0.1400  0.0473  0.0723
 6268W        W22342   3.710  10.165   1.326  0.0492  0.0559  0.0290
 6269W        W22343   8.197  15.765  12.288  0.2941 -0.2867  0.2761
 6270W        W22344   8.994  10.517   4.550  0.2351 -0.2500 -0.0099
 6271W        W22345  17.526   0.263   0.631  0.1219 -0.1099  0.0453
 6272W        W22346  14.547  15.327   3.529 -0.1340 -0.0418  0.0383
 6273W        W22347  15.589  11.620  14.464 -0.3091 -0.0628  0.0529
 6274W        W22348   2.076   1.547   4.534 -0.2901 -0.0358 -0.1530
 6275W        W22349   0.673   8.160   2.002  0.3767 -0.0406  0.2798
 6276W        W22350  12.375  16.446   1.887 -0.1047 -0.4963 -0.0481
 6277W        W22351   0.071  10.074  15.074  0.2520 -0.0828  0.2686
 6278W        W22352  14.571   3.923   2.694 -0.2206 -0.0542 -0.0103
 6279W        W22353  13.579   8.632   3.078 -0.0015  0.0422  0.0205
 6280W        W22354  13.904  12.135  16.668  0.0929  0.0656 -0.1674
 6281W        W22355   9.649   7.970   4.593 -0.0501  0.0258  0.0761
 6282W        W22356  10.178  10.236  14.575 -0.2544  0.2287 -0.2216
 6283W        W22357  10.533  17.341  13.464  0.4517 -0.1385  0.0213
 6284W        W22358   1.803   3.751  12.105  0.1681 -0.3476  0.2111
 6285W        W22359   8.327   9.490  12.350  0.0639  0.1486 -0.1815
 6286W        W22360  17.422   1.467  12.818 -0.0431 -0.0254  0.2216
 6287W        W22361  15.778   1.237  13.004  0.2120 -0.2601  0.1935
 6288W        W22362  16.384   2.538  15.010 -0.1637 -0.0175 -0.1198
 6289W        W22363   9.682   3.773  16.591  0.2988 -0.0467  0.1594
 6290W        W22364   3.721   8.415  13.232  0.1021 -0.0834  0.1521
 6291W        W22365  12.775  13.902  14.983  0.0702 -0.0996  0.2157
 6292W        W22366  11.329   8.158   5.771  0.1783  0.1708 -0.0071
 6293W        W22367   1.695   4.654  11.572 -0.2444  0.0742  0.1349
 6294W        W22368  14.450   7.469   0.871  0.0563 -0.1563 -0.2191
 6295W        W22369  17.109  13.648  12.943  0.1884 -0.4818  0.0422
 6296W        W22370   7.848   1.556   1.420 -0.3163  0.0332  0.0322
 6297W        W22371  14.274   2.548  16.389  0.2116 -0.1267 -0.0646
 6298W        W22372  10.796  10.195   0.917 -0.2184  0.2502 -0.0383
 6299W        W22373   6.753   6.464   2.472  0.1999  0.1802 -0.0664
 6300W        W22374   8.309   7.276  14.184 -0.3315  0.1123 -0.1061
 6301W        W22375   1.170   7.488   6.025 -0.4697  0.0003 -0.2650
 6302W        W22376   0.864   5.428  13.403 -0.1428 -0.1210  0.2097
 6303W        W22377   6.034   3.100   1.058 -0.2693 -0.1766 -0.2069
 6304W        W22378  17.600  15.594   4.131 -0.0864  0.2061  0.0120
 6305W        W22379   9.903  17.113  11.759  0.0758 -0.1933 -0.1770
 6306W        W22380   5.503  13.167  14.896 -0.2646  0.0863 -0.1929
 6307W        W22381   1.516   9.538  16.057  0.1563 -0.3813 -0.1129
 6308W        W22382   2.690   3.665   3.041 -0.1842 -0.4393 -0.0204
 6309W        W22383  12.223   0.040   0.319  0.0352 -0.0001  0.3599
 6310W        W22384  12.676   7.994  14.872  0.0638  0.1091 -0.2283
 6311W        W22385   2.771   7.199  12.281  0.0447  0.1703 -0.0750
 6312W        W22386  14.143  11.514   4.013  0.2250 -0.0490 -0.0821
 6313W        W22387  13.598   9.863   2.327  0.2842 -0.0974 -0.3483
 6314W        W22388   1.616  12.636   2.995 -0.0258  0.0600  0.1261
 6315W        W22389  11.076  14.273   3.204 -0.2205 -0.0554 -0.0680
 6316W        W22390  14.858   8.142   1.625 -0.1553  0.1029  0.1064
 6317W        W22391   2.242  15.391   0.903 -0.4144 -0.0008 -0.0797
 6318W        W22392  12.931  10.648  16.447  0.0189  0.0375  0.0221
 6319W        W22393   3.317  10.079  16.146  0.0306  0.0663  0.1099
 6320W        W22394   3.093  15.605  15.946  0.0526  0.0536  0.1124
 6321W        W22395  13.050  17.497   2.677 -0.1084  0.1297 -0.2257
 6322W        W22396  17.808   6.111  13.000 -0.1181  0.1190  0.1003
 6323W        W22397   1.344  10.677   3.067  0.2012 -0.1744  0.0235
 6324W        W22398   2.677  15.151   1.383 -0.0064  0.0636  0.3471
 6325W        W22399   8.689  16.824  14.536 -0.2928 -0.1374  0.2400
 6326W        W22400  10.217   6.345  11.978 -0.1736 -0.0595 -0.0227
 6327W        W22401   7.726  16.104  16.943 -0.3887 -0.4680  0.0830
 6328W        W22402  14.539   8.242  16.693  0.4518 -0.1308 -0.2175
 6329W        W22403  12.930  17.156  16.008 -0.0656 -0.4842 -0.1205
 6330W        W22404   9.079  17.533   2.025 -0.2785 -0.1428 -0.3604
 6331W        W22405   9.654   8.291  12.289 -0.0262  0.4910 -0.1553
 6332W        W22406   1.264  15.844  14.936 -0.2520 -0.1891 -0.1661
 6333W        W22407   1.084  13.145   2.075  0.0241  0.0072 -0.0137
 6334W        W22408  11.703   9.319   6.232 -0.1752 -0.0975  0.0125
 6335W        W22409   2.245   7.088  13.721  0.1454 -0.0199 -0.2460
 6336W        W22410  16.269   7.191  12.402  0.1141  0.1142  0.0508
 6337W        W22411   3.768   5.442   0.751  0.1788  0.0062 -0.0094
 6338W        W22412  11.253  17.174   4.967  0.0472 -0.0080 -0.1517
 6339W        W22413   6.082   4.548  15.210  0.0184  0.0677  0.3314
 6340W        W22414   8.734  14.438  14.653  0.1280 -0.0139  0.2772
 6341W        W22415   0.336   2.454   3.420 -0.0598 -0.0672 -0.0658
 6342W        W22416   2.982   8.985  12.052 -0.0795 -0.2843 -0.1138
 6343W        W22417   0.988   5.343   3.405 -0.0265 -0.1068 -0.3154
 6344W        W22418  16.562   9.749  13.614 -0.1635 -0.0003 -0.1659
 6345W        W22419   1.191   6.012  13.484 -0.1373  0.1889  0.1875
 6346W        W22420   9.423   8.714  12.237 -0.1448 -0.2890  0.0054
 6347W        W22421  11.680   0.936  16.255  0.0008  0.0950  0.1098
 6348W        W22422  12.835   8.073   5.482 -0.0772  0.0126  0.2734
 6349W        W22423   6.515  15.362   4.606 -0.0481  0.2189  0.0871
 6350W        W22424   6.523   9.920  14.791 -0.1448  0.1605  0.2115
 6351W        W22425  10.106   7.411   0.700  0.0345  0.1738  0.0077
 6352W        W22426  15.909   0.071   1.042  0.1463  0.3317  0.1828
 6353W        W22427  10.372   5.140  12.542 -0.2304 -0.0033 -0.2752
 6354W        W22428   7.335   1.258  11.437 -0.1287  0.2340 -0.2291
 6355W        W22429  10.645  14.210  14.996  0.2893  0.0907  0.0426
 6356W        W22430   3.093  15.811  13.091 -0.1387  0.1017  0.0304
 6357W        W22431   4.771  10.000   0.200 -0.1622  0.2497  0.0265
 6358W        W22432  11.473  11.512  13.309 -0.2111 -0.1382  0.0819
 6359W        W22433  16.342   8.583  14.604  0.2753 -0.0838  0.0117
 6360W        W22434  12.041   8.423  13.645 -0.1019  0.2635  0.0798
 6361W        W22435   9.219  16.344   2.131 -0.1557  0.0355  0.2994
 6362W        W22436  17.155   0.233   3.143 -0.1318 -0.2447 -0.0643
 6363W        W22437   0.500   7.263   5.061 -0.0395 -0.1290  0.0053
 6364W        W22438  16.342   6.879   4.874  0.2778 -0.1194  0.2317
 6365W        W22439  13.151  17.296  13.233 -0.0562 -0.0350 -0.3429
 6366W        W22440  16.976   1.482   2.199 -0.3347  0.0812  0.0401
 6367W        W22441  17.543   4.955  12.872 -0.2531 -0.0267 -0.0683
 6368W        W22442  15.344   0.913   3.615  0.0092  0.0188  0.0896
 6369W        W22443   7.107   3.071   1.474  0.0326 -0.1714 -0.1983
 6370W        W22444  14.679  12.834  14.080 -0.3821  0.0916 -0.0277
 6371W        W22445   6.211   8.443  14.350 -0.0110 -0.0104  0.1575
 6372W        W22446  11.110   9.277  13.835 -0.0858  0.2982 -0.1428
 6373W        W22447  14.172   0.631  14.306  0.0670 -0.0702 -0.1283
 6374W        W22448  16.011  11.254   0.958 -0.1547  0.0769  0.0700
 6375W        W22449   9.927   7.981  13.381 -0.0817 -0.2577  0.1654
 6376W        W22450  16.400  16.388   2.529 -0.2343  0.2169 -0.1317
 6377W        W22451  14.848  12.173   4.225  0.0231  0.0084  0.1282
 6378W        W22452  16.268   6.139   1.120  0.3149 -0.0037 -0.0935
 6379W        W22453  17.449  10.390   3.149  0.1798 -0.2156  0.0970
 6380W        W22454   6.299   6.119  16.891 -0.2016  0.2020  0.1176
 6381W        W22455   2.804   8.087   0.557  0.1764  0.0337 -0.0403
 6382W        W22456  15.695   1.071  16.082  0.0378 -0.0598 -0.0262
 6383W        W22457   2.757   8.324   5.645 -0.5645  0.0033  0.0420
 6384W        W22458  13.408  12.721  14.031 -0.3243 -0.0275  0.2432
 6385W        W22459   4.974  14.729   5.507 -0.0394 -0.0757 -0.0737
 6386W        W22460   4.918   0.523  13.956  0.0509 -0.0811 -0.1937
 6387W        W22461  12.733   7.102  16.064 -0.1044  0.0679  0.1689
 6388W        W22462   3.328  16.968   0.212  0.4175 -0.1174  0.1503
 6389W        W22463  11.684   1.388   3.110  0.0505 -0.2910  0.0667
 6390W        W22464  13.159  16.283   4.177  0.1882  0.1573  0.2284
 6391W        W22465   5.844   7.155  12.483  0.0203 -0.3829 -0.1394
 6392W        W22466   4.665   6.342  14.906  0.0469  0.1025  0.0599
 6393W        W22467  13.651  12.580  13.554  0.3205  0.2759  0.0971
 6394W        W22468  10.240   3.037  14.806  0.2902  0.0377  0.2681
 6395W        W22469  16.188   8.962   1.123 -0.1129 -0.0458  0.1051
 6396W        W22470   4.258  14.341  14.038  0.0703  0.1213 -0.1106
 6397W        W22471  17.530  10.113   3.682 -0.0798 -0.0480 -0.0322
 6398W        W22472   2.951   5.770  16.420  0.0021 -0.0948 -0.2851
 6399W        W22473   2.111   9.793   3.722 -0.0166 -0.0234 -0.3034
 6400W        W22474   5.615   4.764  15.400 -0.2572 -0.0033 -0.0293
 6401W        W22475  15.984  10.540  16.498 -0.0457  0.2420  0.1478
 6402W        W22476   0.572  11.786  12.592 -0.0386 -0.0572  0.1768
 6403W        W22477  13.219  13.758  16.102 -0.0820 -0.0304 -0.0075
 6404W        W22478   8.295  14.104  12.148  0.4212  0.0554  0.1720
 6405W        W22479   2.505  10.210  16.280 -0.0102  0.2734 -0.0221
 6406W        W22480   1.104  13.545  15.571 -0.1939  0.0724 -0.4040
 6407W        W22481  11.280   7.804   5.430 -0.1414 -0.2887  0.2554
 6408W        W22482   8.963  11.486   3.997  0.0193  0.0963  0.0323
 6409W        W22483   3.321   6.724   0.498 -0.1421 -0.0305 -0.4414
 6410W        W22484  17.028   8.108   1.546  0.0958  0.0179 -0.0499
 6411W        W22485   6.325   3.616   2.527  0.0844  0.1538  0.3009
 6412W        W22486   6.676   4.957  16.128  0.0118 -0.2576 -0.3041
 6413W        W22487  10.608   9.581   5.896  0.0033 -0.2576  0.2766
 6414W        W22488   0.804   2.533   3.345 -0.0750 -0.2405  0.4060
 6415W        W22489  14.938  16.369  15.204  0.1321 -0.1761 -0.1668
 6416W        W22490  15.630   9.993  14.742 -0.0287  0.2807 -0.2164
 6417W        W22491   0.773   7.388   5.524 -0.0890 -0.0345 -0.0098
 6418W        W22492   2.750   8.342  13.431  0.1148 -0.1834 -0.0983
 6419W        W22493  12.091  13.748  14.561  0.0320 -0.1274  0.0505
 6420W        W22494  11.099   1.802   6.326 -0.0814 -0.2820 -0.0061
 6421W        W22495   7.708   3.354  16.807  0.0261  0.0256 -0.1120
 6422W        W22496  17.557  17.481   4.158 -0.4976 -0.0354 -0.0823
 6423W        W22497   1.031   7.585  15.498 -0.1291  0.0976  0.2485
 6424W        W22498   0.045  11.777  15.290  0.1458  0.0388 -0.1986
 6425W        W22499   8.119  12.390  15.573 -0.2839 -0.0120  0.1946
 6426W        W22500   9.770   6.129   5.438 -0.1804  0.0472 -0.2269
 6427W        W22501   4.495   7.038   1.042  0.2932  0.0936 -0.1511
 6428W        W22502   4.153   9.432   3.237  0.0221 -0.1234 -0.1545
 6429W        W22503  16.200   7.605   3.768 -0.0852  0.3366 -0.0204
 6430W        W22504  16.142  15.810   3.113  0.0259 -0.2600  0.0944
 6431W        W22505  10.812  15.520   5.479  0.0374 -0.0286  0.0320
 6432W        W22506  13.547  16.709   1.681 -0.2711 -0.0513  0.0619
 6433W        W22507  10.590   4.445  14.215 -0.2329  0.0603  0.0523
 6434W        W22508   7.996   7.430   3.036  0.0006  0.3732  0.0541
 6435W        W22509   0.703   5.970   0.526 -0.1703 -0.1633 -0.0571
 6436W        W22510   3.009   7.409   1.096 -0.2154 -0.6228 -0.1548
 6437W        W22511  17.323   8.192   5.310 -0.1381 -0.1828  0.1853
 6438W        W22512   0.986  14.291   3.241  0.0458  0.2251  0.1979
 6439W        W22513  10.943   8.453   2.104 -0.2610  0.2236  0.0345
 6440W        W22514  16.200   6.619   5.265  0.1048  0.0305 -0.0966
 6441W        W22515  17.308  10.718   4.936  0.0241 -0.1427 -0.1224
 6442W        W22516   3.486  17.387   5.650 -0.1730 -0.3401 -0.0834
 6443W        W22517   6.228  14.822   2.524 -0.0018  0.0523  0.0807
 6444W        W22518   3.545  15.693   1.696 -0.3599 -0.0667 -0.2646
 6445W        W22519  15.112   8.551   1.437  0.0598 -0.2885  0.3415
 6446W        W22520   3.090  14.554   0.076  0.2510  0.1515  0.1491
 6447W        W22521   1.591   9.037   2.964 -0.0006 -0.0404  0.0909
 6448W        W22522   5.233  12.033  12.944 -0.0323  0.0483 -0.0685
 6449W        W22523  12.442   2.064   3.140 -0.1159  0.1200 -0.0219
 6450W        W22524   6.965  12.892   1.654  0.0924 -0.0132  0.1765
 6451W        W22525  14.788   6.277  15.536 -0.3138  0.1933 -0.0654
 6452W        W22526   5.345   1.657   3.210 -0.0082 -0.0031  0.2135
 6453W        W22527  14.624  16.261   4.511  0.2426  0.1004  0.0109
 6454W        W22528  15.105   2.841  13.770  0.0767  0.0301 -0.0925
 6455W        W22529   6.729  14.238   0.312  0.0278 -0.1925  0.3114
 6456W        W22530  11.922   7.336  14.344 -0.0973  0.1077 -0.2032
 6457W        W22531   9.699  14.328  11.612 -0.0210  0.1716  0.1407
 6458W        W22532  14.088  14.781  14.396 -0.2753  0.2748  0.2099
 6459W        W22533   0.052   3.058  14.957  0.0478 -0.0614 -0.1432
 6460W        W22534   3.955  11.789  11.555  0.0337  0.0754 -0.1064
 6461W        W22535  11.551  16.438   1.374  0.2330 -0.0457 -0.0347
 6462W        W22536   1.637  10.782  12.623 -0.0636  0.1859 -0.2370
 6463W        W22537   1.112  13.301   4.801 -0.0033 -0.2883  0.1985
 6464W        W22538   9.635  16.994   0.620 -0.1513  0.1337 -0.1471
 6465W        W22539  15.985   0.029  16.152  0.0222  0.0641  0.1847
 6466W        W22540  11.186   0.199   0.175  0.3701 -0.1214  0.0734
 6467W        W22541  10.354  12.804   1.809  0.1022  0.0180 -0.0776
 6468W        W22542  12.794  17.103   2.426  0.1795 -0.1494 -0.0975
 6469W        W22543  12.562   8.128   5.042  0.0216  0.0906  0.2536
 6470W        W22544   2.986   8.591  15.857  0.4166  0.3289  0.0027
 6471W        W22545  14.183   9.847   0.355  0.3427  0.0629  0.0644
 6472W        W22546   8.951   7.489  12.483 -0.0337  0.2549  0.2559
 6473W        W22547  12.539  13.339   1.599 -0.2042 -0.1042 -0.3070
 6474W        W22548   9.279  11.739  15.902  0.2139  0.0404  0.0335
 6475W        W22549  16.402   5.412  11.668  0.1706 -0.1359 -0.3195
 6476W        W22550  16.272  12.460   2.168  0.1076 -0.0365 -0.1585
 6477W        W22551   2.196   4.211   1.677 -0.2333  0.2147 -0.0252
 6478W        W22552  10.707   8.570   1.013  0.2492 -0.1203  0.1578
 6479W        W22553   8.002  16.351  12.945  0.1101  0.1520  0.1036
 6480W        W22554   6.438   8.878  14.566  0.2639  0.0075 -0.1190
 6481W        W22555   6.091   9.695   2.960 -0.1657 -0.0021 -0.2467
 6482W        W22556   8.372  12.209  16.768  0.1541  0.0272  0.0657
 6483W        W22557   3.948   8.961   3.428  0.1807 -0.1743 -0.0622
 6484W        W22558   4.681   8.578   0.620 -0.3319 -0.0467 -0.2062
 6485W        W22559  14.066   5.243   0.300 -0.1121 -0.0087  0.1460
 6486W        W22560   6.208  10.821  15.598 -0.2183 -0.0294  0.0814
 6487W        W22561  16.725  14.309   1.648 -0.2452  0.0009  0.4089
 6488W        W22562   7.877  15.585  11.924 -0.0022 -0.2697  0.4462
 6489W        W22563   4.410   9.546   3.667  0.1479 -0.0411 -0.1023
 6490W        W22564  16.607  10.106   5.442 -0.3034 -0.0541  0.1592
 6491W        W22565   3.167   3.274   1.961 -0.2631 -0.2269  0.1827
 6492W        W22566   5.810  16.748   2.193  0.1669  0.1547 -0.0367
 6493W        W22567   7.768   1.144  12.873 -0.1699  0.2145  0.0417
 6494W        W22568  15.095   4.749   5.370  0.0985  0.2572 -0.0225
 6495W        W22569  17.297  15.558  14.587 -0.3077  0.0469 -0.3616
 6496W        W22570  15.415  14.421   4.405 -0.1894 -0.0705 -0.2144
 6497W        W22571   8.988   5.224  15.301  0.0896  0.0436 -0.0248
 6498W        W22572   5.398   2.115   0.419 -0.1368  0.1049  0.0385
 6499W        W22573  11.748  13.121  14.153  0.0826  0.1575  0.1148
 6500W        W22574  16.344  12.679  14.530 -0.1974  0.1248 -0.1596
 6501W        W22575   0.382   8.511   4.839  0.1658 -0.2850 -0.3625
 6502W        W22576   4.373  17.111  12.093 -0.2388 -0.0139  0.0872
 6503W        W22577   6.248  13.461  15.988 -0.1939 -0.2911 -0.2109
 6504W        W22578   4.059   8.430   1.264 -0.3633  0.0413  0.0665
 6505W        W22579   8.343   6.025   1.370  0.2107  0.1789 -0.4289
 6506W        W22580  13.569   1.539   3.242  0.1205  0.2311  0.3219
 6507W        W22581  10.153   2.300  16.641 -0.3394  0.0887 -0.1197
 6508W        W22582   4.958  17.240   3.848 -0.1663 -0.0814 -0.0176
 6509W        W22583  16.932   6.431  13.359 -0.2607  0.1795 -0.3483
 6510W        W22584  13.574   7.990  13.061 -0.1992  0.2412  0.1863
 6511W        W22585   9.327   5.740   5.114  0.0208 -0.3205  0.0032
 6512W        W22586  16.434  16.839   2.710 -0.0304  0.0420 -0.3993
 6513W        W22587   3.973   3.882   0.979 -0.2142 -0.2922 -0.1952
 6514W        W22588  11.161  13.778   3.099  0.1765  0.1680  0.2010
 6515W        W22589   3.299   0.906  12.512 -0.0561  0.0050  0.0959
 6516W        W22590   6.053   8.399  15.369 -0.1169 -0.0115 -0.1580
 6517W        W22591   1.803  17.677  12.053  0.2960 -0.2799  0.0366
 6518W        W22592  13.232   2.158   2.526 -0.0669 -0.0386  0.1284
 6519W        W22593  16.825   9.409  16.725  0.1537  0.3665  0.0413
 6520W        W22594  10.430  11.179  15.879  0.0917 -0.0410  0.0723
 6521W        W22595   1.472   2.649  11.254  0.0759  0.0961 -0.4669
 6522W        W22596   3.387  17.460  13.017 -0.1294  0.0289 -0.2407
 6523W        W22597  10.869  14.410   1.463 -0.1881  0.0944  0.3164
 6524W        W22598   0.492   7.329   4.023 -0.2679  0.0448 -0.0684
 6525W        W22599  17.016   3.793   2.359  0.0342 -0.0042  0.2027
 6526W        W22600  15.726  15.506   5.516  0.0676  0.1449 -0.3086
 6527W        W22601  16.365   0.997  16.501  0.3858  0.0347  0.2328
 6528W        W22602   6.821   9.893  12.064  0.0924 -0.0565 -0.1679
 6529W        W22603   8.157   2.977   1.043  0.2661  0.1111 -0.0576
 6530W        W22604   3.178  15.383   1.275 -0.2453 -0.1146 -0.0091
 6531W        W22605  12.929   0.906  14.327  0.1172 -0.0186  0.1946
 6532W        W22606   3.945   1.710  13.634  0.0318  0.1949  0.2466
 6533W        W22607  17.532   1.770   3.482 -0.0493  0.0489 -0.3227
 6534W        W22608   7.833  11.966   3.086  0.1038 -0.2556 -0.0826
 6535W        W22609  11.373  14.176   2.341  0.1218  0.0075 -0.0130
 6536W        W22610   5.686   5.821  13.646 -0.0092  0.4238  0.0747
 6537W        W22611   4.926   2.778  13.468  0.2019  0.0892 -0.0295
 6538W        W22612   4.048   2.140   1.042  0.1657  0.0149 -0.2316
 6539W        W22613   7.448   9.138  15.659 -0.2354 -0.1004 -0.4368
 6540W        W22614  17.596  11.276   3.314  0.1256 -0.0987 -0.0820
 6541W        W22615   6.192   3.674  12.733  0.0821 -0.2245  0.0242
 6542W        W22616   7.218   5.951   5.312 -0.2644 -0.2388  0.2800
 6543W        W22617   5.431   8.693  12.769 -0.1917  0.1195  0.1231
 6544W        W22618  15.560  17.146   3.701  0.0776 -0.0236  0.2048
 6545W        W22619   5.279  14.948   0.187 -0.1353  0.3322 -0.0971
 6546W        W22620  17.337   0.237   4.582 -0.0507 -0.1432 -0.2794
 6547W        W22621   9.332  12.032   3.330  0.0279 -0.0436 -0.1563
 6548W        W22622   4.673  14.339   0.493 -0.1286 -0.2458  0.2507
 6549W        W22623   4.829  10.316   0.726 -0.1224 -0.0071  0.3612
 6550W        W22624   7.638   1.958  16.361 -0.1008 -0.1295 -0.2113
 6551W        W22625  17.541   3.583   6.294 -0.3270  0.0233  0.0544
 6552W        W22626  13.836  16.078   3.197 -0.0571  0.0693 -0.0538
 6553W        W22627   2.338   0.134  11.576  0.0685 -0.1150  0.0116
 6554W        W22628  13.626  15.002  16.684  0.2602 -0.0730  0.2939
 6555W        W22629   8.695  10.994   3.197 -0.0168  0.1936  0.0471
 6556W        W22630   1.347  10.612   4.332 -0.3884  0.0120  0.1409
 6557W        W22631   2.560   2.294  12.405 -0.0251  0.2867  0.1952
 6558W        W22632   1.393  16.737  15.702 -0.0451 -0.0031  0.3987
 6559W        W22633   5.707   1.379  11.540 -0.0011  0.0762 -0.1620
 6560W        W22634  10.452   1.027   2.835  0.2115 -0.1886  0.1836
 6561W        W22635   7.082  17.686  11.686 -0.0655 -0.1439 -0.0365
 6562W        W22636   7.264  11.091  12.453  0.1804 -0.2347  0.1486
 6563W        W22637   9.597   9.936   0.285 -0.0311  0.0273  0.0393
 6564W        W22638  15.126  15.549  15.435  0.1915 -0.1918  0.1222
 6565W        W22639  14.956   6.635  15.240  0.1993  0.0459  0.2574
 6566W        W22640   6.942   8.923   4.032 -0.0969  0.0020 -0.0313
 6567W        W22641   8.848   0.704   4.489  0.1445 -0.1598 -0.0251
 6568W        W22642   3.848   6.785   2.317 -0.1352 -0.2937  0.0073
 6569W        W22643   1.650  13.959  15.110 -0.2361 -0.0431 -0.0786
 6570W        W22644  15.426  16.768  14.915  0.2097 -0.0413 -0.2378
 6571W        W22645  13.467  13.563  14.406  0.0803 -0.1565 -0.3003
 6572W        W22646  15.051   4.712   3.442 -0.1397 -0.0053  0.0485
 6573W        W22647  15.131   6.326   5.366 -0.3269  0.0993 -0.3103
 6574W        W22648  15.676  11.986  13.024  0.0871  0.1715  0.1626
 6575W        W22649   0.403   5.272  11.994  0.0729 -0.1664  0.3361
 6576W        W22650  14.541   7.165   4.595 -0.3081 -0.1661 -0.0362
 6577W        W22651  16.752   1.157   0.936 -0.1629 -0.1123 -0.0879
 6578W        W22652  12.704  16.605   3.059  0.1465  0.0523  0.1594
 6579W        W22653  15.723  14.173   5.217  0.0582 -0.1504 -0.4685
 6580W        W22654   9.417   1.172  13.075 -0.0318  0.0497 -0.0361
 6581W        W22655  16.676  11.716   1.080  0.0292  0.2474  0.0682
 6582W        W22656   9.833   9.948  11.553 -0.0127 -0.4993  0.3490
 6583W        W22657   9.357   8.821  13.049  0.0118 -0.0089 -0.1968
 6584W        W22658   8.139   6.543   0.453  0.2107  0.2450 -0.1328
 6585W        W22659  15.231   7.381  16.373  0.0318  0.0499 -0.0904
 6586W        W22660   9.083   9.183  12.970 -0.2467  0.0380 -0.2472
 6587W        W22661  16.177  14.133   5.488 -0.0377  0.0188 -0.1437
 6588W        W22662  16.450  16.872   5.854  0.3038 -0.1253 -0.3392
 6589W        W22663   6.868  17.823  12.553 -0.1264 -0.2064 -0.0470
 6590W        W22664   3.397   5.982   4.629 -0.1661  0.1936 -0.0396
 6591W        W22665   6.569   7.606   3.885 -0.2356 -0.4585  0.1973
 6592W        W22666   2.443   1.790  14.219  0.1847  0.1746 -0.1001
 6593W        W22667  12.550   6.329   3.846 -0.0635 -0.0593  0.1127
 6594W        W22668  11.300  11.675   0.082 -0.0083  0.1749 -0.2622
 6595W        W22669   7.537   6.285   1.707  0.0129 -0.1671 -0.3305
 6596W        W22670  14.642   0.259  14.962  0.2823 -0.0049  0.2524
 6597W        W22671  16.102   4.052  13.041  0.1654  0.0315 -0.0588
 6598W        W22672  12.273   0.221  12.433  0.0426 -0.0067 -0.3307
 6599W        W22673  17.599  14.570  12.041 -0.1054  0.0857 -0.0274
 6600W        W22674  17.692  12.443  16.348 -0.1832 -0.0782  0.0217
 6601W        W22675  12.205   7.684   1.429  0.0748  0.0211 -0.1140
 6602W        W22676   5.609   7.701   4.324 -0.0566  0.1913 -0.2320
 6603W        W22677  11.371   8.048   0.911  0.2419  0.0801  0.2245
 6604W        W22678  11.977  11.972  15.008 -0.0878  0.0899 -0.0815
 6605W        W22679  12.461   5.643   2.164 -0.2476  0.0589  0.2105
 6606W        W22680   2.781  12.684   0.280 -0.0711  0.0745  0.0286
 6607W        W22681  11.584   6.310   0.489  0.0743  0.1921 -0.1252
 6608W        W22682  17.516  12.290   0.137  0.0339  0.0902  0.1157
 6609W        W22683   9.208  17.216   2.967 -0.1410  0.0033  0.4150
 6610W        W22684  16.151   9.909   3.265 -0.0004 -0.1535  0.0364
 6611W        W22685  16.521  12.874  12.647 -0.2231  0.0391  0.1735
 6612W        W22686   4.136   1.516   3.849 -0.1889  0.0127 -0.0735
 6613W        W22687   6.486   9.507  15.524  0.0510 -0.0735  0.4074
 6614W        W22688   5.688   1.303  12.058 -0.2085  0.2857 -0.0691
 6615W        W22689  12.706   5.180   0.831  0.0441  0.0419  0.0059
 6616W        W22690  10.545   4.872   0.496  0.1243 -0.1305  0.0011
 6617W        W22691   5.741  13.355   1.543  0.0247 -0.0199  0.0954
 6618W        W22692   6.244  10.319   5.299  0.0063 -0.0633  0.0492
 6619W        W22693  12.114   9.568  12.195 -0.1404  0.2194  0.0272
 6620W        W22694  10.167   4.695   3.256  0.0122  0.2000 -0.0272
 6621W        W22695   2.735   5.647  14.083 -0.0176 -0.1072 -0.1196
 6622W        W22696  10.246  16.727   3.013  0.2444  0.4588  0.0906
 6623W        W22697   2.996   7.152   0.610 -0.2847 -0.1460  0.1922
 6624W        W22698   2.057   1.619   5.158  0.1111 -0.0449  0.0132
 6625W        W22699  15.075   6.958   4.055  0.0434  0.0055 -0.1106
 6626W        W22700  17.506   9.764  16.279 -0.2018  0.0540 -0.1289
 6627W        W22701  16.807   1.853  16.876 -0.0558 -0.0377 -0.1797
 6628W        W22702  13.858   3.911   0.755 -0.1874 -0.0021 -0.0536
 6629W        W22703   7.433   9.075  11.951  0.0080 -0.3970  0.0249
 6630W        W22704  16.652   9.293   0.483 -0.2081 -0.0622 -0.1199
 6631W        W22705  16.884   5.116   3.018 -0.2151 -0.1313  0.1582
 6632W        W22706  15.387  14.200  11.053  0.0058 -0.2360  0.1843
 6633W        W22707  11.474   2.251  14.199  0.0804  0.0986  0.2030
 6634W        W22708   7.033  15.067  14.991 -0.1222  0.2547 -0.1138
 6635W        W22709   6.650   7.129   1.835 -0.1863  0.2478  0.4644
 6636W        W22710   3.694   1.476  13.290 -0.1082  0.2220 -0.1076
 6637W        W22711  15.379   8.136   0.242  0.2263 -0.0051 -0.0430
 6638W        W22712  12.108  11.654   3.504 -0.3451  0.1200 -0.1345
 6639W        W22713   0.184   6.382  15.806 -0.0777 -0.2244  0.2302
 6640W        W22714   1.251   4.118   6.225 -0.2081 -0.2250  0.1190
 6641W        W22715  13.794   6.170   3.309  0.3229 -0.1690  0.0051
 6642W        W22716  11.161   3.207   0.149  0.3495 -0.0483 -0.2667
 6643W        W22717  12.036   7.260  15.878 -0.0212 -0.0044 -0.1351
 6644W        W22718  11.011   9.667   0.086  0.2446  0.0689  0.0517
 6645W        W22719   2.004   6.551  12.193  0.1625  0.1321 -0.1360
 6646W        W22720  10.544   8.800  16.665 -0.0403  0.1997  0.0363
 6647W        W22721   1.084   2.663   5.427  0.2697 -0.1128  0.0542
 6648W        W22722  13.216  16.206   5.647  0.0891 -0.1832 -0.0797
 6649W        W22723  15.640  13.142   1.605  0.4349 -0.2947 -0.0312
 6650W        W22724   8.550   0.006   3.664  0.0067 -0.1600 -0.0203
 6651W        W22725   2.687   9.109   6.121  0.1267 -0.0346  0.0999
 6652W        W22726   8.213   9.687  15.532  0.1658  0.2768 -0.2701
 6653W        W22727   4.882   5.028   3.530  0.1605  0.1716 -0.3106
 6654W        W22728  11.373  11.728   2.771  0.1432 -0.1147  0.3198
 6655W        W22729   2.305  16.147  16.390 -0.3025  0.0653 -0.0857
 6656W        W22730   2.382   6.864   5.164 -0.1992  0.0096  0.1604
 6657W        W22731  14.161  15.303  14.972  0.2695 -0.2165 -0.0433
 6658W        W22732   9.401   8.365   4.432  0.2920  0.2797  0.0592
 6659W        W22733  14.092   3.068  16.559  0.0903 -0.2833 -0.1166
 6660W        W22734  10.696   5.486  13.977 -0.3635 -0.0344  0.0122
 6661W        W22735   5.489  10.014   5.781 -0.2350  0.0404  0.0544
 6662W        W22736   9.372   1.960   2.214  0.2772 -0.0243  0.0209
 6663W        W22737  16.079  12.933  16.724 -0.1000 -0.1068 -0.0318
 6664W        W22738  11.676  15.820   1.494 -0.0813 -0.2256  0.1663
 6665W        W22739  16.954   0.551   5.559 -0.0097  0.0021  0.3205
 6666W        W22740  11.134   4.940   5.954  0.1335 -0.0822 -0.1048
 6667W        W22741   6.824   7.356  16.754  0.2654 -0.0667 -0.3369
 6668W        W22742  13.744  16.247   1.653 -0.0969  0.0746  0.0048
 6669W        W22743  11.454  10.547  13.635 -0.0202 -0.0704  0.1404
 6670W        W22744   1.155   7.641   5.389 -0.0311 -0.1315 -0.3335
 6671W        W22745   3.085  13.639  14.045  0.0107 -0.2885  0.0493
 6672W        W22746   4.992  10.615  12.874 -0.1286 -0.0535  0.0473
 6673W        W22747   8.118   4.170   2.695  0.2594 -0.3253  0.1478
 6674W        W22748  11.751   7.481   1.393  0.1544  0.1209  0.3812
 6675W        W22749   2.711   0.419  15.926 -0.3842 -0.0389 -0.0606
 6676W        W22750   6.450   8.385  14.765  0.0724 -0.3682 -0.1024
 6677W        W22751  12.912  16.470   1.120 -0.1613 -0.0008  0.1195
 6678W        W22752   4.508  12.145   3.058  0.1271  0.1510 -0.0406
 6679W        W22753   8.706  14.528  12.634 -0.0146  0.1782 -0.0524
 6680W        W22754   0.157  11.330  15.552 -0.1006  0.0028  0.0464
 6681W        W22755   9.277   5.993   0.806  0.2975  0.1247 -0.3391
 6682W        W22756   6.960   4.667   1.051  0.1182 -0.1143 -0.0570
 6683W        W22757   9.548   1.510   0.356 -0.0224 -0.0148  0.0555
 6684W        W22758  12.935   5.714   4.468  0.1750  0.1365 -0.1432
 6685W        W22759  10.780  13.036  16.726  0.2586 -0.1925  0.3627
 6686W        W22760  16.702  10.606   0.961 -0.0234 -0.1128  0.3738
 6687W        W22761   0.151  13.479   4.586  0.0890 -0.3112  0.1756
 6688W        W22762   2.891   7.361   4.377  0.0340 -0.0734  0.0994
 6689W        W22763   4.845   2.566   3.894  0.0638 -0.1207  0.1469
 6690W        W22764   9.776   3.978  12.727  0.4274  0.4215  0.0587
 6691W        W22765   3.914  10.610   1.597 -0.0883  0.2221 -0.0381
 6692W        W22766   1.638  15.132  11.822  0.1188 -0.0302 -0.0763
 6693W        W22767   9.609   0.361  15.600  0.0929  0.2792 -0.2191
 6694W        W22768   4.466  12.987  12.295  0.2939  0.0949 -0.1126
 6695W        W22769   7.091   9.332   1.083  0.0851  0.1013 -0.0912
 6696W        W22770  12.054   2.746   3.031 -0.0875 -0.1410 -0.0292
 6697W        W22771  15.213   7.682   0.377  0.0048  0.1042  0.0208
 6698W        W22772  15.248   2.788   4.453  0.3374  0.1032  0.0029
 6699W        W22773  12.683  11.747  14.290 -0.0479  0.2018  0.0884
 6700W        W22774   1.260   5.703  12.346  0.2001  0.1746  0.2136
 6701W        W22775  17.818   9.521   3.223  0.3147  0.0125  0.0132
 6702W        W22776   9.521  14.866   4.885 -0.0504 -0.2653  0.2554
 6703W        W22777   0.275   0.002   0.708 -0.0300  0.1358  0.0877
 6704W        W22778  14.620   0.514   6.046  0.2083 -0.1183 -0.0305
 6705W        W22779  13.266   3.450   6.032 -0.1687 -0.0564  0.1915
 6706W        W22780  10.827  13.729   5.775  0.1375  0.0676  0.0479
 6707W        W22781  13.611  10.030   0.175  0.0008 -0.1801 -0.0335
 6708W        W22782   5.190   1.496  13.325 -0.1161  0.1409  0.3877
 6709W        W22783  17.388   8.108  12.446 -0.2208 -0.1459  0.2330
 6710W        W22784  15.528   9.810  16.031 -0.0221 -0.0255 -0.0808
 6711W        W22785  11.323   1.022  14.201 -0.2531  0.0380  0.2091
 6712W        W22786  11.389   1.842  14.528 -0.2781  0.0259 -0.0744
 6713W        W22787   1.987  17.790  15.838  0.2066  0.2685  0.4391
 6714W        W22788   2.388  17.498   4.863 -0.0122 -0.0614 -0.0312
 6715W        W22789  11.680  16.337   0.889  0.0438  0.0446  0.4249
 6716W        W22790   0.777  16.421  13.616  0.1011  0.5629 -0.0950
 6717W        W22791  13.251   7.857  12.073 -0.1462  0.0807  0.1189
 6718W        W22792  11.956  17.188  16.872 -0.2436 -0.0692  0.0710
 6719W        W22793   8.511  10.834   3.875  0.0987  0.1837  0.3989
 6720W        W22794   3.800   7.310   3.135 -0.1254  0.0997 -0.5185
 6721W        W22795  11.649   3.736  12.368  0.3321  0.2003  0.3857
 6722W        W22796   6.009   7.219   4.935 -0.0349 -0.1871  0.0889
 6723W        W22797   6.547   0.519   2.070 -0.0395 -0.0049  0.1288
 6724W        W22798   7.588   4.500   5.434  0.2533 -0.2151 -0.0627
 6725W        W22799  15.109   1.475   4.371 -0.2797  0.2076  0.0716
 6726W        W22800  10.969  12.082  14.429  0.1761  0.0193 -0.1626
 6727W        W22801   1.497   0.550  16.706 -0.0047 -0.0566 -0.1100
 6728W        W22802   6.855  16.661  11.778  0.2196  0.3901 -0.1949
 6729W        W22803   2.107  17.013   0.119 -0.2306 -0.1137  0.1618
 6730W        W22804   2.466  10.367  13.996 -0.0254 -0.0748  0.1085
 6731W        W22805   8.224  16.991  14.235  0.0621 -0.1404  0.0320
 6732W        W22806  15.293   3.437  13.077 -0.1941 -0.2071  0.1209
 6733W        W22807  16.922  12.455  12.257  0.1338  0.0672  0.0703
 6734W        W22808  14.413   5.408  11.655 -0.0458 -0.0706  0.1255
 6735W        W22809   9.317   2.247  13.137  0.0476 -0.2745 -0.2928
 6736W        W22810   3.257   9.791  15.392  0.1508  0.1702  0.0508
 6737W        W22811  12.110   2.080  16.132 -0.0661  0.0293  0.0765
 6738W        W22812  17.099   8.430  13.867 -0.0648  0.5613  0.0259
 6739W        W22813   5.203  13.210  14.089 -0.2191 -0.1855  0.1235
 6740W        W22814  16.110   0.340   3.262  0.0106 -0.0934  0.0064
 6741W        W22815   8.973   5.232  14.708  0.0002  0.0126 -0.0741
 6742W        W22816   3.838   6.375   2.680 -0.1534 -0.3495  0.0900
 6743W        W22817  15.549  11.302   5.034  0.0952 -0.0360  0.2675
 6744W        W22818  13.872  14.626   5.594  0.2003 -0.2710  0.0881
 6745W        W22819   1.289   2.722   1.608 -0.2107  0.0983  0.1542
 6746W        W22820  11.214  15.366   5.130 -0.0862 -0.0296 -0.0650
 6747W        W22821  12.682   6.491  12.074  0.2524  0.0192  0.0351
 6748W        W22822  16.530   4.236   1.379  0.1530  0.0765 -0.3265
 6749W        W22823   7.838  13.695  13.961  0.0104 -0.0615 -0.0453
 6750W        W22824  14.788   4.488   1.029  0.1082  0.0682  0.0372
 6751W        W22825   7.941   4.824   5.962 -0.1349  0.2609 -0.0533
 6752W        W22826  12.275   0.932   0.806  0.0590  0.0154  0.1253
 6753W        W22827   1.989   3.353   1.505 -0.1134  0.0269 -0.2433
 6754W        W22828  16.587   9.559  13.157  0.1297  0.1616  0.0624
 6755W        W22829   2.820   7.974   1.967  0.2927 -0.0847  0.0567
 6756W        W22830  12.348  15.125   2.124 -0.2073 -0.1946 -0.1024
 6757W        W22831  12.856  15.011  16.218  0.3403  0.0074 -0.1635
 6758W        W22832  15.817   2.842  16.544  0.1160  0.0978  0.1262
 6759W        W22833  11.762   5.826  13.120 -0.0119 -0.3647  0.1289
 6760W        W22834   8.725  13.781   0.170  0.2079 -0.1298  0.0773
 6761W        W22835   0.069  11.020  13.040  0.3315  0.1439  0.2589
 6762W        W22836  10.436  11.066  16.375  0.1968  0.1130  0.1055
 6763W        W22837   9.891   5.621  11.845  0.1004 -0.0761  0.1409
 6764W        W22838   4.532   9.990   2.706 -0.1377  0.1940  0.0030
 6765W        W22839   5.949   4.036  15.078  0.1200  0.2900  0.1246
 6766W        W22840   7.611   2.211  11.206  0.1828 -0.1507  0.0889
 6767W        W22841   4.616  15.098   0.565 -0.2284 -0.1817  0.2509
 6768W        W22842  13.133   2.670  13.386  0.0832  0.1603  0.2094
 6769W        W22843   0.077  12.862  13.368 -0.1302 -0.2127 -0.0579
 6770W        W22844   5.057  16.829   4.344  0.3327 -0.1147 -0.0404
 6771W        W22845  15.202  15.412  11.788 -0.0834  0.1093 -0.1753
 6772W        W22846   2.476  17.450   0.054 -0.1091 -0.2953  0.2596
 6773W        W22847  10.227   7.685  14.238 -0.1026  0.2424  0.1195
 6774W        W22848  14.546  11.698   4.284  0.1774  0.0023  0.1352
 6775W        W22849   6.843   0.284   5.550 -0.0372  0.3238 -0.0160
 6776W        W22850   2.613  12.176   5.589 -0.2682 -0.2025 -0.3847
 6777W        W22851  14.001  14.629  13.325 -0.2359  0.2346  0.0610
 6778W        W22852  12.707   2.235   2.303  0.0586 -0.1604  0.0528
 6779W        W22853   2.348   1.417   0.734 -0.1129  0.2860 -0.1534
 6780W        W22854   0.509   6.987   4.338 -0.2586  0.0071  0.2470
 6781W        W22855  11.484   2.608  14.891 -0.1355 -0.1776 -0.3874
 6782W        W22856  12.245  13.772   1.593  0.0198 -0.1855 -0.0655
 6783W        W22857  14.601  15.876   1.352  0.1017  0.1115 -0.2214
 6784W        W22858   8.158  10.096  14.147 -0.1157  0.0400  0.1645
 6785W        W22859   2.166   1.539   2.202  0.0683 -0.0549  0.2033
 6786W        W22860   7.898   6.038  13.201  0.2132 -0.5058  0.0425
 6787W        W22861  16.300  14.039   3.441 -0.0880  0.0487 -0.1225
 6788W        W22862  13.174  14.023   6.074 -0.0843  0.3090 -0.1343
 6789W        W22863  10.548  13.847  13.557  0.1298 -0.0059 -0.1559
 6790W        W22864  11.474  15.263  16.249 -0.0766  0.0906 -0.3132
 6791W        W22865  10.238  15.185   4.130 -0.0061 -0.3956 -0.1157
 6792W        W22866  12.357  14.704   3.796  0.0215  0.0156  0.0567
 6793W        W22867   5.112   1.673   4.028  0.3112 -0.1897 -0.1072
 6794W        W22868   7.218  14.411  13.724  0.1552 -0.3618 -0.0061
 6795W        W22869   5.490  13.648  15.882 -0.0915  0.0741 -0.3840
 6796W        W22870  14.228  11.932   0.172 -0.4260 -0.0971 -0.0252
 6797W        W22871   7.712   8.660  16.669  0.1999 -0.1200  0.3129
 6798W        W22872  10.326   8.507  12.909 -0.0351  0.0619  0.2337
 6799W        W22873   9.563   9.416   0.647 -0.2905 -0.0278 -0.0706
 6800W        W22874   8.989  11.315   5.802  0.4493  0.1527 -0.0084
 6801W        W22875  13.997  12.021   2.003  0.0712  0.0540  0.0190
 6802W        W22876   4.717  12.907   0.728 -0.3321  0.0409 -0.4339
 6803W        W22877   1.108   8.308   6.243 -0.1681  0.1415  0.1309
 6804W        W22878  10.857  16.327  14.835  0.1921 -0.2193 -0.1094
 6805W        W22879  12.719   9.584  16.402 -0.1150 -0.1861 -0.0594
 6806W        W22880  11.342   8.783  13.780  0.1073 -0.4603  0.1728
 6807W        W22881   5.830   8.955   6.567  0.0132 -0.3145  0.0293
 6808W        W22882  14.079  14.087   1.873  0.1056  0.2746 -0.1123
 6809W        W22883  15.275  17.285  14.883 -0.3961  0.0846 -0.1286
 6810W        W22884  11.557  14.582  16.579 -0.1000 -0.1515 -0.1740
 6811W        W22885  11.400   8.296   3.792  0.0223 -0.2113  0.2424
 6812W        W22886   4.466  11.130   2.378  0.0553 -0.1273 -0.0667
 6813W        W22887   9.587   3.631  14.128 -0.0334  0.0867 -0.0478
 6814W        W22888   5.751   3.719   1.802  0.1893 -0.1718  0.1388
 6815W        W22889  15.488  12.238   3.042 -0.0567  0.0609 -0.0457
 6816W        W22890   1.982  16.836   4.136  0.0972 -0.0085  0.1949
 6817W        W22891  14.528  15.869   4.870 -0.0019  0.2460  0.0078
 6818W        W22892   3.894   0.542   3.979  0.0654 -0.1376 -0.4218
 6819W        W22893   9.031  11.046  11.779  0.0653  0.0729  0.3602
 6820W        W22894  17.351   1.179  16.499  0.1802  0.1334 -0.0689
 6821W        W22895  15.396   8.221  12.770 -0.0267  0.2501 -0.0792
 6822W        W22896  16.631   4.761  12.767 -0.0396  0.1708  0.0348
 6823W        W22897   9.865   6.390  16.347  0.0340  0.1152  0.0058
 6824W        W22898  14.666   1.964   0.631 -0.0128 -0.1052 -0.3334
 6825W        W22899  11.393   7.138   1.555 -0.2128 -0.1757 -0.1072
 6826W        W22900   4.578   0.266   4.330 -0.0968 -0.1686  0.1894
 6827W        W22901  12.588  12.709   1.110  0.3293  0.0107 -0.1872
 6828W        W22902   1.422   7.071   1.123 -0.0114  0.2002 -0.0722
 6829W        W22903  14.571   9.081  16.653 -0.0962 -0.0640  0.1677
 6830W        W22904  17.190   6.628   6.086 -0.1730  0.2479 -0.2004
 6831W        W22905   2.624   9.569   1.827 -0.0473 -0.0293 -0.0592
 6832W        W22906  11.652  16.262   3.903  0.1159  0.1482  0.0183
 6833W        W22907   4.030  17.790   4.537 -0.0599  0.0522  0.2272
 6834W        W22908  17.323   5.093   1.615 -0.0954  0.1819  0.0891
 6835W        W22909  14.168  14.439   2.231 -0.2410  0.3542 -0.1170
 6836W        W22910  14.355   6.434  12.338  0.4297 -0.0199  0.1116
 6837W        W22911   6.576  10.918  15.865 -0.1860  0.1348 -0.1126
 6838W        W22912  15.494   0.069   4.871 -0.0601 -0.1034 -0.2110
 6839W        W22913   1.883   5.124  14.057 -0.2526  0.0330  0.0172
 6840W        W22914   6.311  14.729  15.940 -0.0171 -0.1168  0.1234
 6841W        W22915   7.835   5.362  15.444  0.3974 -0.0667 -0.0529
 6842W        W22916   5.428  14.785   5.204  0.0865  0.0122  0.1553
 6843W        W22917  11.019  16.260   2.681 -0.0658  0.3315  0.2866
 6844W        W22918   4.717   6.544   0.398  0.1754  0.0564 -0.3158
 6845W        W22919  15.097  14.596   0.719 -0.1711 -0.0565 -0.3358
 6846W        W22920   4.126  17.241   0.818 -0.1548  0.0717 -0.0336
 6847W        W22921  15.052   0.447  15.192 -0.0718  0.0352  0.2157
 6848W        W22922   2.502   3.886  13.337 -0.2785 -0.1424 -0.0362
 6849W        W22923  12.470   4.347  16.203  0.1510  0.0614  0.2750
 6850W        W22924  13.795   6.222   4.280 -0.3021 -0.1925  0.0623
 6851W        W22925   1.347  15.313  15.031 -0.4052 -0.3291  0.4759
 6852W        W22926  12.874   1.258  15.873  0.0230 -0.1388 -0.2635
 6853W        W22927   4.079   6.214  14.417 -0.0714 -0.1710 -0.0114
 6854W        W22928   9.967  12.211  11.378  0.2366  0.1097 -0.3783
 6855W        W22929  17.398   3.917   5.828  0.1875 -0.0385 -0.1781
 6856W        W22930   3.362   9.465   2.603  0.0720 -0.3530  0.1399
 6857W        W22931  13.154   0.488   0.666 -0.0316  0.4737  0.0401
 6858W        W22932   3.229  11.105  16.502 -0.0935  0.0917 -0.0704
 6859W        W22933   7.536   7.496  15.225 -0.0879  0.3070  0.1232
 6860W        W22934   6.357   7.985  13.486 -0.2987 -0.0731  0.0371
 6861W        W22935   3.393   4.427  14.582  0.1149 -0.0449  0.2105
 6862W        W22936   4.365   6.985   1.533  0.2431 -0.0872  0.0598
 6863W        W22937  10.236  10.156  14.043 -0.0271  0.0459 -0.0541
 6864W        W22938   1.147  15.658  14.451  0.3283  0.2877  0.1553
 6865W        W22939  14.533   5.478   4.468  0.0560 -0.4428  0.0178
 6866W        W22940  12.578   0.074  16.443 -0.2346  0.0274  0.0577
 6867W        W22941   2.542   4.966   0.542  0.0143 -0.1060 -0.2179
 6868W        W22942  13.862   7.977  15.922 -0.1522 -0.3762  0.3392
 6869W        W22943  15.694   2.946   4.805 -0.0595 -0.0277  0.1910
 6870W        W22944  16.227  12.326   5.426  0.3818 -0.0017  0.0606
 6871W        W22945  15.576   2.732   3.557 -0.0112 -0.1478  0.1603
 6872W        W22946  15.839   1.744   0.840 -0.0929 -0.2420  0.1151
 6873W        W22947  11.858   3.648   4.446  0.0001  0.0405  0.1543
 6874W        W22948  16.772  12.486   2.415 -0.2548  0.1965  0.1493
 6875W        W22949   8.809   7.737   3.233  0.2229  0.0173 -0.1720
 6876W        W22950   8.187   2.800  13.537 -0.0222  0.0257  0.1940
 6877W        W22951   7.821  17.303  16.182  0.1941 -0.2499  0.0421
 6878W        W22952  12.897   5.965   5.210  0.1247  0.0573 -0.1708
 6879W        W22953   2.840   4.614  14.445  0.0947  0.3254  0.0038
 6880W        W22954   9.606  15.620  11.308 -0.1000 -0.0921  0.1260
 6881W        W22955   1.542   6.031   3.243 -0.0828 -0.3020  0.0762
 6882W        W22956   0.590  10.873   4.972 -0.3069 -0.2284 -0.0983
 6883W        W22957   7.812   0.227   6.226  0.1345 -0.0113 -0.0728
 6884W        W22958   1.408  14.173  16.878 -0.2449  0.1351  0.1290
 6885W        W22959  10.253   7.000   3.017 -0.1603 -0.2785  0.1881
 6886W        W22960   2.199   1.456  12.845  0.3144 -0.1103 -0.1094
 6887W        W22961  16.453  13.329   1.230  0.0338  0.2276 -0.0135
 6888W        W22962  15.604  16.917  16.258 -0.0376 -0.0395 -0.1779
 6889W        W22963  11.205  16.741  11.857 -0.0517  0.0053  0.3257
 6890W        W22964  17.407   8.296   4.688  0.0163 -0.0483  0.1301
 6891W        W22965   0.434   8.541  16.081  0.0955 -0.0731 -0.1132
 6892W        W22966   4.439   5.041   2.850  0.0130 -0.0229 -0.0554
 6893W        W22967   1.385  11.063   4.564  0.0170  0.2841 -0.1098
 6894W        W22968  17.194   9.046   5.497 -0.0963 -0.4117 -0.3078
 6895W        W22969   2.547  16.328  15.557  0.2904 -0.1172  0.1108
 6896W        W22970   3.467   4.186  11.980  0.0703  0.0375  0.0044
 6897W        W22971   2.537   9.105  16.807 -0.1160  0.2920  0.3390
 6898W        W22972   2.020   4.882   5.174 -0.1097  0.1689  0.1919
 6899W        W22973  10.664   0.534   2.950 -0.5180  0.0471  0.1304
 6900W        W22974  12.857   3.570  13.793  0.1726  0.0690 -0.0585
 6901W        W22975   9.888  13.505   0.275 -0.3569  0.1411 -0.2125
 6902W        W22976  14.683  11.454   5.260  0.0830 -0.1357  0.0974
 6903W        W22977  12.392   5.827   1.622  0.1590 -0.1785 -0.2074
 6904W        W22978   7.508   2.590  12.473  0.1441  0.1310 -0.1386
 6905W        W22979   9.223  14.670  14.380 -0.2315 -0.1459 -0.0253
 6906W        W22980   1.391   6.622  14.310 -0.0167  0.2004  0.3239
 6907W        W22981  17.253   9.818   5.734 -0.0093 -0.0029  0.2220
 6908W        W22982  14.241   8.103   4.314 -0.0995  0.0622  0.0160
 6909W        W22983   3.770   9.983  12.484  0.1587  0.1475  0.2067
 6910W        W22984   2.507  12.846  14.688  0.4404  0.1535  0.0106
 6911W        W22985   6.139   7.903  15.530 -0.0404  0.0949 -0.3078
 6912W        W22986  13.303   7.118  12.695  0.1078 -0.2994 -0.0532
 6913W        W22987   8.974  10.315  15.487  0.0101 -0.1278  0.1782
 6914W        W22988  11.039   3.990   4.590 -0.0031  0.1414 -0.1334
 6915W        W22989  14.933  13.049  13.432  0.1552 -0.2237 -0.1782
 6916W        W22990  14.991  12.355   2.793  0.1201 -0.1908  0.0428
 6917W        W22991   9.874  15.940   3.547 -0.0638 -0.2729  0.1332
 6918W        W22992   0.828   4.448  11.310  0.0993 -0.1890  0.1124
 6919W        W22993   8.546  13.901   5.505  0.0660  0.1775 -0.0219
 6920W        W22994   3.494  11.362   4.673 -0.0871 -0.1182 -0.2127
 6921W        W22995   6.610  11.970  16.875  0.1565  0.0664 -0.0406
 6922W        W22996   5.926  14.350  13.587  0.2771 -0.0336  0.0928
 6923W        W22997   8.485  13.526  15.328  0.0425 -0.0514  0.0040
 6924W        W22998  11.716  12.139   2.690 -0.2147  0.2360 -0.1415
 6925W        W22999   7.173  15.279   3.100  0.2649  0.2746  0.0371
 6926W        W23000   9.524   2.552  11.426 -0.1277  0.1472 -0.2918
 6927W        W23001   4.901   2.110   4.046 -0.1006  0.0562  0.0876
 6928W        W23002  16.522   7.663  15.781 -0.0619 -0.1262  0.1329
 6929W        W23003  16.173  14.597   2.104 -0.0531  0.1604 -0.0089
 6930W        W23004   5.258   3.871   1.580  0.0417  0.2560  0.4741
 6931W        W23005  11.695  14.559   2.313 -0.4886  0.0003  0.1394
 6932W        W23006   8.426  10.991   5.035 -0.1609 -0.0355  0.0045
 6933W        W23007   7.075   8.176  16.961  0.0833 -0.1428 -0.0078
 6934W        W23008  17.247   7.803   3.922 -0.1039  0.0495  0.0540
 6935W        W23009  16.630   7.239   2.801 -0.0451 -0.0649  0.2612
 6936W        W23010  15.765  17.786  12.381  0.5103 -0.1183 -0.0293
 6937W        W23011  14.862   1.989  16.955  0.1010  0.0025  0.1095
 6938W        W23012   9.669   9.426   1.856  0.0755  0.1058 -0.3619
 6939W        W23013  16.288   6.288  14.898  0.0485 -0.3852 -0.2723
 6940W        W23014   8.398  11.814   0.207 -0.2186 -0.1570  0.0210
 6941W        W23015   3.690   6.393   4.631 -0.0499  0.0893  0.2375
 6942W        W23016   1.735  11.558  16.019 -0.5378  0.0309 -0.1136
 6943W        W23017   2.108  13.135  14.499  0.2482  0.2969  0.1581
 6944W        W23018   6.493   6.936   2.265  0.0873  0.3117  0.0008
 6945W        W23019  14.880   8.500  14.220  0.0633 -0.0298  0.1867
 6946W        W23020  17.171   0.743  11.843  0.0799  0.0752 -0.0900
 6947W        W23021  17.406   0.445  12.749 -0.0904 -0.0563 -0.0277
 6948W        W23022   6.435   5.196  12.382 -0.0491 -0.1611 -0.1350
 6949W        W23023   6.585   6.762   4.287  0.0380 -0.3949  0.0592
 6950W        W23024  14.109   9.555  16.105  0.1948  0.1123  0.0372
 6951W        W23025   4.001   0.114  12.520 -0.0461 -0.1608 -0.1402
 6952W        W23026   2.245  11.276   5.396 -0.0770 -0.3212  0.1894
 6953W        W23027  14.752   2.981   4.660 -0.0577 -0.0821  0.2807
 6954W        W23028  14.268   7.996   2.466 -0.0000  0.0097 -0.2942
 6955W        W23029   2.073  13.865   5.832  0.0299  0.3662 -0.1375
 6956W        W23030   1.203  15.334   3.372  0.0749  0.0040  0.3560
 6957W        W23031   3.194   9.789  12.732 -0.1425 -0.1285 -0.0548
 6958W        W23032  10.537  11.142  15.384 -0.1447  0.0250  0.1666
 6959W        W23033   8.153  15.518  13.920 -0.0037  0.0665  0.0658
 6960W        W23034  10.586  13.245  15.159 -0.1896 -0.3110  0.0686
 6961W        W23035  15.095   1.088   0.779  0.1414 -0.0319 -0.2900
 6962W        W23036  11.599   9.661   5.166  0.0789  0.1203  0.3520
 6963W        W23037   7.975   4.461   3.602 -0.0230  0.0232  0.4672
 6964W        W23038   5.316  17.847   2.847  0.1906 -0.1791  0.0932
 6965W        W23039   4.412   1.893  13.818 -0.2407 -0.0080  0.0494
 6966W        W23040   0.818   8.654   4.600 -0.1146  0.4376 -0.2213
 6967W        W23041   9.993  17.490  13.946 -0.0333 -0.1997  0.0949
 6968W        W23042  16.850   5.899   1.252  0.0124 -0.1812 -0.2525
 6969W        W23043   0.344   5.533  12.540  0.1760 -0.0066 -0.2493
 6970W        W23044   6.661   2.223   0.800 -0.2078 -0.1691 -0.3206
 6971W        W23045  11.393  13.385  15.100  0.0564  0.1989  0.1948
 6972W        W23046  12.620   1.176  15.196 -0.4124  0.1055 -0.0845
 6973W        W23047  14.526   1.975  12.288  0.2734  0.0926  0.1133
 6974W        W23048   2.100   0.181   2.799 -0.1323  0.1198 -0.1855
 6975W        W23049  15.143   6.242  11.661 -0.0569  0.1785 -0.3092
 6976W        W23050  10.933  15.483   4.001 -0.0538 -0.1653 -0.0768
 6977W        W23051  12.552   9.485   5.512 -0.2802  0.1217 -0.1046
 6978W        W23052  10.234  15.625   5.204 -0.4183  0.0895 -0.0156
 6979W        W23053  11.240   6.412  13.096 -0.0578 -0.0504 -0.2341
 6980W        W23054   3.576   5.218  13.044 -0.2794  0.1103  0.0546
 6981W        W23055   7.154  13.503  13.626 -0.1387 -0.0102  0.2553
 6982W        W23056   7.212   3.309   2.489  0.1030  0.0314 -0.2009
 6983W        W23057   4.927  15.008  14.107  0.0611 -0.0293 -0.0197
 6984W        W23058  13.552   6.791  15.861 -0.0053  0.0874 -0.1688
 6985W        W23059   1.338   4.316   1.427 -0.1863 -0.2205 -0.0183
 6986W        W23060   5.593  13.638  13.274  0.0761  0.1306  0.1117
 6987W        W23061   7.739   7.000   4.512 -0.0509  0.0735 -0.0678
 6988W        W23062   9.716   0.692  14.274 -0.1181  0.0676 -0.1463
 6989W        W23063   2.162  16.956   1.911  0.1212  0.0719  0.2336
 6990W        W23064   7.176  15.302  16.869 -0.1933 -0.3101  0.0333
 6991W        W23065  10.830   7.027   2.482 -0.2703 -0.0591  0.0424
 6992W        W23066  16.622  12.082  11.739  0.2082 -0.1734  0.0271
 6993W        W23067   3.398   4.612   1.305 -0.1101 -0.3617 -0.0846
 6994W        W23068   3.986   5.324   3.053  0.0608 -0.1455 -0.0565
 6995W        W23069  14.148   2.124   0.705 -0.0880  0.1219 -0.1969
 6996W        W23070   1.791   6.947  11.962 -0.1718  0.1630 -0.1137
 6997W        W23071   5.000   6.676  14.517 -0.1743 -0.2097  0.1698
 6998W        W23072   2.466   3.797   3.922 -0.0096 -0.0580 -0.1967
 6999W        W23073   4.822   4.051   1.942 -0.1323 -0.2535 -0.0259
 7000W        W23074   2.561  17.092  12.490  0.1425 -0.1581  0.0790
 7001W        W23075   5.242   7.284   0.503 -0.2829  0.1693  0.1558
 7002W        W23076   2.095  12.680  12.909 -0.1311 -0.2143  0.2433
 7003W        W23077   5.066   4.131  14.483 -0.1358 -0.0340 -0.1274
 7004W        W23078  12.049  10.075   1.726  0.1899  0.0688  0.0798
 7005W        W23079   7.243   8.959  12.820 -0.2153 -0.0956  0.1849
 7006W        W23080   0.757  16.239  15.639 -0.1672  0.1972 -0.3988
 7007W        W23081   8.545   2.131  15.356  0.0961 -0.1883 -0.1905
 7008W        W23082  17.505  17.307   6.188  0.0155 -0.2078 -0.1530
 7009W        W23083  14.112  10.006  16.761  0.0005 -0.2022  0.1171
 7010W        W23084  13.044  13.407   0.062  0.0157 -0.1373  0.2695
 7011W        W23085  13.415  15.395  13.662 -0.1369 -0.0638  0.3820
 7012W        W23086  11.025  10.383   2.412 -0.2409  0.1344 -0.1184
 7013W        W23087   1.733   0.881   1.051 -0.5305 -0.2245 -0.0026
 7014W        W23088   4.764   8.825   4.537 -0.1933 -0.1278 -0.1535
 7015W        W23089   7.690  13.216   2.503 -0.0034  0.0280 -0.4358
 7016W        W23090   3.461   1.351   3.159  0.0884  0.0981 -0.2164
 7017W        W23091  12.881   5.364   6.527  0.2642  0.2028  0.1802
 7018W        W23092   6.616   4.551   3.035 -0.0144 -0.3149  0.0496
 7019W        W23093   9.918   7.957   5.868  0.0721  0.5145  0.0715
 7020W        W23094  11.370   3.149  16.270  0.0442 -0.0842  0.0364
 7021W        W23095   6.009   7.061   5.450  0.1622 -0.2963  0.0059
 7022W        W23096  17.552   5.629   2.010  0.1856  0.0328  0.2472
 7023W        W23097   6.376   3.694  14.083 -0.1243 -0.1508  0.0038
 7024W        W23098  16.460   1.133   1.865  0.0914  0.0852  0.0909
 7025W        W23099  17.071  15.653   3.583 -0.1131  0.0105 -0.2858
 7026W        W23100   7.445   9.748   1.665 -0.1497 -0.2198 -0.1989
 7027W        W23101  16.641   5.043  13.797 -0.1842 -0.0514  0.0641
 7028W        W23102   0.414   3.618   3.108  0.0476  0.0572 -0.2184
 7029W        W23103  17.432  17.652   3.242 -0.1004  0.3389  0.0255
 7030W        W23104   1.415  15.902  11.999  0.0138 -0.4037  0.1177
 7031W        W23105   4.027   9.855   3.539 -0.4199 -0.1384  0.1340
 7032W        W23106  16.506  17.583  16.777 -0.1644 -0.0885 -0.1122
 7033W        W23107   1.013   5.334   3.943  0.0171  0.4027 -0.1429
 7034W        W23108   6.976  11.629   5.060  0.1457  0.1118 -0.0364
 7035W        W23109   6.509  17.670  15.224 -0.1573  0.0696  0.1234
 7036W        W23110  14.336  12.367   0.597 -0.0023  0.1593  0.2102
 7037W        W23111  13.177   1.205  16.285 -0.1818 -0.2397 -0.2961
 7038W        W23112   7.108  15.985  15.421  0.0040 -0.0183 -0.0430
 7039W        W23113  16.004  10.045   0.366  0.1216  0.3617  0.2048
 7040W        W23114   7.446   9.838   4.228 -0.0171 -0.1015 -0.2495
 7041W        W23115   6.646   4.414  12.269 -0.2127 -0.0456 -0.1149
 7042W        W23116   3.213  16.948   3.879  0.2346  0.1390  0.1270
 7043W        W23117   6.492  16.727  16.770  0.0014  0.2554 -0.1882
 7044W        W23118  17.379  11.646  14.210  0.1384 -0.0920 -0.2273
 7045W        W23119   1.112  12.728   1.767 -0.2071  0.0838  0.1749
 7046W        W23120  14.664  16.964  15.535  0.0485 -0.0221  0.0326
 7047W        W23121   5.614  10.579   3.780  0.1443 -0.4727  0.0714
 7048W        W23122  11.211  12.013   1.245 -0.2171 -0.2965 -0.2420
 7049W        W23123   7.445   6.544  12.577  0.6135  0.2552  0.1452
 7050W        W23124  17.473   3.816   2.170 -0.0291  0.1050 -0.2312
 7051W        W23125  16.714   5.533   2.843  0.3151  0.0958  0.0849
 7052W        W23126  17.753   1.790   2.425  0.1508 -0.0792  0.1198
 7053W        W23127   1.975   9.905   5.350 -0.1834  0.1412  0.0698
 7054W        W23128  16.139  10.110   1.976  0.1834  0.1919  0.1796
 7055W        W23129   5.724  12.277   2.471  0.2419 -0.1665  0.0176
 7056W        W23130  15.019   7.583   1.464  0.0118 -0.0927 -0.3386
 7057W        W23131   2.047  13.772  15.297  0.1335 -0.0953  0.0319
 7058W        W23132   0.261   5.290   2.514  0.0549 -0.0966 -0.1882
 7059W        W23133  14.387  16.664   4.296 -0.1872 -0.2037 -0.0134
 7060W        W23134  15.059   6.527   0.008  0.4008 -0.0626  0.0371
 7061W        W23135  17.541  10.904   1.329 -0.2280  0.1817 -0.2268
 7062W        W23136  11.937  11.417   3.934 -0.3218  0.2231 -0.4313
 7063W        W23137   8.516  15.328  11.703  0.0719  0.2083 -0.3055
 7064W        W23138   9.945  11.151  16.081 -0.1978 -0.0237 -0.1256
 7065W        W23139   6.014   2.340  14.067  0.1682  0.2702 -0.0529
 7066W        W23140   3.174  12.790   4.565 -0.3056 -0.0343  0.1236
 7067W        W23141  15.913  14.579  16.001 -0.3072 -0.0252 -0.1119
 7068W        W23142   5.456  11.519   0.127 -0.1460 -0.1377 -0.3506
 7069W        W23143  14.201  12.701   5.619 -0.1312  0.1245  0.0197
 7070W        W23144  13.873   8.813   0.962 -0.0970  0.1615 -0.1321
 7071W        W23145  11.334   3.368   2.806 -0.1557 -0.1163  0.1471
 7072W        W23146   4.568   7.249  13.751 -0.3186  0.0697  0.1143
 7073W        W23147   4.954   7.668  16.421 -0.0247 -0.0699  0.1106
 7074W        W23148   6.154   1.568   1.842 -0.1659  0.0305 -0.0852
 7075W        W23149   4.255  16.058  16.590 -0.1053  0.2896  0.6219
 7076W        W23150   6.809  10.519   2.655  0.4087 -0.3554  0.0620
 7077W        W23151  11.068  10.828   1.485  0.0989 -0.4439 -0.0997
 7078W        W23152  10.279  12.162   1.327  0.0629 -0.0287  0.0673
 7079W        W23153  13.653  16.628   0.815 -0.2060 -0.0743 -0.2330
 7080W        W23154  16.925   9.751   1.783  0.0091  0.4171  0.1595
 7081W        W23155   9.964   3.026   0.099  0.0809 -0.1430 -0.0077
 7082W        W23156  10.721   8.744  15.804 -0.0310 -0.0462 -0.4176
 7083W        W23157   5.255   6.818   3.832  0.1014  0.2428 -0.0206
 7084W        W23158  17.054   5.668  16.544  0.1269  0.0982  0.0235
 7085W        W23159  17.165  16.637  15.807  0.0245 -0.1432 -0.1027
 7086W        W23160  16.060   8.194  16.941 -0.0046  0.3864 -0.2336
 7087W        W23161   8.173   6.189  13.739  0.2173 -0.1606 -0.2487
 7088W        W23162  11.061  10.264  11.852 -0.1279  0.0157 -0.0013
 7089W        W23163  17.604   3.014  14.549 -0.1844  0.0908 -0.0945
 7090W        W23164   0.278  17.838  14.005 -0.3838  0.2084  0.0516
 7091W        W23165  10.762   3.093  14.853 -0.1313 -0.0738 -0.4245
 7092W        W23166   5.513  15.234  16.805  0.0246  0.1440  0.1410
 7093W        W23167   9.058   0.402  15.363 -0.0906  0.1337 -0.0425
 7094W        W23168  14.746  12.142  14.471 -0.0360  0.2231 -0.0241
 7095W        W23169   5.917  14.471   0.933  0.0020  0.2457  0.0512
 7096W        W23170  15.135   1.266   1.805 -0.0790  0.0885 -0.3078
 7097W        W23171   3.995   5.953  12.555  0.0642  0.3378  0.1903
 7098W        W23172   2.612   4.345  13.491 -0.2537  0.0603  0.3957
 7099W        W23173   3.892  10.292   2.642  0.4494  0.2344  0.3183
 7100W        W23174   1.718   5.062   2.264  0.0141 -0.1416 -0.2010
 7101W        W23175  10.583   4.252   4.457 -0.1422 -0.2159 -0.1553
 7102W        W23176  13.060   0.866   2.876  0.1693 -0.2125  0.2292
 7103W        W23177   3.428  11.932  14.307  0.2323  0.2744 -0.1719
 7104W        W23178  10.706  11.569   2.862 -0.4038  0.1891  0.0729
 7105W        W23179  15.887  16.420   3.688 -0.0595  0.1898 -0.0447
 7106W        W23180  10.367   9.369   5.520 -0.1742  0.3037 -0.3702
 7107W        W23181   8.347   6.727  10.557 -0.2124 -0.0662 -0.0918
 7108W        W23182  15.176  13.522   2.890  0.2138 -0.0479  0.1032
 7109W        W23183   8.242   9.013   2.521  0.0535 -0.2719 -0.1156
 7110W        W23184   1.281  10.963  15.292 -0.4312 -0.1472  0.1629
 7111W        W23185   8.745   6.629   3.339  0.0959 -0.1216 -0.0711
 7112W        W23186   3.554   8.996  12.557 -0.0023 -0.2655 -0.0804
 7113W        W23187  13.689  16.083  11.923 -0.0558  0.0969 -0.0517
 7114W        W23188   4.335  11.504   3.961 -0.1012  0.0427  0.1922
 7115W        W23189  10.796  15.442  14.414 -0.1105 -0.0519 -0.1338
 7116W        W23190   5.539   0.765  14.675  0.0805  0.2325  0.0104
 7117W        W23191  12.942  13.166  13.250 -0.1751 -0.1329  0.1990
 7118W        W23192  14.564   0.092  16.074 -0.2718 -0.0393 -0.0439
 7119W        W23193   9.981  17.401   1.164 -0.1428 -0.0479 -0.0847
 7120W        W23194   9.253  14.374   5.555 -0.0070  0.0861  0.2789
 7121W        W23195  16.876   2.971   3.388 -0.0882 -0.0566  0.0533
 7122W        W23196  12.713  10.915   2.625  0.0990  0.0335  0.1873
 7123W        W23197  11.270   6.016  14.769 -0.1225 -0.1784 -0.0679
 7124W        W23198   5.107   6.690  12.036  0.0153  0.1144  0.1956
 7125W        W23199  13.948   0.449  11.926 -0.2396  0.3913  0.0658
 7126W        W23200   2.282   6.404   5.014 -0.2462  0.0478  0.1741
 7127W        W23201   3.870  14.636   5.833 -0.0543  0.0269  0.1267
 7128W        W23202   2.296   4.278  14.993  0.1556 -0.1256  0.1964
 7129W        W23203  15.169  13.444  15.692 -0.1595  0.0688  0.0365
 7130W        W23204   9.696   0.895   4.590  0.0641  0.2343 -0.0284
 7131W        W23205   9.595   2.377   5.364  0.1316 -0.1497 -0.1675
 7132W        W23206  16.228  14.342  11.995  0.2028 -0.0309 -0.0077
 7133W        W23207  15.997   7.093   5.266 -0.2181 -0.2339  0.1361
 7134W        W23208  16.995   0.311   0.623  0.0427 -0.1732 -0.0348
 7135W        W23209   0.802   8.463  15.010 -0.0380 -0.1786 -0.3002
 7136W        W23210   5.929   1.669  12.329  0.0149  0.0165 -0.1311
 7137W        W23211  13.402  14.459   1.252 -0.1711  0.0139 -0.0009
 7138W        W23212   6.592   9.776   2.986  0.1141 -0.2029  0.2336
 7139W        W23213  10.227  10.265  15.126  0.1096  0.0346  0.2030
 7140W        W23214   9.927   1.270  15.760 -0.2528  0.0480 -0.1346
 7141W        W23215   6.274   4.542  14.335 -0.0311 -0.0391 -0.2681
 7142W        W23216   8.975   4.477  12.937 -0.3149 -0.0766 -0.0167
 7143W        W23217  10.850   3.286  15.354  0.1807  0.0850 -0.2046
 7144W        W23218  16.158   6.296  16.700  0.1564  0.0939 -0.3649
 7145W        W23219   1.622  12.437  14.167 -0.2813  0.3256  0.0012
 7146W        W23220   0.513   7.136   3.581  0.2106 -0.0192 -0.1883
 7147W        W23221  14.662   4.865  13.727 -0.0377 -0.0884  0.0090
 7148W        W23222  14.883   9.569   1.614  0.0041  0.1462  0.0827
 7149W        W23223   7.547   3.922   5.355  0.3491  0.0246 -0.1640
 7150W        W23224  11.107  11.478  13.719 -0.2127  0.1408  0.2547
 7151W        W23225   2.322   4.623   2.452  0.0079  0.1106  0.2138
 7152W        W23226   8.518   5.273  13.494 -0.0437  0.0220 -0.2806
 7153W        W23227   9.798   5.220   4.131 -0.0641  0.0740  0.1286
 7154W        W23228   2.290  16.088  12.462  0.1850  0.1764 -0.1641
 7155W        W23229   5.260   3.325  16.880 -0.2141 -0.0097  0.2498
 7156W        W23230   0.285   4.302  12.870 -0.1624 -0.2893 -0.0396
 7157W        W23231   3.187  16.483   6.206  0.4366 -0.1908  0.0069
 7158W        W23232   2.462  10.987  15.889  0.0648 -0.3015 -0.1706
 7159W        W23233  11.254   3.528  12.741  0.0899  0.1008  0.0928
 7160W        W23234  17.554  13.336  14.175 -0.2668  0.1596 -0.2770
 7161W        W23235   4.572  13.229  15.446  0.0222 -0.1577  0.2360
 7162W        W23236   7.586  13.062  15.978 -0.2640 -0.0900  0.1202
 7163W        W23237  16.315   4.454   0.333 -0.0676  0.3179 -0.0060
 7164W        W23238   5.661  11.724   6.175  0.0776  0.0124  0.3970
 7165W        W23239  16.037   8.918  14.942  0.0927 -0.2632 -0.1012
 7166W        W23240   4.669   1.203  14.504 -0.0610 -0.2555  0.0378
 7167W        W23241   7.743   8.353  13.383  0.0107 -0.1522  0.0778
 7168W        W23242   2.822  11.808  15.519 -0.0834  0.3281  0.0649
 7169W        W23243   8.166  10.062  13.509  0.1735 -0.2792  0.0015
 7170W        W23244  10.939   4.041  16.029  0.0741  0.1659 -0.0707
 7171W        W23245  11.123  16.893   1.477 -0.0040 -0.1769  0.2906
 7172W        W23246   3.780   7.539  13.341 -0.0880 -0.2881 -0.3363
 7173W        W23247   9.131   9.471  14.486  0.1828 -0.1327 -0.0367
 7174W        W23248   5.564  11.910   1.243 -0.5797  0.3215  0.3489
 7175W        W23249  16.849  11.087   2.690 -0.0490  0.1974  0.3370
 7176W        W23250   3.636  11.055   6.375  0.2448 -0.1148 -0.1336
 7177W        W23251   5.680  11.560  14.195 -0.0732  0.0278 -0.0158
 7178W        W23252  10.529   6.903  15.610  0.1011  0.1307 -0.1803
 7179W        W23253   3.907   9.057   0.041  0.1491  0.0986  0.3503
 7180W        W23254   8.982  10.048  12.133  0.0411  0.1481 -0.0997
 7181W        W23255   3.165  12.656   0.606  0.2188  0.1857  0.1016
 7182W        W23256   6.856  13.405   4.880 -0.3259  0.0537  0.0165
 7183W        W23257   7.723   7.101  12.717 -0.0064 -0.1762 -0.0383
 7184W        W23258   2.313  12.223  16.055  0.1530 -0.1693 -0.0803
 7185W        W23259   9.744  10.554   1.931  0.1265  0.0244 -0.0152
 7186W        W23260  11.460  15.746  15.346  0.0429 -0.0906 -0.2443
 7187W        W23261  14.023   1.072   4.068 -0.0993 -0.0495 -0.1617
 7188W        W23262  13.218  11.351  13.599  0.3051  0.0735 -0.3187
 7189W        W23263  10.740  17.426  16.529  0.2796 -0.0996 -0.1319
 7190W        W23264   8.936  15.840  14.270  0.1135 -0.0187  0.0907
 7191W        W23265   2.836   0.371  13.366 -0.2113  0.0261  0.2304
 7192W        W23266  15.530  10.575   1.269 -0.3850 -0.0422 -0.2144
 7193W        W23267  12.129   7.049   5.442  0.0397 -0.0513  0.0653
 7194W        W23268  14.681  13.804  15.153 -0.0705 -0.2474  0.1365
 7195W        W23269  15.773   9.432  15.738 -0.0685 -0.1685 -0.2557
 7196W        W23270  12.300  10.829   2.045  0.0757 -0.3474 -0.0122
 7197W        W23271   6.485   6.536  14.343  0.1190 -0.1483 -0.0410
 7198W        W23272   5.455  12.182   3.848  0.0502 -0.4109  0.0207
 7199W        W23273  14.494  15.795  14.851 -0.1338 -0.0392  0.3059
 7200W        W23274  16.171   9.805  16.917 -0.1057 -0.2065  0.1143
 7201W        W23275   1.766   8.332   4.324  0.3537  0.1957 -0.1999
 7202W        W23276  14.953   9.678  13.674 -0.0243 -0.0287  0.1469
 7203W        W23277  14.461   1.905   2.225  0.1333  0.1452 -0.1541
 7204W        W23278   7.337  16.949  14.997  0.2218  0.2790 -0.1904
 7205W        W23279  12.890  16.493   2.071  0.1094  0.3817  0.0212
 7206W        W23280  12.563  12.208   1.371 -0.0303 -0.2711 -0.2198
 7207W        W23281  14.059  17.161  16.861 -0.2876  0.0793  0.2282
 7208W        W23282   0.433   7.955   4.808 -0.0589 -0.1457  0.0183
 7209W        W23283   4.337   9.827   1.779 -0.1106  0.2173  0.0688
 7210W        W23284  16.750   3.309   1.644 -0.2233  0.1450  0.1567
 7211W        W23285   5.019   5.618   4.754 -0.0468 -0.1526  0.2721
 7212W        W23286   6.976  16.183   5.328  0.2336  0.0549  0.0649
 7213W        W23287  15.950   5.154   2.814  0.1645 -0.4206  0.2700
 7214W        W23288   3.971   5.160   2.102  0.2666  0.0866 -0.3876
 7215W        W23289   6.176  16.881   4.876 -0.0463 -0.3304  0.0851
 7216W        W23290   7.811   6.935   4.994  0.2349  0.1672  0.2265
 7217W        W23291  12.886   7.764  15.299  0.3969  0.0540 -0.0377
 7218W        W23292  10.225   0.337  12.456  0.3818  0.1944 -0.0564
 7219W        W23293   9.442   6.032  15.847 -0.1335  0.2052 -0.1575
 7220W        W23294  10.429  17.297   0.826  0.0997  0.3436  0.3968
 7221W        W23295  15.203   3.070  11.599 -0.1572  0.3959 -0.0735
 7222W        W23296   5.905  12.039   3.706  0.0696  0.2788 -0.3887
 7223W        W23297  10.006   4.043  16.910  0.0330 -0.0027 -0.0991
 7224W        W23298  17.278   8.652   2.791  0.0029 -0.1517 -0.1601
 7225W        W23299   5.797   2.052  12.679 -0.0887 -0.2569  0.3875
 7226W        W23300  13.104  16.713  12.287 -0.0647  0.1394 -0.0188
 7227W        W23301  12.908   3.079  13.219 -0.2214 -0.1031 -0.0513
 7228W        W23302  17.416   7.030  11.753  0.0006  0.3510  0.0187
 7229W        W23303   9.422   7.588   2.273  0.2381 -0.2781  0.2054
 7230W        W23304   9.488   4.206  16.593 -0.0530 -0.2340 -0.1607
 7231W        W23305  12.262   9.849   4.608 -0.0001 -0.0966  0.1546
 7232W        W23306   0.354  16.394  11.636 -0.1811 -0.0154 -0.1232
 7233W        W23307   4.379   7.355  12.714 -0.0499 -0.0459 -0.0260
 7234W        W23308  12.213   1.813  13.995 -0.0101  0.1244 -0.2043
 7235W        W23309   1.922  16.475  16.243  0.2391  0.1522  0.0536
 7236W        W23310   3.705   5.588   3.888 -0.1476  0.0363  0.0326
 7237W        W23311  13.145   5.068  13.796 -0.1481 -0.1771 -0.2821
 7238W        W23312   5.271  15.931  11.986 -0.1004  0.2096 -0.0030
 7239W        W23313  12.756  14.843  12.297  0.0953 -0.1215 -0.3280
 7240W        W23314   2.079   3.643  13.288 -0.2187 -0.1379  0.0620
 7241W        W23315  16.333   6.023  14.012 -0.1673  0.3095 -0.0834
 7242W        W23316   7.988   5.086   1.134  0.1692 -0.1282 -0.2958
 7243W        W23317   9.376   8.126  14.934 -0.1857 -0.0813  0.0164
 7244W        W23318   2.370   1.951   3.658 -0.0657 -0.0859 -0.2232
 7245W        W23319   7.172   7.395   2.796  0.1812  0.2587 -0.3556
 7246W        W23320   5.530  13.385  14.395  0.1030 -0.0348  0.3350
 7247W        W23321  13.093   0.206   0.253 -0.1000 -0.2553 -0.1605
 7248W        W23322   2.676  12.033  14.888  0.0219 -0.0662  0.0803
 7249W        W23323   6.197  17.539   0.411 -0.2148 -0.2221  0.0961
 7250W        W23324   1.997  10.940   1.932  0.1438  0.1218  0.2395
 7251W        W23325   0.527  10.022   1.699 -0.1288  0.1155 -0.0437
 7252W        W23326   9.967   9.826  15.961 -0.0560  0.1205  0.1160
 7253W        W23327   1.376   8.022   1.936 -0.1133  0.2535 -0.2001
 7254W        W23328   0.266   5.690   0.392  0.0860  0.1118 -0.1376
 7255W        W23329  17.002  15.121  11.917  0.3845 -0.0527 -0.0547
 7256W        W23330  11.616   2.417   4.636  0.0489 -0.0671  0.0631
 7257W        W23331   0.040  11.366   4.311 -0.1503 -0.1401  0.1699
 7258W        W23332  13.493  17.458  13.501 -0.0688 -0.3081  0.0493
 7259W        W23333   7.726   4.731  15.429 -0.0358  0.0965  0.0037
 7260W        W23334  10.813  12.136  12.312  0.0710  0.1770  0.2523
 7261W        W23335  16.436  16.814  15.291  0.2521 -0.0177 -0.0134
 7262W        W23336   0.351   4.533   4.367 -0.0176 -0.0914  0.0213
 7263W        W23337   1.714   5.603  12.128  0.2712  0.1181 -0.0731
 7264W        W23338  10.091   6.871  13.693  0.0565  0.0574 -0.0322
 7265W        W23339   7.476  11.814   1.765  0.1034 -0.1251  0.1088
 7266W        W23340  11.455   8.298   2.136 -0.0995  0.0747  0.0858
 7267W        W23341   1.820  14.752   3.926  0.6128 -0.1776  0.0269
 7268W        W23342  10.100   5.009  13.668 -0.0847  0.2431 -0.0853
 7269W        W23343  11.577  15.166  13.178 -0.0551 -0.1769  0.1345
 7270W        W23344   6.200  13.297   6.441  0.1888  0.1833  0.0989
 7271W        W23345   2.368  15.102  14.086  0.1403 -0.1865  0.2770
 7272W        W23346   0.954  11.394   0.970 -0.1672 -0.3476 -0.2963
 7273W        W23347  11.040  14.209   0.209  0.1008 -0.0066 -0.2890
 7274W        W23348   0.310  13.662   3.283  0.2146  0.1748 -0.2665
 7275W        W23349   0.474  10.615  11.629  0.2443 -0.1358  0.1698
 7276W        W23350  17.783   8.433   5.937 -0.0053 -0.0067  0.3264
 7277W        W23351  17.051  11.548  12.449  0.1161  0.1612 -0.2449
 7278W        W23352   2.602  10.303   1.395 -0.2306  0.2067  0.1028
 7279W        W23353   3.894   3.567   4.211  0.3432  0.4983  0.0383
 7280W        W23354  11.420   8.709   3.469 -0.3382 -0.0272 -0.1610
 7281W        W23355  14.334  14.437  16.928  0.1233 -0.1238  0.3057
 7282W        W23356  11.866   9.463   4.455  0.1293 -0.3809  0.0089
 7283W        W23357  16.656  14.375   4.251 -0.0542 -0.0930  0.1677
 7284W        W23358   8.867   0.982   1.860 -0.2044 -0.0674  0.0893
 7285W        W23359   4.581   2.681   0.202  0.0216 -0.1023  0.1809
 7286W        W23360  15.187   4.234  13.527  0.2322 -0.0495 -0.0886
 7287W        W23361  11.558  16.490   5.799 -0.0996 -0.1096  0.0494
 7288W        W23362   1.848  10.582   2.275  0.1550  0.1915  0.0114
 7289W        W23363   2.571   4.014   5.014 -0.1334  0.3522  0.1185
 7290W        W23364   5.875  17.604   1.321 -0.1736 -0.1716  0.0952
 7291W        W23365   0.658   2.347   3.835 -0.3885 -0.1958 -0.1786
 7292W        W23366   4.877   8.901   5.532 -0.0712  0.2353  0.1926
 7293W        W23367   4.701  14.355   5.685 -0.0449  0.2517 -0.0075
 7294W        W23368  17.769   3.318   4.355 -0.1963  0.4773 -0.1328
 7295W        W23369   7.786  11.309  12.764  0.1644  0.2524 -0.4595
 7296W        W23370  17.462   9.522   5.392 -0.0544  0.1124 -0.4033
 7297W        W23371  13.291  10.290   2.466  0.0704 -0.5169 -0.2579
 7298W        W23372  11.671   7.978   2.921  0.0455 -0.0440 -0.1978
 7299W        W23373   3.418   7.719   1.109  0.0101  0.1421 -0.1193
 7300W        W23374  17.612  15.712   0.362  0.0648  0.0880 -0.0779
 7301W        W23375  12.813   5.484   4.004 -0.1589 -0.0541  0.0311
 7302W        W23376   6.377   7.235   2.722  0.0588  0.0480  0.1802
 7303W        W23377  15.170  12.903   6.542  0.0618  0.0344  0.0896
 7304W        W23378  16.671  15.964   0.318  0.2165  0.0084  0.1184
 7305W        W23379   1.156  17.574   1.781  0.2492  0.1307 -0.0662
 7306W        W23380  14.217   8.555   2.234 -0.1776 -0.2323 -0.0374
 7307W        W23381   7.461   9.745  12.147  0.2056  0.3725  0.0348
 7308W        W23382  15.245   5.166   2.116  0.0352  0.2533  0.0045
 7309W        W23383   4.904  13.206  16.891 -0.1272 -0.0714 -0.0281
 7310W        W23384  10.987   3.027   5.501 -0.2958 -0.0648 -0.1219
 7311W        W23385   9.325   1.825   1.001 -0.0176  0.0749  0.3159
 7312W        W23386   8.704   2.670  11.677  0.1736 -0.0050  0.1073
 7313W        W23387  10.506  11.947   3.879  0.1616  0.2820 -0.0974
 7314W        W23388  17.251  17.372   0.895  0.2028  0.1485  0.2797
 7315W        W23389   1.701  14.301   1.420  0.1439 -0.2428 -0.0781
 7316W        W23390   9.486  16.687  13.859 -0.4108  0.2514 -0.1543
 7317W        W23391   9.452   0.731   2.311  0.1300 -0.2762 -0.0590
 7318W        W23392  15.252  14.480   2.626 -0.0229 -0.1014 -0.0826
 7319W        W23393  14.466   5.024   3.984  0.1838  0.0726 -0.2458
 7320W        W23394  11.801   9.016   3.503 -0.0283 -0.0874  0.1490
 7321W        W23395   0.086   8.660  13.898  0.1961 -0.0405  0.1503
 7322W        W23396  10.132   0.049  14.198  0.3362  0.3926 -0.2168
 7323W        W23397   6.696   0.101  13.400  0.0691 -0.2678 -0.2444
 7324W        W23398   2.278   3.095  15.520 -0.0060  0.0592 -0.0845
 7325W        W23399   3.347   9.261   3.646  0.0381  0.1494  0.0489
 7326W        W23400   7.851  14.902   3.978 -0.0376 -0.0261  0.3907
 7327W        W23401   6.950  15.980   3.944  0.0437  0.0553  0.1567
 7328W        W23402   6.387  12.445  12.160 -0.2525 -0.2942  0.0395
 7329W        W23403   7.379   2.130  13.653 -0.1498  0.0294 -0.0232
 7330W        W23404   8.877   5.660  16.184 -0.3823 -0.3472  0.0558
 7331W        W23405  15.693   1.364   4.909  0.0180  0.0480 -0.0585
 7332W        W23406   4.825  11.042   4.179 -0.2373  0.5316  0.0021
 7333W        W23407  11.466  12.878   5.457 -0.1827 -0.0169 -0.0449
 7334W        W23408  10.230  12.506   2.150  0.2051  0.0393 -0.0716
 7335W        W23409   3.081  12.144   1.074 -0.0556 -0.0088 -0.0409
 7336W        W23410   6.440   4.823   4.304 -0.0638 -0.1713  0.1524
 7337W        W23411   2.138  12.033  14.687  0.1154 -0.3870  0.0245
 7338W        W23412   5.805   1.095   2.315  0.0202 -0.0146  0.1601
 7339W        W23413  12.026   2.009   4.320  0.2405 -0.0355  0.1927
 7340W        W23414   2.634   9.927   3.041  0.0581 -0.0594 -0.0050
 7341W        W23415  11.377  12.432  16.090  0.1773  0.4366 -0.0366
 7342W        W23416   3.153   0.761  15.363  0.0744  0.0296  0.1196
 7343W        W23417  10.976  13.829   0.930  0.0538  0.1148  0.0021
 7344W        W23418   5.024  14.775   1.267  0.1430 -0.1600  0.1573
 7345W        W23419   1.438   7.507  15.148  0.2803  0.1463  0.1585
 7346W        W23420   5.114  10.767   5.486 -0.1240 -0.2059  0.1128
 7347W        W23421  14.066  15.741  13.127  0.0451  0.1011  0.1280
 7348W        W23422   2.512   2.630  16.267  0.2801 -0.1922  0.0398
 7349W        W23423  13.108  15.170   2.698 -0.0818  0.1913  0.1501
 7350W        W23424  15.885   3.121   3.434 -0.1961  0.1910  0.2312
 7351W        W23425  11.423   1.650   5.549 -0.2199  0.2242  0.1352
 7352W        W23426   0.563   7.838   4.069 -0.0038  0.1032  0.0420
 7353W        W23427  10.705   2.187  14.541 -0.1560  0.0923 -0.1562
 7354W        W23428  12.192   5.099  14.834 -0.1941 -0.0422 -0.1982
 7355W        W23429   2.627  12.182  13.977  0.0269 -0.0373  0.0303
 7356W        W23430   9.832  10.217  13.739 -0.0845 -0.3380 -0.1440
 7357W        W23431   3.148   7.746   0.671  0.1626  0.0700  0.2243
 7358W        W23432  14.858   6.488  12.449 -0.0167  0.2925  0.0006
 7359W        W23433   1.646   1.585  16.004  0.0120 -0.2535 -0.1452
 7360W        W23434   7.684   3.453   5.545  0.0583  0.0316 -0.1081
 7361W        W23435  14.580  11.734  16.848  0.0306 -0.1685 -0.0869
 7362W        W23436  11.924  12.413  15.860  0.1026 -0.2620 -0.0493
 7363W        W23437  12.041  12.862   3.182  0.0484 -0.1341 -0.1820
 7364W        W23438  16.839   0.649   6.050 -0.1017  0.0555 -0.1655
 7365W        W23439   5.275   6.461   0.921 -0.0414  0.0308  0.0579
 7366W        W23440   0.114  12.721  11.929 -0.0735  0.0217 -0.0904
 7367W        W23441  15.353   0.349   0.352  0.2532 -0.1899 -0.1132
 7368W        W23442  16.322  11.134   4.379 -0.1042  0.1606 -0.1041
 7369W        W23443   2.642   4.075  12.482 -0.0306 -0.0959 -0.0469
 7370W        W23444   7.604   8.012  12.875  0.0511  0.0683 -0.0346
 7371W        W23445  11.199   4.746   4.218 -0.1023 -0.1741 -0.2175
 7372W        W23446  12.430   4.056   5.892 -0.0653  0.0347 -0.1600
 7373W        W23447   1.089   5.423   5.909  0.2566  0.0678  0.1963
 7374W        W23448   4.944  17.789   1.385  0.3062 -0.0814  0.1853
 7375W        W23449   3.996   2.137   0.010 -0.1605  0.0735 -0.1589
 7376W        W23450  10.530  15.614  12.240 -0.1173 -0.1163  0.0344
 7377W        W23451  12.847  14.306  12.175  0.1703 -0.0377 -0.0391
 7378W        W23452   9.430   4.575  14.996 -0.0672  0.1251 -0.2608
 7379W        W23453   5.937  13.874  15.788 -0.2087  0.0144  0.1904
 7380W        W23454  15.913   1.581  16.787  0.2472  0.0416  0.0558
 7381W        W23455   9.698   2.548  13.781  0.2442  0.0197  0.1015
 7382W        W23456   6.228   8.502  13.233 -0.2518  0.2275 -0.1311
 7383W        W23457   8.895  13.150  13.022 -0.0870 -0.2186  0.0267
 7384W        W23458   6.614   3.067  12.290 -0.0921 -0.3965 -0.0201
 7385W        W23459   9.489  11.321  15.101 -0.1206 -0.0262 -0.5137
 7386W        W23460   0.267   2.546  12.826  0.0640  0.1766 -0.3644
 7387W        W23461   9.799   4.721   1.247 -0.0167 -0.0254  0.0544
 7388W        W23462   8.530  16.679   3.840  0.1762 -0.2348 -0.0091
 7389W        W23463  16.405   1.239   2.802  0.1929 -0.0250  0.0574
 7390W        W23464   8.658  13.458  13.749 -0.0717  0.0389  0.0542
 7391W        W23465   8.981   2.346  11.390  0.0129  0.0178  0.2260
 7392W        W23466  17.547   8.262  14.216  0.2534 -0.0988  0.3244
 7393W        W23467   1.993  11.573   4.521 -0.1194  0.4466 -0.2286
 7394W        W23468  14.232   4.779   3.156  0.0110  0.0414 -0.0368
 7395W        W23469   4.421   9.825   4.148  0.2320 -0.1409  0.1670
 7396W        W23470   7.434  14.855   5.989  0.0239 -0.0857  0.1778
 7397W        W23471  16.560   8.281   0.064 -0.0011 -0.1274  0.1135
 7398W        W23472   0.315   9.708  11.397  0.2545 -0.2811 -0.2551
 7399W        W23473   0.353   5.571  13.183  0.1897 -0.0978 -0.2469
 7400W        W23474  15.781   4.354   3.360  0.0189  0.1830  0.4819
 7401W        W23475   7.093  10.617   4.800  0.2635 -0.3343  0.0271
 7402W        W23476  15.075  10.420   1.381 -0.2781 -0.0985  0.2040
 7403W        W23477   4.221   0.869  14.617 -0.3079  0.4990  0.1203
 7404W        W23478   8.677   6.680  12.879 -0.0812 -0.3656  0.0238
 7405W        W23479  17.602   7.763  12.150 -0.1896  0.1423 -0.0936
 7406W        W23480  14.312   3.673   6.337 -0.0127  0.1422  0.2981
 7407W        W23481   5.667   8.647   4.533  0.0785  0.2787  0.1178
 7408W        W23482   9.728  16.011  16.426  0.1995  0.0639 -0.4069
 7409W        W23483   8.323  15.792   5.549 -0.1607  0.0242  0.0175
 7410W        W23484   6.768  12.853   2.876 -0.0280  0.3040 -0.0163
 7411W        W23485   8.293   9.078   5.559 -0.1863 -0.1319  0.1754
 7412W        W23486   8.918   8.552  11.559  0.1317  0.0928 -0.2338
 7413W        W23487   3.332  16.318  16.090 -0.0535 -0.1598  0.1696
 7414W        W23488   2.953  11.805   5.407  0.0026 -0.0277 -0.0523
 7415W        W23489   4.874  11.217  14.209 -0.0178 -0.0908 -0.0476
 7416W        W23490  15.331   5.366   5.400 -0.5533 -0.2399  0.0567
 7417W        W23491  15.662  11.098   1.233  0.0573 -0.1250  0.1189
 7418W        W23492   1.156   3.789   5.244 -0.1416 -0.2745 -0.5034
 7419W        W23493  14.823  13.898  13.859  0.2573 -0.3561 -0.0976
 7420W        W23494  13.640  17.680   5.320 -0.0735 -0.1420  0.3257
 7421W        W23495   4.712  12.810  13.240 -0.1692 -0.1464 -0.2905
 7422W        W23496   2.316   6.238  13.041 -0.3007  0.2086  0.1023
 7423W        W23497   0.416   5.433  14.962 -0.1826  0.0778 -0.0620
 7424W        W23498   8.974  16.397   0.777  0.3174 -0.0107 -0.3138
 7425W        W23499  16.670   0.541  16.559  0.2303  0.0863  0.1154
 7426W        W23500   2.637   8.786  14.812  0.0467 -0.0266 -0.1332
 7427W        W23501   2.614  11.713  11.737  0.1943 -0.0721  0.1296
 7428W        W23502   4.757  12.397   2.757  0.2245 -0.0524 -0.0391
 7429W        W23503  15.391   2.799   3.985 -0.3358 -0.0251 -0.1279
 7430W        W23504   4.922  10.651   1.682  0.2340 -0.0153 -0.0654
 7431W        W23505  14.067   5.228   0.860 -0.1805  0.0829 -0.0412
 7432W        W23506  10.670  15.410   4.430 -0.0995 -0.0142  0.1120
 7433W        W23507  17.206   1.076   2.412 -0.4431  0.1528 -0.0855
 7434W        W23508   2.052   0.166   4.786  0.0762  0.1464  0.1925
 7435W        W23509  15.710  11.723  16.838  0.0069  0.0593 -0.0614
 7436W        W23510  15.507  13.769   3.276 -0.0183  0.1142  0.2175
 7437W        W23511   7.811  11.069  16.630  0.0768  0.0384  0.1769
 7438W        W23512   8.449   7.359  16.502  0.1993 -0.0746 -0.0381
 7439W        W23513   1.902  10.384  14.089  0.2491  0.0727  0.1615
 7440W        W23514   3.295  13.136   0.817 -0.3054 -0.2242 -0.0541
 7441W        W23515   8.206   8.260   3.044 -0.2160  0.0842 -0.1218
 7442W        W23516  13.549   1.375  14.787 -0.1749 -0.0640 -0.0662
 7443W        W23517  16.589   1.498  12.606  0.2494  0.0349 -0.0262
 7444W        W23518   3.340  17.764   0.365 -0.0623  0.2420  0.3529
 7445W        W23519   3.929  17.267   3.389 -0.0847  0.0015  0.0585
 7446W        W23520   6.154  17.160   1.495 -0.1610  0.0919 -0.1743
 7447W        W23521   8.684   5.952   2.239  0.1451  0.1076  0.2386
 7448W        W23522  10.029   3.473  12.880  0.0128 -0.2026  0.0798
 7449W        W23523   5.454  12.348   0.339  0.0084 -0.0616  0.0348
 7450W        W23524  13.732   8.487   0.561 -0.0842 -0.2415 -0.0537
 7451W        W23525   3.445  10.336   0.910 -0.2450 -0.3050 -0.1909
 7452W        W23526  16.083  13.977  13.734 -0.1904  0.0817 -0.0232
 7453W        W23527   4.202  15.190  14.150  0.0195 -0.2293  0.0360
 7454W        W23528   0.004   3.668   1.032  0.0622  0.0814 -0.4216
 7455W        W23529  10.937   8.820   5.371 -0.1226 -0.1782  0.0812
 7456W        W23530   5.875  11.741  15.620 -0.0236 -0.0714  0.0770
 7457W        W23531  16.647   7.514  11.936 -0.2630 -0.2474 -0.3076
 7458W        W23532  11.739  17.286   2.016  0.2105  0.0938 -0.1313
 7459W        W23533   4.470  17.207   0.347  0.0882 -0.3095  0.3494
 7460W        W23534  14.215   2.335  12.932 -0.1010 -0.3235 -0.0184
 7461W        W23535  15.730   1.359  15.621  0.0097 -0.1605  0.0551
 7462W        W23536   9.646  15.764  11.750 -0.1965  0.2619 -0.0825
 7463W        W23537  10.548   7.853  13.415  0.1733 -0.2292 -0.0341
 7464W        W23538   7.964   0.989   0.989 -0.0706 -0.0702  0.0167
 7465W        W23539   9.691   8.375   4.917  0.0920 -0.1205  0.1804
 7466W        W23540  10.322  16.435   0.179 -0.1800 -0.1215 -0.0631
 7467W        W23541   9.810  14.862   4.453 -0.1553 -0.0721 -0.1423
 7468W        W23542  13.997  13.614   2.049 -0.0510  0.1371 -0.0329
 7469W        W23543  13.034  15.514  12.267 -0.2365 -0.1080  0.0577
 7470W        W23544   6.358   2.813   2.481 -0.2053  0.4026 -0.2305
 7471W        W23545   0.816   6.448   4.962 -0.0787  0.1178  0.1899
 7472W        W23546  11.065   7.817  13.528  0.0271  0.1568 -0.2368
 7473W        W23547   7.665   9.669  16.543 -0.0971  0.2814  0.2189
 7474W        W23548   0.208   8.609   5.507 -0.2769  0.3992 -0.0511
 7475W        W23549   0.023   1.456   4.461 -0.0454 -0.0513  0.2742
 7476W        W23550   9.168  13.039   0.579  0.2127 -0.2137 -0.3550
 7477W        W23551   3.666   7.192  14.266 -0.0102  0.1223 -0.0976
 7478W        W23552   8.556   7.323   0.715  0.1027  0.1961  0.1372
 7479W        W23553  10.227   5.403  13.997  0.4338  0.4999 -0.2231
 7480W        W23554   9.051   0.528   1.080 -0.1043 -0.2062  0.1647
 7481W        W23555   2.370  15.632   0.259  0.1725  0.1278 -0.2719
 7482W        W23556  13.623   3.171   5.904  0.0382  0.1932  0.1521
 7483W        W23557   1.624  13.616  15.519  0.1600  0.0300 -0.1342
 7484W        W23558   7.483  13.544  15.722 -0.2901  0.3722 -0.0272
 7485W        W23559  15.336   4.342   4.660 -0.1396  0.1255  0.1267
 7486W        W23560  13.095   0.224   2.862 -0.0537 -0.2291 -0.0502
 7487W        W23561  10.036   2.869  13.538 -0.3647 -0.0066 -0.2045
 7488W        W23562   1.010   4.506  14.026  0.0054 -0.4566  0.0799
 7489W        W23563   7.276  11.097  16.704 -0.1785  0.0401 -0.1527
 7490W        W23564   2.012  16.639   1.519 -0.3045  0.1136  0.4042
 7491W        W23565   9.797   0.934   3.522  0.2175  0.2994  0.0622
 7492W        W23566  14.332   2.303   2.554  0.1326  0.0024  0.0135
 7493W        W23567   8.826  12.638   4.221  0.0142  0.3044 -0.0911
 7494W        W23568   8.656   5.128   0.623 -0.2577  0.1013 -0.1511
 7495W        W23569   7.813   9.407  15.360 -0.0014  0.0068 -0.0258
 7496W        W23570   9.342  16.808   3.599  0.0109  0.0356  0.0822
 7497W        W23571   3.989   4.015   5.245  0.0426 -0.0533  0.1535
 7498W        W23572  12.004  11.989  12.116  0.0585 -0.1499 -0.2381
 7499W        W23573   5.893  17.190   0.649  0.1928  0.0085 -0.3195
 7500W        W23574  12.986   8.863  15.237  0.4398 -0.3083 -0.1096
 7501W        W23575   9.877  12.733   3.918 -0.0433 -0.0259 -0.0715
 7502W        W23576  11.004   3.006   3.201 -0.2639  0.0606 -0.2617
 7503W        W23577  10.243  15.193  16.262 -0.0653 -0.2635 -0.2164
 7504W        W23578   8.487  13.108   2.899  0.1356  0.0892 -0.0567
 7505W        W23579  10.147  13.907   0.453  0.1010 -0.1458 -0.1517
 7506W        W23580  14.107   5.901   1.451  0.2988  0.0369  0.2917
 7507W        W23581   3.713  14.714  12.181 -0.0146  0.2105 -0.1434
 7508W        W23582  15.262  16.282   5.236 -0.2087  0.0161 -0.0997
 7509W        W23583   8.269   5.660  15.575  0.2362 -0.1412  0.0868
 7510W        W23584   3.036   9.683   3.265  0.1236 -0.1041 -0.1497
 7511W        W23585   5.531   7.500   0.063 -0.2540  0.1423  0.0753
 7512W        W23586   1.885   2.248   0.702  0.0484  0.0746  0.0353
 7513W        W23587   3.146  11.694   1.244 -0.2306 -0.1896  0.2017
 7514W        W23588  12.322   8.199  16.576 -0.1354 -0.1023 -0.4063
 7515W        W23589  16.477  10.378  11.869 -0.0664  0.3714  0.1214
 7516W        W23590   4.653  16.179   3.853  0.0309  0.0612  0.1977
 7517W        W23591   5.217   7.637  12.595 -0.0955 -0.0677  0.1214
 7518W        W23592   7.123  10.830  13.587  0.0869  0.0704  0.0406
 7519W        W23593  15.029   9.611  10.917 -0.2135 -0.3100 -0.0716
 7520W        W23594  14.844  10.035   3.908  0.0665 -0.0642 -0.2847
 7521W        W23595  10.598   8.850   3.878  0.0802 -0.3805  0.2429
 7522W        W23596   7.461   8.080  15.753  0.0209  0.0263 -0.0335
 7523W        W23597   4.172   8.304   0.605 -0.0243 -0.1881 -0.0872
 7524W        W23598   4.966  13.996  14.806 -0.4947  0.0219 -0.2083
 7525W        W23599   3.950   0.230  16.517  0.0664 -0.0926 -0.1992
 7526W        W23600  15.960  10.495   1.105 -0.1039 -0.1288  0.2206
 7527W        W23601   9.526   0.606  13.739  0.0019  0.0461 -0.4632
 7528W        W23602  10.104   3.708  14.218 -0.0967  0.0881 -0.0425
 7529W        W23603   6.307  11.605  11.399  0.1862  0.2430  0.4329
 7530W        W23604  11.838   0.092  12.739 -0.0077  0.2742  0.0853
 7531W        W23605   7.632  11.002   5.383 -0.0086  0.0139 -0.0448
 7532W        W23606  13.780  11.509   4.982  0.0108 -0.1608 -0.0815
 7533W        W23607  10.459   8.554   4.797  0.1522 -0.0311  0.1416
 7534W        W23608   4.754   0.616   0.327  0.3487 -0.1365 -0.1552
 7535W        W23609  16.794   5.958   2.187 -0.1282  0.5786 -0.2446
 7536W        W23610  15.846  16.920  12.341 -0.1450 -0.0168 -0.0922
 7537W        W23611   4.749  12.281  11.972  0.2404 -0.1073  0.1391
 7538W        W23612   4.617   1.265  13.136 -0.0053  0.2519 -0.0277
 7539W        W23613   7.310   3.802  11.384  0.0978  0.2704  0.0138
 7540W        W23614   6.970  16.519  11.188 -0.3759 -0.0258  0.2010
 7541W        W23615  16.690   1.019  12.458  0.1962 -0.0420 -0.0810
 7542W        W23616   7.580   4.869   2.788 -0.0810  0.0452 -0.2166
 7543W        W23617   2.754   0.218   5.718 -0.0538 -0.1340  0.1493
 7544W        W23618   4.616   7.479   0.211  0.2323  0.1835  0.0906
 7545W        W23619   8.830   1.325  11.607 -0.2331 -0.1067  0.0362
 7546W        W23620  16.351   0.008   0.784  0.0268  0.3625 -0.3467
 7547W        W23621  14.243   8.156  12.213  0.0459  0.3478  0.2797
 7548W        W23622   0.989   7.478  11.771 -0.0127  0.0640 -0.2405
 7549W        W23623  11.769  17.311   2.502  0.2959  0.0812  0.0882
 7550W        W23624   1.458   0.932   2.540  0.3506 -0.1526 -0.2225
 7551W        W23625   5.739   0.453  15.004  0.1265 -0.3150  0.0407
 7552W        W23626   2.994   7.518  14.402 -0.0152  0.1967  0.5001
 7553W        W23627  16.266   3.511   0.684  0.0868  0.1172 -0.0595
 7554W        W23628   2.452  12.426   0.533 -0.0014  0.0895 -0.1008
 7555W        W23629   6.249   6.427  11.727  0.1987  0.2123  0.0623
 7556W        W23630   3.051   4.503  15.968  0.1918  0.0332  0.2277
 7557W        W23631  15.035  16.701   2.663  0.1097 -0.2057  0.0279
 7558W        W23632   2.969  17.242   1.806 -0.0913  0.3825  0.2638
 7559W        W23633  10.631   6.880   1.122  0.1218 -0.0315 -0.0084
 7560W        W23634  15.192  13.020   0.831  0.1083  0.2011 -0.1819
 7561W        W23635   1.615   5.825  13.168 -0.0101  0.0596  0.3579
 7562W        W23636   1.477  16.629  12.553  0.2040  0.0305  0.0916
 7563W        W23637  10.737   1.575   2.511 -0.0224  0.2205  0.1666
 7564W        W23638   8.162  17.762  13.263  0.1817 -0.0575 -0.1069
 7565W        W23639   8.211   3.273  16.651  0.0396  0.0140 -0.1008
 7566W        W23640   0.560   8.658   2.914  0.0227  0.0117  0.0230
 7567W        W23641   6.301   9.012  13.243 -0.1339 -0.0077 -0.1181
 7568W        W23642  14.949   2.416  13.074 -0.0247  0.1314  0.2419
 7569W        W23643   1.671   6.774   4.516 -0.0470 -0.0647 -0.1153
 7570W        W23644   0.924   7.345   4.244  0.3283  0.4600  0.1997
 7571W        W23645   6.556   0.546   1.148  0.3373 -0.0764 -0.1944
 7572W        W23646   7.607   7.495   1.488  0.0635 -0.1556 -0.1896
 7573W        W23647  10.724   9.961  13.484  0.2635  0.1147  0.3866
 7574W        W23648  17.145   2.020  16.090  0.0475 -0.1217 -0.2849
 7575W        W23649   9.351   1.150   2.002 -0.2487  0.0443  0.2242
 7576W        W23650   7.072   8.927  15.972 -0.1104 -0.1667  0.2909
 7577W        W23651  11.998   7.688  11.856 -0.0042 -0.1033  0.0002
 7578W        W23652  13.361   7.313   1.293  0.3323 -0.0267 -0.0093
 7579W        W23653   9.009  10.765   0.951  0.0927  0.2102 -0.0522
 7580W        W23654  17.121   5.397   6.072 -0.1055 -0.0492 -0.2463
 7581W        W23655  10.310  14.694  16.551  0.2498  0.1174  0.1725
 7582W        W23656  10.519   9.625   0.838  0.1279  0.0454  0.0724
 7583W        W23657  10.504  17.455   2.360  0.2526  0.1655 -0.0820
 7584W        W23658  13.320  10.926   1.797  0.0783  0.2234 -0.0091
 7585W        W23659   3.927   0.606  16.923 -0.4160  0.1126  0.1024
 7586W        W23660   2.238   4.729  10.779 -0.0454 -0.1278 -0.0229
 7587W        W23661  15.999  14.461  14.005 -0.1534 -0.3736 -0.2196
 7588W        W23662  12.638   3.928   0.325  0.1699 -0.0069 -0.0451
 7589W        W23663   3.486   1.098   1.545  0.2363 -0.3898  0.1369
 7590W        W23664  15.049  14.204   0.318  0.1473  0.1448  0.1384
 7591W        W23665  12.695   8.787   1.213  0.4677 -0.0042  0.1083
 7592W        W23666  14.576  14.038   0.095  0.0444 -0.2730 -0.2225
 7593W        W23667   3.910   9.620   2.040 -0.1442  0.1273 -0.1802
 7594W        W23668   7.872  13.356  16.651  0.2320 -0.2370 -0.0827
 7595W        W23669   1.647   5.469  12.620  0.0453  0.0877  0.0031
 7596W        W23670  16.572   1.686  14.980 -0.0110  0.0277  0.2894
 7597W        W23671  15.699  17.189  15.675  0.2776  0.0930  0.0405
 7598W        W23672  16.948  13.449   4.871  0.1303 -0.1184  0.3044
 7599W        W23673   2.628   3.805  15.759  0.2043  0.0013 -0.0598
 7600W        W23674   5.063  11.093  15.450 -0.1105 -0.0324  0.1836
 7601W        W23675   6.284   2.255   5.970 -0.1182 -0.2079 -0.1752
 7602W        W23676   0.315  10.449   2.803 -0.2121  0.3632  0.0452
 7603W        W23677   5.307   8.526  12.007  0.2057 -0.1731 -0.0206
 7604W        W23678   6.136   5.649   2.802 -0.1601 -0.0845 -0.2226
 7605W        W23679   2.492   9.141   5.034  0.1743 -0.3759 -0.1548
 7606W        W23680  11.639  12.047  15.758 -0.3154  0.0599 -0.2238
 7607W        W23681   8.472   2.541   5.768 -0.0919 -0.1097 -0.1526
 7608W        W23682  11.122  13.919   4.095 -0.0496 -0.1249 -0.1817
 7609W        W23683  14.122   6.642  15.790  0.0098  0.0537 -0.2061
 7610W        W23684  16.491  12.054   2.446 -0.0451  0.1782 -0.0110
 7611W        W23685  16.663  15.039  13.227 -0.0744 -0.0080 -0.1324
 7612W        W23686   5.435  10.194   2.932 -0.1632 -0.1311 -0.0552
 7613W        W23687   4.368  11.519   2.030 -0.0167 -0.0447 -0.1882
 7614W        W23688   6.852  13.956   4.929 -0.0831 -0.2455  0.0546
 7615W        W23689  14.640   3.383  16.544 -0.0462 -0.0941 -0.0339
 7616W        W23690   3.419   7.521   2.810 -0.1601  0.1012  0.0236
 7617W        W23691   5.412   2.902   1.893  0.0618 -0.2755  0.0793
 7618W        W23692   1.529   2.910  15.902  0.2865 -0.0729  0.1836
 7619W        W23693   3.913  10.560  16.954 -0.0804  0.1991  0.1022
 7620W        W23694   9.428  11.184   1.841 -0.2385 -0.0810 -0.0267
 7621W        W23695   4.196   1.293   2.293 -0.2640 -0.0600 -0.0681
 7622W        W23696  15.568  17.206   5.821  0.0612  0.1225  0.1837
 7623W        W23697   4.225  11.619   0.469 -0.2752  0.1515 -0.2251
 7624W        W23698   2.355  11.743  15.754  0.2761 -0.0752  0.4657
 7625W        W23699   0.699   9.571   1.977 -0.0113 -0.0722 -0.2329
 7626W        W23700  14.084  12.002  12.107 -0.3037 -0.2569 -0.0039
 7627W        W23701   6.486  10.721   0.336  0.0763  0.0959 -0.0296
 7628W        W23702   4.942  11.014   0.167  0.0623  0.0771  0.3750
 7629W        W23703   8.794  15.487  16.899 -0.3353 -0.0267 -0.1359
 7630W        W23704  14.282  14.687   5.252 -0.0187  0.1500  0.2741
 7631W        W23705  14.038   1.394  14.006  0.0229  0.1354 -0.0358
 7632W        W23706  17.442   1.179   4.746  0.1083  0.1528  0.1476
 7633W        W23707  13.120   9.152  12.867 -0.0076  0.1972  0.0837
 7634W        W23708   2.553   7.764   2.343 -0.2085  0.2985 -0.1134
 7635W        W23709   0.059   5.063   5.481  0.0551  0.0240 -0.1510
 7636W        W23710   3.424  12.389   2.042 -0.0638  0.1372  0.2920
 7637W        W23711   6.526   0.900   3.175  0.1439 -0.2046 -0.0651
 7638W        W23712  16.975  11.204  16.120  0.1424 -0.0167  0.1855
 7639W        W23713   3.145   2.441   0.671 -0.0259 -0.3237  0.2841
 7640W        W23714  11.374   2.727   0.164  0.3290  0.1292 -0.0344
 7641W        W23715  16.617  16.588   4.171 -0.3153 -0.3350  0.1871
 7642W        W23716   9.473  13.833  12.695  0.1995 -0.2829 -0.2013
 7643W        W23717  13.902   8.069   4.670  0.2944  0.0260  0.3635
 7644W        W23718   1.165  15.738   4.951  0.2997  0.2218 -0.0161
 7645W        W23719   6.674  17.041  15.990  0.0189 -0.4170  0.0955
 7646W        W23720   2.837  10.878  16.708  0.1577  0.0675 -0.1906
 7647W        W23721  17.234   5.713   1.004  0.0019  0.1392  0.1076
 7648W        W23722   5.022  11.669  13.278 -0.0332 -0.0220  0.0126
 7649W        W23723   8.110  16.966  13.677 -0.2359  0.3005 -0.5700
 7650W        W23724  13.116  12.357  14.184 -0.1128  0.0106  0.2394
 7651W        W23725  16.775  14.795  15.399  0.0470 -0.0526  0.2302
 7652W        W23726   1.785   7.343   0.292  0.1372 -0.2675  0.2713
 7653W        W23727   2.136  17.585  13.776  0.1453 -0.1022 -0.1142
 7654W        W23728   2.267   3.607  15.456  0.0656 -0.4107 -0.0171
 7655W        W23729  14.927  15.183  14.433 -0.2258 -0.1620  0.2459
 7656W        W23730   0.517   7.179   6.343 -0.0332 -0.2583 -0.1355
 7657W        W23731   1.479   6.455   0.466  0.1670  0.3926 -0.0083
 7658W        W23732   3.120   3.704  15.806  0.0004 -0.1963 -0.1143
 7659W        W23733   5.793  11.961  16.388 -0.3667 -0.1802  0.0320
 7660W        W23734   2.820   9.983  15.434 -0.2057  0.0725 -0.0246
 7661W        W23735  16.350   7.858  16.779  0.0964  0.0307 -0.1342
 7662W        W23736  14.415   5.360   5.260  0.2207 -0.0722  0.0641
 7663W        W23737   4.030   1.385  12.449  0.0537  0.1602 -0.1949
 7664W        W23738   6.539  10.190  16.820 -0.2909 -0.2113 -0.0925
 7665W        W23739  13.359   8.905  16.269 -0.1072  0.1293  0.2630
 7666W        W23740   8.516   9.857  16.501 -0.1734 -0.0565  0.2918
 7667W        W23741   3.300   7.899  16.332  0.6008  0.0538  0.0107
 7668W        W23742  13.777   0.576   3.254 -0.1006 -0.0291 -0.1759
 7669W        W23743   3.123   8.394  13.104  0.2661 -0.1944 -0.0257
 7670W        W23744  11.801  13.034   5.019  0.0269  0.0398 -0.3596
 7671W        W23745  10.659   9.955   1.714 -0.0124 -0.1105 -0.0287
 7672W        W23746   2.475   7.327  14.412 -0.2647  0.0814  0.0815
 7673W        W23747   0.316   7.579  12.583  0.0411 -0.1227  0.0773
 7674W        W23748  15.559  10.918   0.273 -0.1738 -0.1590  0.2149
 7675W        W23749  12.979   8.447   2.129  0.0328 -0.0320  0.1222
 7676W        W23750   4.876   2.259  12.221  0.1896 -0.1501 -0.1452
 7677W        W23751   9.237  11.007  14.150  0.0266  0.0882  0.0242
 7678W        W23752  15.756   5.041  11.788 -0.0312 -0.0684  0.1798
 7679W        W23753   9.591   5.434   2.496 -0.1724  0.0521 -0.0543
 7680W        W23754  17.706   4.180   1.802 -0.0132 -0.2047  0.0030
 7681W        W23755   9.508  14.433   0.913  0.0750  0.0312  0.1819
 7682W        W23756  12.209   2.149  13.425 -0.0785 -0.1487 -0.1221
 7683W        W23757   4.917   8.304  12.256  0.2074  0.0041 -0.0286
 7684W        W23758  10.536  12.791   5.212  0.0731  0.1590  0.0664
 7685W        W23759   2.871  12.603  15.376  0.5665 -0.1466  0.2684
 7686W        W23760   6.877   3.112   5.797 -0.1009 -0.0758  0.0870
 7687W        W23761  14.982  12.575   4.973  0.2457 -0.1234 -0.1139
 7688W        W23762  15.401   1.158  12.596  0.0468 -0.1627  0.0277
 7689W        W23763  12.804  13.879  12.508 -0.3804 -0.0217 -0.0781
 7690W        W23764   7.449  15.395   1.698 -0.0050  0.1461  0.3203
 7691W        W23765   7.095   1.724   4.962  0.2714  0.1385  0.0264
 7692W        W23766   1.080   4.911  14.391  0.0984  0.2596  0.4139
 7693W        W23767   7.771  14.127  12.988  0.2545  0.1118 -0.1533
 7694W        W23768  11.894   5.331  15.191  0.4505 -0.0080 -0.0015
 7695W        W23769  17.342  10.110  14.220  0.0245 -0.0713 -0.0612
 7696W        W23770   0.178  17.351   3.268  0.2166  0.1767  0.2271
 7697W        W23771  12.704  16.937  14.833 -0.1250 -0.1778 -0.1976
 7698W        W23772  12.757  12.947   0.679 -0.2771  0.1499  0.0053
 7699W        W23773   8.109   8.082  12.516  0.3997 -0.2502  0.1056
 7700W        W23774   4.299   1.999  11.398 -0.0686 -0.0631 -0.3761
 7701W        W23775   4.347   2.517  15.409  0.1084  0.0694 -0.0409
 7702W        W23776   2.999   6.423   2.072  0.0353 -0.0046  0.2018
 7703W        W23777  14.856   9.409  13.229 -0.3557 -0.1126 -0.0131
 7704W        W23778   6.275  17.847   4.500  0.1952  0.1151 -0.2142
 7705W        W23779  16.091  12.971   0.327  0.0098 -0.0286  0.2230
 7706W        W23780   5.216   6.100   4.963  0.0444  0.1029 -0.1125
 7707W        W23781  17.132   8.492   1.258 -0.0788 -0.0196  0.2107
 7708W        W23782   7.201   0.018   1.216 -0.1331 -0.2253  0.1271
 7709W        W23783  10.655   7.826  14.374 -0.0335  0.2792  0.0198
 7710W        W23784   1.210  14.697   2.253 -0.0913 -0.1585  0.0770
 7711W        W23785   1.160  17.143  13.019  0.2115 -0.0756 -0.1137
 7712W        W23786   0.777   4.742  13.489 -0.1037  0.3439  0.3712
 7713W        W23787  12.909   0.810   3.385 -0.0829 -0.1079  0.3491
 7714W        W23788   0.319  15.038  16.033  0.1368  0.0577  0.1407
 7715W        W23789   0.777  11.871   0.271  0.0033 -0.2110 -0.0723
 7716W        W23790   7.347  16.357  12.495  0.1814  0.0496 -0.2224
 7717W        W23791  17.730   4.296   4.111  0.1760 -0.2115  0.0316
 7718W        W23792  11.562  14.940   1.077  0.1057  0.1924 -0.0072
 7719W        W23793   7.407   4.516  16.322  0.1211 -0.1816  0.1095
 7720W        W23794   7.587  15.984   0.524 -0.1780  0.0578 -0.0053
 7721W        W23795   3.975  10.228  14.635 -0.2513  0.2069 -0.2357
 7722W        W23796  16.893   7.059   4.976 -0.3831  0.2773  0.1649
 7723W        W23797   6.566  14.011   2.052  0.0710  0.1619  0.0866
 7724W        W23798  14.971  13.854  12.574  0.1314 -0.0005  0.0816
 7725W        W23799   6.960  14.194  14.607  0.0142 -0.2221 -0.0351
 7726W        W23800   8.763   9.375  13.771  0.3002 -0.1568 -0.2047
 7727W        W23801   2.440  15.738   2.178 -0.1987 -0.1543  0.1539
 7728W        W23802  11.494   5.308  16.286  0.3821  0.0903 -0.1064
 7729W        W23803   6.715   1.537  16.574  0.0078  0.0785  0.1247
 7730W        W23804   5.508  10.457   5.543 -0.0362  0.0400  0.4111
 7731W        W23805   8.425  12.193  13.705  0.3952  0.3007 -0.0562
 7732W        W23806   2.015   9.755  15.733 -0.0669 -0.0801 -0.0915
 7733W        W23807  11.371  16.354  14.540  0.0867 -0.3347 -0.0601
 7734W        W23808  15.609   3.573   1.216  0.0583 -0.2445 -0.0038
 7735W        W23809   9.225   5.251   0.586 -0.1741  0.1633 -0.1901
 7736W        W23810   7.632   4.245  11.411  0.1222  0.4393 -0.1102
 7737W        W23811   9.916   6.867  12.611  0.1880  0.1790 -0.0331
 7738W        W23812  17.018   5.584  14.624 -0.0305  0.0530  0.1699
 7739W        W23813   9.820   9.317   2.691 -0.0942  0.1649  0.0272
 7740W        W23814  15.496   6.780   5.171  0.0882  0.3290 -0.1786
 7741W        W23815  12.269   6.424   3.158 -0.0708 -0.1327  0.0350
 7742W        W23816   6.311   4.334  12.728 -0.1631  0.1175  0.0760
 7743W        W23817   3.917   2.331  15.634  0.1869 -0.2517  0.5346
 7744W        W23818   7.851   3.587  16.386  0.0848  0.0667  0.0347
 7745W        W23819  17.740  10.601   0.908 -0.0219 -0.4198 -0.1766
 7746W        W23820   9.036  14.462   1.079 -0.0854 -0.2684 -0.1470
 7747W        W23821   4.284  16.613   2.937  0.0220  0.0600  0.0870
 7748W        W23822   9.226   6.217   3.161  0.0313 -0.2713 -0.0060
 7749W        W23823   1.585  12.898   1.883 -0.1196 -0.0504  0.0641
 7750W        W23824  12.852   4.607   2.456  0.2473 -0.1662 -0.0107
 7751W        W23825   5.743  12.101   5.784 -0.1680  0.0243  0.1663
 7752W        W23826   1.166   2.889   3.038  0.4078 -0.0111 -0.0104
 7753W        W23827   1.789   1.597  13.202 -0.0331  0.1212  0.0437
 7754W        W23828  16.582  17.673  12.522  0.1607 -0.1493  0.0634
 7755W        W23829   8.106   9.290   3.880 -0.3088 -0.0482  0.2690
 7756W        W23830   0.267   0.178   6.206  0.0398 -0.1595  0.2166
 7757W        W23831   4.635  14.663  14.715 -0.0828  0.0711  0.0976
 7758W        W23832   3.686  17.193   6.072  0.0278  0.0479  0.0255
 7759W        W23833  15.538  11.411   5.541 -0.0713  0.0749 -0.1150
 7760W        W23834   4.580  17.154  15.939  0.1560 -0.2447 -0.4356
 7761W        W23835   1.402   8.198  16.418 -0.1332  0.0099  0.0846
 7762W        W23836   4.768  14.675  11.182  0.1641 -0.0913 -0.0671
 7763W        W23837   5.218   9.442   6.534 -0.0888  0.1132 -0.1030
 7764W        W23838  15.366   6.487  12.537  0.1370 -0.0928 -0.1686
 7765W        W23839   7.463  13.021   4.051 -0.1602  0.0968  0.0356
 7766W        W23840   7.256   9.208   1.510 -0.4158 -0.0402  0.0223
 7767W        W23841  11.611   7.740  14.517 -0.3663  0.0333 -0.0765
 7768W        W23842   6.466   5.813   2.027  0.0740 -0.3293 -0.0877
 7769W        W23843  15.233   7.877  12.430  0.1262  0.0177  0.2296
 7770W        W23844   9.807  11.794   2.532 -0.0430  0.2363  0.0676
 7771W        W23845  16.647  10.427   2.670 -0.0813  0.0708  0.0044
 7772W        W23846   2.819   5.345   0.907  0.0564  0.0595 -0.1017
 7773W        W23847   4.114   2.110   0.518  0.0598  0.1183 -0.1225
 7774W        W23848   3.899   1.599   2.032 -0.2959 -0.1612  0.1148
 7775W        W23849  14.337  10.245  14.216  0.3076 -0.0709 -0.4186
 7776W        W23850  14.529   7.824  14.825  0.2106 -0.0681 -0.0985
 7777W        W23851   1.807   4.579   1.507 -0.0893  0.2200 -0.2480
 7778W        W23852  15.184  10.851   1.031 -0.0425  0.0609  0.1080
 7779W        W23853  15.908   0.894   6.025  0.3398  0.1907  0.0890
 7780W        W23854  16.914  14.611   2.829  0.1187 -0.3570  0.0958
 7781W        W23855   4.654  11.297  15.071 -0.0806  0.2754 -0.1267
 7782W        W23856  12.985  16.831   3.426 -0.1064 -0.1140 -0.1740
 7783W        W23857  15.611   9.932   0.047  0.1583 -0.1702  0.3263
 7784W        W23858   2.950  10.410   2.188 -0.4326 -0.1339 -0.1038
 7785W        W23859   4.580  17.016   4.129  0.0700  0.0569  0.0786
 7786W        W23860   5.874  11.787   0.816  0.0120  0.0983  0.3095
 7787W        W23861   0.164   3.084   1.825 -0.0318  0.1890 -0.0002
 7788W        W23862  10.941  15.988   5.713 -0.4383  0.0429 -0.1274
 7789W        W23863  13.714   1.585   0.841  0.0866  0.1410 -0.3018
 7790W        W23864  16.836   4.143   5.027 -0.3066 -0.1951  0.1833
 7791W        W23865   0.151  12.662   4.191  0.4211  0.0365 -0.0011
 7792W        W23866   7.016  14.872  13.979 -0.3926 -0.2329 -0.1914
 7793W        W23867   3.001  14.107  13.799 -0.3141 -0.1381  0.0948
 7794W        W23868   9.959   6.535  11.618 -0.2495  0.3434 -0.3936
 7795W        W23869  12.852   7.185  15.585  0.0797 -0.1620  0.0223
 7796W        W23870   3.038   3.261   3.300  0.1055 -0.1136 -0.1391
 7797W        W23871   3.699  15.188  12.473  0.3833  0.0157 -0.1800
 7798W        W23872   2.455  10.399   4.335 -0.0113  0.2140  0.3609
 7799W        W23873   3.160  10.687   5.299  0.0021 -0.0272 -0.2228
 7800W        W23874   1.559  10.166   4.628 -0.0740  0.1548  0.1878
 7801W        W23875  12.389   5.319   3.843  0.1707  0.2451  0.2192
 7802W        W23876  15.733   6.354   1.489  0.2075 -0.1204  0.1769
 7803W        W23877   3.718   3.799   0.570 -0.0828  0.1482  0.0022
 7804W        W23878  11.678  15.106  16.687 -0.2304 -0.0680  0.0196
 7805W        W23879  17.378   3.662  13.265  0.1284 -0.1164  0.3289
 7806W        W23880   0.370  14.337   0.696 -0.0925  0.3137  0.0240
 7807W        W23881  10.519   3.063  13.854  0.0823 -0.2595 -0.1536
 7808W        W23882   2.815  11.336   0.401  0.0522  0.0474 -0.0355
 7809W        W23883   1.707  15.660   0.105  0.1372 -0.2470  0.2581
 7810W        W23884  11.942  12.093  12.698  0.2690  0.0490 -0.0920
 7811W        W23885  16.536  14.260   2.098  0.0869  0.1446 -0.2142
 7812W        W23886   8.992   3.304  13.643 -0.1097  0.3761 -0.4795
 7813W        W23887   1.393  11.646  13.657  0.2377 -0.1364 -0.0659
 7814W        W23888   7.981   5.185  13.657 -0.1294 -0.1044  0.1558
 7815W        W23889   1.676   6.324   3.664  0.2264 -0.1563 -0.2993
 7816W        W23890  14.623  16.831   3.831  0.0222  0.1486 -0.0771
 7817W        W23891   0.544  14.218  15.637  0.4041 -0.1326 -0.0378
 7818W        W23892  12.819   0.469  16.681  0.2127 -0.3152 -0.0027
 7819W        W23893   0.059   9.238   2.717  0.1230  0.1057 -0.1545
 7820W        W23894   8.373  16.086  16.581 -0.0830 -0.4104  0.2215
 7821W        W23895  14.393   4.219   4.910 -0.1526 -0.3104  0.1242
 7822W        W23896  13.870   5.821  13.758 -0.3294 -0.2241  0.0959
 7823W        W23897   9.218  17.063   1.745  0.2507  0.0485  0.0376
 7824W        W23898   0.049   2.885   5.266  0.1200  0.1072 -0.5434
 7825W        W23899  16.901  17.833   4.487  0.2273 -0.1854 -0.3426
 7826W        W23900   4.853   3.314   3.074 -0.1835  0.0270 -0.1334
 7827W        W23901   6.192  17.363  15.716  0.0399 -0.0910  0.0562
 7828W        W23902   0.519   8.249  13.802 -0.0049  0.1282 -0.1540
 7829W        W23903   8.611  17.760   1.794  0.1143  0.1451 -0.0984
 7830W        W23904   6.709  11.411   0.464  0.1312 -0.1469  0.1416
 7831W        W23905   7.404   3.606   3.641  0.0835  0.1121 -0.1925
 7832W        W23906  16.801   2.105  14.886  0.1113 -0.2192  0.1005
 7833W        W23907  11.567  15.910   0.054  0.3439  0.0657  0.0127
 7834W        W23908  15.320   7.137   2.534 -0.3401 -0.0398 -0.1613
 7835W        W23909  16.280  10.175  14.386 -0.0052 -0.0441 -0.1002
 7836W        W23910   6.234   3.389  12.352 -0.1930 -0.1210 -0.2517
 7837W        W23911   8.760  13.034  15.361  0.1904  0.2382 -0.1979
 7838W        W23912  12.068   0.029   3.940  0.1322 -0.2036 -0.2932
 7839W        W23913   1.738  12.372   2.465  0.0924  0.2247 -0.0180
 7840W        W23914   2.989  12.382   5.295  0.0983  0.1361 -0.1655
 7841W        W23915   7.658   0.705   5.301 -0.0503  0.4253 -0.0904
 7842W        W23916   9.846  15.749   4.897  0.2521 -0.1573  0.1492
 7843W        W23917  12.259  12.031  16.024  0.1966  0.0192 -0.0689
 7844W        W23918   7.183  16.575  13.212  0.0923  0.1631 -0.2808
 7845W        W23919   6.363  13.798  15.459  0.1859  0.0736 -0.2143
 7846W        W23920   9.001  17.131  12.482 -0.0596 -0.0567  0.1601
 7847W        W23921   0.923   6.904   1.854 -0.1969  0.1074  0.1194
 7848W        W23922  13.463   8.940   2.026  0.1230 -0.3273  0.2381
 7849W        W23923  15.435  11.662   3.361 -0.0997 -0.3273  0.1427
 7850W        W23924   3.699  13.502  16.062  0.0649  0.3532 -0.1796
 7851W        W23925   0.062   9.538  15.955 -0.0152 -0.1164 -0.0524
 7852W        W23926   9.173  17.172   5.013 -0.3261  0.4903  0.1028
 7853W        W23927  16.595  13.719   2.913 -0.0598 -0.2145 -0.1962
 7854W        W23928   1.520   9.908   6.288 -0.0953  0.1312 -0.0158
 7855W        W23929   4.951   5.442   5.698  0.1133  0.0254 -0.3010
 7856W        W23930   2.927   8.940   3.476  0.0256  0.0968  0.1300
 7857W        W23931  14.423  12.661  16.001 -0.0438  0.0109 -0.1879
 7858W        W23932   5.152  17.552   6.234  0.1235  0.0293 -0.1804
 7859W        W23933  10.232  14.392   0.374 -0.1966  0.1379  0.1545
 7860W        W23934  14.935   2.764   0.707  0.0408 -0.0303 -0.1175
 7861W        W23935  16.395  16.203   2.988 -0.2366  0.1332  0.1056
 7862W        W23936  10.131   7.784   2.803  0.0265 -0.0530 -0.0679
 7863W        W23937   1.048  17.520  14.874 -0.1327  0.1917  0.1677
 7864W        W23938   7.532   7.927   3.038 -0.3326 -0.0263  0.1197
 7865W        W23939  10.484   6.788   1.641 -0.0399  0.2827  0.3639
 7866W        W23940   2.520  16.879  12.026 -0.0189  0.1142 -0.0152
 7867W        W23941   8.185  13.349   2.313 -0.0245  0.2382  0.2932
 7868W        W23942   2.299  10.654   0.659  0.1764 -0.3651  0.0677
 7869W        W23943   6.336   4.978  16.553 -0.2802  0.0318  0.2587
 7870W        W23944  10.892   4.379   2.820 -0.0738 -0.1457 -0.0112
 7871W        W23945   6.304  16.962  13.332  0.2793  0.0989 -0.0335
 7872W        W23946   3.820   4.556   3.946  0.1279 -0.1795 -0.1494
 7873W        W23947   5.453   0.215  14.661  0.0899  0.0878 -0.1354
 7874W        W23948   0.622   3.686   5.021  0.1650 -0.2002  0.0247
 7875W        W23949  17.734   7.794  14.242 -0.1043 -0.0147  0.2242
 7876W        W23950   8.157  11.260  12.085  0.1117  0.0004  0.2293
 7877W        W23951  10.479   4.427  16.715  0.1474  0.0334 -0.0772
 7878W        W23952  14.987   9.070   3.192  0.0060  0.0798 -0.1585
 7879W        W23953   4.820  10.441  14.644  0.0391 -0.0744  0.2353
 7880W        W23954   9.799  12.060   2.133 -0.1196 -0.0509  0.2538
 7881W        W23955  11.229   4.323   5.249 -0.3633  0.1766 -0.0847
 7882W        W23956   5.770  10.448   5.035  0.0888  0.2058  0.0460
 7883W        W23957   7.529  14.828  12.253  0.1690 -0.1416  0.0661
 7884W        W23958   7.787   5.715  16.896 -0.1108 -0.1726 -0.1514
 7885W        W23959  10.805   6.508  16.910 -0.1598  0.1205 -0.0048
 7886W        W23960   9.348  13.482  14.779  0.1073 -0.2874  0.0734
 7887W        W23961   6.583  13.465   3.587  0.0298 -0.2762 -0.0969
 7888W        W23962   0.774  12.912  14.181  0.0989  0.1083  0.2039
 7889W        W23963   3.985   8.010   0.979 -0.2146  0.1603  0.1252
 7890W        W23964  11.636   7.669  13.939 -0.3493 -0.1226  0.2287
 7891W        W23965   1.559   1.161  14.010 -0.1566 -0.1334  0.2629
 7892W        W23966   1.550   9.456  12.971  0.0302 -0.1818 -0.0811
 7893W        W23967   4.550  12.999   3.361  0.1075 -0.0755 -0.1121
 7894W        W23968  15.603   5.240  16.845 -0.4377  0.4288 -0.2443
 7895W        W23969   0.090   8.165   1.757  0.0873 -0.1662  0.1628
 7896W        W23970   0.128   0.325   6.645 -0.0202 -0.2288 -0.2183
 7897W        W23971  16.443   8.012  14.532 -0.2038  0.3125 -0.0548
 7898W        W23972   6.573   2.004  16.478  0.3674 -0.1245  0.1384
 7899W        W23973   8.082   7.168   1.973  0.1876  0.1001  0.0531
 7900W        W23974   1.536   9.613  15.552  0.1807  0.1818 -0.3007
 7901W        W23975   2.484   8.295   5.079  0.0691 -0.3913  0.0567
 7902W        W23976  17.603   2.157  14.395 -0.0823 -0.2644 -0.5639
 7903W        W23977  12.113  13.948  14.088  0.0389 -0.0328  0.0511
 7904W        W23978  12.453   2.304   4.594  0.0760 -0.0544  0.1040
 7905W        W23979   3.443   3.770  13.563  0.0558  0.3215 -0.0878
 7906W        W23980   5.012  10.365   4.572 -0.1666 -0.0665  0.0507
 7907W        W23981  17.757  15.633  11.806  0.1778  0.1737 -0.0007
 7908W        W23982   3.201   5.518   2.571  0.4062 -0.1381  0.1572
 7909W        W23983  15.742   7.556   1.856 -0.2833  0.0429 -0.1823
 7910W        W23984   4.128  14.726  12.430 -0.0188  0.0368 -0.1906
 7911W        W23985  15.384   0.756   5.546 -0.1552  0.2905  0.0357
 7912W        W23986  10.759  14.221   3.610  0.2149 -0.2511  0.0897
 7913W        W23987  10.077  14.894  12.793 -0.2872  0.1031 -0.4309
 7914W        W23988  17.609   4.046   1.263 -0.0658 -0.1855  0.1858
 7915W        W23989   4.180  10.712  15.953  0.1325  0.0230 -0.2136
 7916W        W23990  13.055  15.968  13.965 -0.1066 -0.1802  0.2374
 7917W        W23991  11.974   1.254   2.653  0.3191  0.1755 -0.0646
 7918W        W23992  11.478  15.727  16.409  0.0162 -0.2227  0.0096
 7919W        W23993  16.332   6.730  12.749  0.2324 -0.3039  0.2547
 7920W        W23994   6.678  16.138   2.973  0.2529 -0.2927  0.2776
 7921W        W23995  16.161  11.757  12.585 -0.2999 -0.2272  0.3216
 7922W        W23996   2.561   7.022   0.392 -0.0953  0.0324 -0.2875
 7923W        W23997   6.008   6.954  12.008 -0.0732 -0.0868  0.3892
 7924W        W23998   8.421   8.035   0.517  0.1422 -0.1953 -0.0077
 7925W        W23999  13.437  12.911   1.527 -0.1151  0.1098  0.0687
 7926W        W24000   7.746   3.756  11.949 -0.1908 -0.0471 -0.0667
 7927W        W24001   7.070  12.453   1.177 -0.1880  0.1353  0.1168
 7928W        W24002   0.745  14.013   5.607  0.4914  0.2619  0.1287
 7929W        W24003  10.536  14.152   4.911  0.0465  0.2394  0.0430
 7930W        W24004   2.567  12.051   0.940 -0.3905 -0.2285  0.1896
 7931W        W24005  11.817   6.635   4.280  0.5252  0.0458  0.0435
 7932W        W24006  15.734   6.570   4.442  0.0419 -0.0530  0.1342
 7933W        W24007   6.849   4.218   5.824  0.2027  0.1766  0.1234
 7934W        W24008   3.875   0.809   0.441 -0.0066  0.3472  0.1085
 7935W        W24009  12.549   9.320   1.248  0.0276  0.5151 -0.0546
 7936W        W24010   4.038  13.012   3.285 -0.2064  0.0094  0.3054
 7937W        W24011  17.052   2.129  11.934  0.0152  0.3630 -0.1896
 7938W        W24012   0.787   7.099   5.944 -0.4077  0.0597 -0.0937
 7939W        W24013  11.767   9.249  13.041 -0.0178  0.1067  0.1069
 7940W        W24014   2.508   6.261  14.861  0.0306 -0.0765 -0.3559
 7941W        W24015  15.479  15.376   6.441 -0.0853 -0.0780  0.1754
 7942W        W24016   6.501  16.199  16.800 -0.1972  0.0681  0.1499
 7943W        W24017   5.986  17.646   0.829 -0.0014 -0.0769  0.0610
 7944W        W24018  10.999  10.444   5.265 -0.0568 -0.2942 -0.2221
 7945W        W24019  11.853   3.985   5.829 -0.0211  0.1744  0.0034
 7946W        W24020   3.453  16.146  15.422  0.1235 -0.0721  0.0071
 7947W        W24021   2.547  17.349  12.923 -0.0780 -0.0531 -0.0803
 7948W        W24022   6.955  13.969  13.724  0.0702  0.1256  0.1758
 7949W        W24023  12.431  10.777  13.899 -0.1926  0.0284 -0.0673
 7950W        W24024  12.938   3.867  12.912 -0.0767  0.3083 -0.2449
 7951W        W24025  10.524  15.572   2.176 -0.0717 -0.2952  0.0968
 7952W        W24026  11.845  15.324   0.799 -0.2041  0.0268 -0.2168
 7953W        W24027  16.221   0.615  14.180 -0.0652 -0.1011 -0.1382
 7954W        W24028   6.775   6.251   0.026 -0.2423 -0.0023 -0.3626
 7955W        W24029   3.467  10.663   1.324 -0.0916  0.0511  0.1689
 7956W        W24030   6.601   6.618   1.589  0.1637 -0.0551  0.0712
 7957W        W24031   3.783  11.894  12.548 -0.1024  0.3518  0.0963
 7958W        W24032  14.592   0.234   3.387 -0.1581 -0.0207 -0.0345
 7959W        W24033  14.664  17.691  15.609 -0.1070 -0.1727  0.0667
 7960W        W24034   9.609   6.213   4.211 -0.2054 -0.0993  0.1386
 7961W        W24035   6.473  14.214   1.046  0.0219 -0.0506  0.1842
 7962W        W24036  16.755  15.269   4.231  0.0742 -0.2460  0.1670
 7963W        W24037  10.653  12.732   2.254 -0.3025  0.0881  0.0058
 7964W        W24038  12.513  15.654   4.854 -0.0171 -0.0440 -0.1208
 7965W        W24039  14.366  15.524   1.567  0.2135 -0.0911  0.0691
 7966W        W24040   3.390   5.403  11.769  0.2146 -0.1075 -0.0009
 7967W        W24041   4.134   7.073  15.854 -0.0758  0.1497 -0.1680
 7968W        W24042   8.639   4.758   4.226  0.0458  0.1665 -0.0940
 7969W        W24043  12.970  12.220  16.638  0.1224  0.1859 -0.0460
 7970W        W24044   0.687   6.317   3.086 -0.0933 -0.2375 -0.2094
 7971W        W24045  10.301  17.558  15.102  0.1016  0.0878 -0.1273
 7972W        W24046  10.115  12.415  14.693  0.2936 -0.1990 -0.0055
 7973W        W24047   0.712  13.368   1.645 -0.0945 -0.0660  0.4404
 7974W        W24048   3.007  16.025   4.246 -0.1256 -0.0239 -0.2859
 7975W        W24049  11.783  17.247  14.548  0.0297  0.0358  0.1503
 7976W        W24050  10.129  14.671   4.777  0.1137 -0.0486  0.2089
 7977W        W24051  14.155   6.366   2.908  0.1875 -0.0261  0.1840
 7978W        W24052   8.107  16.647  15.204  0.2096 -0.0546 -0.0660
 7979W        W24053  17.153  11.049   1.610 -0.1146  0.1166  0.1054
 7980W        W24054   0.411   8.168   5.221  0.0879  0.1930 -0.0109
 7981W        W24055   6.055  12.355  12.592 -0.4463  0.0926  0.1109
 7982W        W24056   0.666   2.805  15.662  0.5402  0.2303  0.5076
 7983W        W24057   3.634   7.308  15.240 -0.3533 -0.0957 -0.0557
 7984W        W24058   5.203   5.564   0.490  0.0897  0.1243  0.2810
 7985W        W24059   3.364  13.097  14.911 -0.3518 -0.1542  0.2739
 7986W        W24060  16.671  10.110   2.173  0.1666 -0.0107 -0.0539
 7987W        W24061  14.488   6.613   0.887  0.1308  0.2275  0.0420
 7988W        W24062   7.493   0.888   0.807  0.0686 -0.1671  0.0892
 7989W        W24063  17.304   2.677   0.814  0.1118  0.0357  0.0703
 7990W        W24064   2.263  14.769   3.752 -0.2956 -0.4008 -0.1519
 7991W        W24065  14.229  10.724  11.600  0.2245  0.0603 -0.6000
 7992W        W24066   3.330  15.658   4.449  0.0330 -0.1552 -0.2580
 7993W        W24067   0.044   0.617  14.610  0.2775 -0.2518  0.1013
 7994W        W24068   1.551   1.759   1.637  0.1504  0.1487  0.3335
 7995W        W24069  17.144  16.054   3.900  0.0389  0.0765 -0.3716
 7996W        W24070  13.945   3.867  16.511  0.2223 -0.2013  0.1419
 7997W        W24071  13.440   9.150   5.649  0.1640  0.0513 -0.0486
 7998W        W24072  14.996   1.934  13.205  0.1965  0.3917  0.1516
 7999W        W24073   9.239   5.219  11.232  0.0665 -0.2010 -0.0721
 8000W        W24074   2.472  12.338  13.432 -0.4014  0.1994  0.2482
 8001W        W24075   9.752  17.554   5.922  0.0841 -0.2295 -0.1674
 8002W        W24076   3.941  13.671  12.860 -0.1363  0.1547  0.0803
 8003W        W24077  16.981   7.434  12.968 -0.1421 -0.2615  0.5029
 8004W        W24078  13.121   8.310   0.037  0.0233 -0.0280  0.0219
 8005W        W24079   9.572   0.520   3.204  0.0150  0.0508 -0.0004
 8006W        W24080   2.823   5.026  16.220 -0.2095 -0.1228  0.1021
 8007W        W24081  17.065   7.439   4.223 -0.1792  0.1250 -0.1304
 8008W        W24082   3.142   3.951  11.657 -0.0361 -0.0367  0.3155
 8009W        W24083  15.666  16.544  12.652  0.0512  0.1198  0.2743
 8010W        W24084   3.477   5.764  16.397 -0.1900 -0.0516 -0.0071
 8011W        W24085   9.804  15.256  11.558  0.1015  0.2167  0.1166
 8012W        W24086   7.419   8.939  15.144 -0.1499 -0.2094  0.1618
 8013W        W24087   8.103  17.101   2.672 -0.2189  0.1851 -0.1174
 8014W        W24088  16.818   5.053  16.617  0.2196 -0.3321 -0.0947
 8015W        W24089  12.364   3.806   3.760 -0.0043 -0.0031  0.0688
 8016W        W24090   6.960   9.856  13.775  0.3352  0.1760 -0.0014
 8017W        W24091  11.551   7.469   1.849 -0.0588  0.0048  0.1369
 8018W        W24092  16.321   6.749  14.767 -0.0645 -0.1779  0.0395
 8019W        W24093  16.438  10.395   4.730  0.1378 -0.1470 -0.2245
 8020W        W24094  14.649   8.690   1.311 -0.1338 -0.1858 -0.2820
 8021W        W24095   1.151  15.818   4.456 -0.3155  0.0010 -0.0198
 8022W        W24096  16.426  10.925   3.299 -0.1105 -0.0700  0.0556
 8023W        W24097   6.536   6.724   3.135  0.0190  0.2262  0.3152
 8024W        W24098   9.200  10.111  14.445  0.2202  0.3428 -0.0019
 8025W        W24099   8.143  14.830  12.385  0.4247  0.1689 -0.0312
 8026W        W24100  15.515  12.899   0.451  0.0059  0.0719 -0.2937
 8027W        W24101  10.797   9.248   5.240 -0.2637  0.2789  0.2093
 8028W        W24102   0.088   8.680   3.832  0.0422 -0.1654  0.0487
 8029W        W24103   7.425  14.308  12.165  0.0187 -0.0267  0.1632
 8030W        W24104   6.543   2.843  15.379  0.0488  0.0368 -0.0067
 8031W        W24105   8.783   1.211   1.324  0.0849 -0.1865 -0.1307
 8032W        W24106  10.518  16.212  13.372  0.1443 -0.0475  0.1707
 8033W        W24107   1.982  16.571   0.554  0.2529 -0.2726 -0.1309
 8034W        W24108   8.190   7.036  14.607 -0.0312  0.2186 -0.1896
 8035W        W24109  14.514  17.401   3.791  0.0665 -0.0148 -0.0572
 8036W        W24110  12.090  14.509   0.541 -0.1788  0.2594 -0.0394
 8037W        W24111   0.668   2.259  12.773  0.0329  0.0897  0.1539
 8038W        W24112  13.582   8.410  16.770 -0.0266  0.2090 -0.2499
 8039W        W24113  11.988   9.890  12.907  0.0606  0.1743 -0.1700
 8040W        W24114   5.658  12.716  11.580 -0.0845 -0.0363  0.1646
 8041W        W24115   2.842   4.839   1.611 -0.0506  0.0424  0.0180
 8042W        W24116   1.621  11.649   4.888  0.2487  0.2906  0.3203
 8043W        W24117   5.656   1.108   5.152  0.0452  0.2320  0.1835
 8044W        W24118   1.961  15.299  14.283 -0.2755  0.0690 -0.1980
 8045W        W24119  17.211  10.643  16.226  0.1616 -0.1813 -0.0280
 8046W        W24120   6.854  17.533   1.195 -0.1096  0.1188 -0.1067
 8047W        W24121  14.074  12.463   2.498 -0.0131 -0.1495 -0.2035
 8048W        W24122   4.156   3.689   1.428  0.0153 -0.1178 -0.0479
 8049W        W24123  15.468   6.375  15.120  0.0025 -0.4240 -0.0008
 8050W        W24124   2.394   1.509  15.649 -0.1300  0.0433  0.4392
 8051W        W24125   2.157   6.554   1.854  0.1022 -0.2133 -0.0925
 8052W        W24126  12.993  15.414  14.255 -0.0023  0.0619  0.1291
 8053W        W24127  10.273  10.073   0.798  0.1129 -0.1584  0.0766
 8054W        W24128   8.068  11.806  12.726 -0.2079  0.1137  0.0667
 8055W        W24129   1.580   7.695  16.351  0.2216  0.0646 -0.3845
 8056W        W24130  10.059  11.521  12.269 -0.2438 -0.3698 -0.2415
 8057W        W24131   6.793   9.833   3.486  0.0652 -0.0587  0.1068
 8058W        W24132  15.326   6.064   5.823 -0.2689 -0.2596  0.1647
 8059W        W24133   4.128  17.088  13.434  0.2650 -0.1338  0.1212
 8060W        W24134  16.037  14.255   0.883 -0.3703 -0.1901 -0.2386
 8061W        W24135   4.128   6.595   3.103 -0.1090 -0.0169 -0.2483
 8062W        W24136   1.347  10.747  13.066 -0.2005  0.0113 -0.1211
 8063W        W24137   4.575  12.544  14.390 -0.1892 -0.0377 -0.0256
 8064W        W24138  14.156  13.203  16.915  0.2505 -0.0581 -0.2614
 8065W        W24139   7.266  10.177   1.502  0.4384 -0.4124 -0.1972
 8066W        W24140  17.507  14.233   2.727 -0.3409 -0.2230 -0.1350
 8067W        W24141   2.540   1.681  13.644  0.2510  0.0085 -0.1861
 8068W        W24142   3.479  12.119  15.623  0.0946 -0.0447 -0.3682
 8069W        W24143  10.265   1.903   0.568  0.1228 -0.2207 -0.0868
 8070W        W24144  10.244   4.532  13.773  0.0782 -0.4564  0.2959
 8071W        W24145   8.574  16.893   0.302  0.2117 -0.1744 -0.1849
 8072W        W24146  10.033   3.353   1.543  0.0145 -0.0093  0.1982
 8073W        W24147  10.000   0.452   5.336 -0.1788 -0.1156 -0.0452
 8074W        W24148  16.245   4.963   1.878 -0.0461 -0.0631  0.0697
 8075W        W24149  16.019  17.131  13.595 -0.1268 -0.3710  0.1496
 8076W        W24150  12.221  11.146  12.874  0.0594  0.1331 -0.2715
 8077W        W24151  16.471  14.102  14.784  0.3974  0.2659  0.6056
 8078W        W24152  14.932   4.167   4.397  0.2847 -0.3357 -0.0139
 8079W        W24153   2.179   4.413  11.710 -0.0262  0.1447 -0.0453
 8080W        W24154  13.043   3.385  11.763  0.1210  0.1504 -0.0033
 8081W        W24155  14.928   7.725  13.188 -0.1680  0.2970 -0.3295
 8082W        W24156  11.006  15.454  12.497  0.0247  0.1439 -0.0439
 8083W        W24157   5.977  14.932   1.110 -0.2369  0.1512  0.0078
 8084W        W24158   2.480  17.472  13.436 -0.3143  0.1603  0.0536
 8085W        W24159   9.995  15.539   6.066  0.2540  0.1853  0.3403
 8086W        W24160   6.715   8.730   5.020 -0.1246  0.0674  0.1014
 8087W        W24161   0.188   7.694  13.208 -0.2054 -0.1035  0.3719
 8088W        W24162   7.285   4.465   1.492  0.1966 -0.0245  0.0683
 8089W        W24163  13.294   6.007   2.005 -0.0945  0.1288 -0.0222
 8090W        W24164   1.656  12.926  13.414  0.1220  0.0241  0.1307
 8091W        W24165  11.068  13.350  13.964 -0.0131  0.0833  0.2249
 8092W        W24166   8.927   7.337  14.990  0.0575  0.0389 -0.0146
 8093W        W24167  10.089  16.060  11.918  0.2413  0.1379 -0.0224
 8094W        W24168  10.707   1.943  15.588 -0.0450  0.0659  0.0024
 8095W        W24169   7.211   2.558   5.175  0.0171  0.0031  0.0428
 8096W        W24170  14.434  17.165  14.988 -0.4056  0.1970 -0.0061
 8097W        W24171   3.894   1.829  15.539  0.0509  0.2356 -0.1630
 8098W        W24172   6.268   6.339   4.280  0.2104  0.2484  0.2127
 8099W        W24173   3.498   0.900  16.740 -0.1286  0.1202 -0.4985
 8100W        W24174   9.443  17.612   2.352  0.1024  0.0977  0.0213
 8101W        W24175   5.511  13.342  15.395  0.2168  0.2130  0.1432
 8102W        W24176  17.554   1.245  14.245  0.0033  0.5074 -0.1277
 8103W        W24177   9.243  10.424   3.377 -0.0301  0.0069  0.2247
 8104W        W24178   9.558   1.031   0.067  0.1235 -0.1333 -0.0960
 8105W        W24179   4.756   6.731   2.308 -0.1166  0.2202  0.1924
 8106W        W24180   5.431   3.126   0.394  0.2244 -0.0847  0.2160
 8107W        W24181   7.012   5.221   3.535  0.3171 -0.0129 -0.2746
 8108W        W24182   8.002   7.827   3.324  0.4620 -0.0317 -0.2795
 8109W        W24183   5.574   7.512   1.629  0.0365 -0.1829  0.1431
 8110W        W24184  13.263  11.099   3.862 -0.2593  0.0186  0.0076
 8111W        W24185   5.543   7.153   2.115 -0.2194 -0.2230 -0.1436
 8112W        W24186  17.001   4.647   1.393 -0.2013  0.1007 -0.1865
 8113W        W24187   5.652  10.032   5.152  0.0165  0.3334 -0.0455
 8114W        W24188   0.099  12.699   1.680  0.1107 -0.0452 -0.1592
 8115W        W24189   6.181  14.519   4.290  0.1181  0.0636 -0.1327
 8116W        W24190  15.852   3.761  14.691 -0.0351  0.0407 -0.0187
 8117W        W24191  13.083   6.935   1.065 -0.1618  0.0248  0.3804
 8118W        W24192  11.245   3.241  13.346 -0.3784  0.0335  0.0468
 8119W        W24193  16.681  14.100  12.659  0.0713 -0.0976  0.1241
 8120W        W24194   5.495  14.197  14.943  0.4828  0.1906 -0.1237
 8121W        W24195  15.237   2.801   2.638 -0.0668 -0.1474  0.0639
 8122W        W24196  10.365   1.960   3.621  0.2078 -0.3777  0.1370
 8123W        W24197   8.158   4.598   0.417  0.0351 -0.0105 -0.2239
 8124W        W24198   6.976   0.386   5.037  0.3148  0.1071  0.0538
 8125W        W24199   5.738   9.338  16.416 -0.3122 -0.1137 -0.0938
 8126W        W24200  13.994   6.995   5.683 -0.4573 -0.2160 -0.1132
 8127W        W24201   9.913   7.822   0.959 -0.2105 -0.0450  0.0353
 8128W        W24202  15.670  13.526   2.008 -0.0981 -0.2810  0.3982
 8129W        W24203  12.741   2.368   0.656  0.6459  0.0225 -0.0446
 8130W        W24204   9.797  14.824   1.756 -0.3754 -0.0054 -0.0748
 8131W        W24205   0.954  15.659   0.255  0.0326 -0.1227  0.2832
 8132W        W24206   2.878  10.230  15.888 -0.1664  0.3296  0.0959
 8133W        W24207   9.348   4.691   4.858 -0.0706 -0.1894 -0.0738
 8134W        W24208  12.175   8.053   4.196  0.1753  0.2082 -0.0736
 8135W        W24209  13.390  16.731   4.218  0.3192 -0.1229  0.1644
 8136W        W24210   6.387  11.683   3.489  0.2051  0.3179 -0.1050
 8137W        W24211  14.862   9.493   4.610  0.0280  0.2452 -0.1790
 8138W        W24212  13.788   8.056   2.552 -0.1408 -0.1195 -0.2838
 8139W        W24213   9.561  11.231  16.956  0.1103  0.4312 -0.1669
 8140W        W24214   6.010   9.215  15.999 -0.0020  0.5466  0.0258
 8141W        W24215   1.910  10.113   2.010 -0.1383 -0.0681  0.3717
 8142W        W24216   4.030  15.836  16.234 -0.2960  0.1310 -0.1112
 8143W        W24217  16.155   6.172   0.233  0.0894  0.0913  0.1342
 8144W        W24218   8.315  16.524   1.115 -0.2403  0.0658  0.2815
 8145W        W24219  17.805  17.761   2.170  0.3340  0.1252  0.0881
 8146W        W24220  10.499  10.980  14.932  0.4062 -0.1462  0.0148
 8147W        W24221  17.769  11.531   2.403 -0.1487 -0.3146  0.1449
 8148W        W24222   4.030   0.747  15.807  0.1730  0.3445  0.4642
 8149W        W24223   5.547  17.415  14.441  0.1569 -0.4603  0.1456
 8150W        W24224   2.035  11.048  13.492 -0.0842  0.0725 -0.0323
 8151W        W24225   6.115   8.064  16.650  0.0203 -0.3161  0.1200
 8152W        W24226   9.002   3.146  13.130  0.1514  0.0406 -0.2013
 8153W        W24227  15.047   7.925   2.096  0.0856 -0.0391  0.3707
 8154W        W24228  10.209   7.639  15.279 -0.1801 -0.0380 -0.1836
 8155W        W24229  11.564   3.197  14.072 -0.0471  0.2293  0.0050
 8156W        W24230   1.655  14.268  11.495  0.0580 -0.0937 -0.0272
 8157W        W24231   8.474   4.182  15.472 -0.0329  0.0978 -0.1763
 8158W        W24232   8.081  10.942   2.479  0.0459  0.1155  0.1777
 8159W        W24233   5.909   2.569  13.591 -0.2271  0.1367 -0.0977
 8160W        W24234   6.570   3.152  14.187 -0.0291  0.0305  0.1598
 8161W        W24235   7.800   6.541   2.602 -0.0520 -0.0923  0.0610
 8162W        W24236  10.788  17.740  16.059  0.1044  0.0351 -0.1753
 8163W        W24237  15.612   1.668   2.484  0.1272 -0.0862 -0.0367
 8164W        W24238   8.084   3.807  15.923 -0.3244  0.1211  0.1933
 8165W        W24239  17.483   9.337  15.995  0.0223  0.0288 -0.0079
 8166W        W24240  14.188   0.951   3.576 -0.0645 -0.1572  0.0074
 8167W        W24241   8.777  12.108  13.397 -0.1460  0.0721  0.1016
 8168W        W24242   8.851  10.017  16.864 -0.3945 -0.1964 -0.2484
 8169W        W24243   6.769  15.989   4.893 -0.1499 -0.3326 -0.1274
 8170W        W24244  11.952   5.690  14.342  0.0693  0.1849  0.0280
 8171W        W24245   2.190  16.428  13.806  0.0528  0.2122 -0.1780
 8172W        W24246  14.196  12.145  11.289 -0.1384 -0.0693 -0.0377
 8173W        W24247   2.750  12.322   4.572 -0.0318  0.0543 -0.0715
 8174W        W24248   1.131   0.326   5.205  0.0277 -0.3286  0.1511
 8175W        W24249  17.460   6.639   2.450 -0.2469  0.1315  0.0852
 8176W        W24250   6.517   3.553   3.466 -0.1581  0.1325 -0.2189
 8177W        W24251   9.652   4.181  13.405 -0.0360  0.0292 -0.1762
 8178W        W24252   2.964  13.486   2.871 -0.2578 -0.0890  0.2390
 8179W        W24253  14.521   2.145  14.435 -0.0063 -0.0476 -0.2608
 8180W        W24254   5.560  10.335   1.290 -0.0713  0.0269 -0.0779
 8181W        W24255  12.853   8.111   1.791 -0.0060  0.2986 -0.1349
 8182W        W24256  11.007   5.221  11.677  0.0114 -0.4253  0.0318
 8183W        W24257   4.134   2.716   1.479 -0.0623 -0.0794 -0.0504
 8184W        W24258   3.823  10.439   6.135  0.2015  0.0509  0.1166
 8185W        W24259   1.402   5.148  12.278 -0.2382  0.0072 -0.2534
 8186W        W24260   7.269   2.568   1.539  0.0981  0.1156 -0.0573
 8187W        W24261   3.150  13.348   4.981  0.1876  0.1247 -0.1606
 8188W        W24262   4.565  16.501   2.548  0.1381 -0.3215  0.2933
 8189W        W24263   8.681   7.631  15.283  0.3109 -0.1030  0.1325
 8190W        W24264  14.662   0.620  12.539 -0.0157 -0.2970 -0.0200
 8191W        W24265   0.141   7.607  14.599 -0.0981  0.0697  0.1359
 8192W        W24266  14.487   1.936  12.798 -0.0317  0.0312 -0.0277
 8193W        W24267   0.954  13.544   5.433  0.0584 -0.3324 -0.1050
 8194W        W24268  13.030   4.007  13.473  0.1844 -0.0617  0.2260
 8195W        W24269   0.467   5.360   5.649 -0.0032  0.2977  0.3070
 8196W        W24270   4.579   5.603   6.029 -0.0669  0.0357 -0.0399
 8197W        W24271  14.743   3.861  16.385 -0.0581 -0.1115  0.1189
 8198W        W24272   2.370   6.892   3.575 -0.1499 -0.2314 -0.0094
 8199W        W24273  16.336  17.728   5.384  0.1920 -0.0220 -0.1836
 8200W        W24274  12.684   6.020  15.940 -0.1153 -0.0849 -0.1462
 8201W        W24275   0.645   3.442  13.041 -0.2474  0.1712  0.3595
 8202W        W24276   3.810   5.575   0.230 -0.0836  0.2614  0.2081
 8203W        W24277   9.173   8.265   1.729 -0.0397 -0.2187 -0.1199
 8204W        W24278   7.586   7.060   2.797 -0.0485 -0.1856 -0.1418
 8205W        W24279  17.404   1.682  12.228  0.0954 -0.3506  0.0293
 8206W        W24280   9.355   3.814   5.668  0.0298 -0.0830 -0.1277
 8207W        W24281   9.327  13.463  16.469 -0.2094 -0.3093 -0.0438
 8208W        W24282   8.265   5.874   3.684 -0.2677  0.1445  0.0615
 8209W        W24283  16.095  16.736  16.177 -0.3208  0.1506 -0.1591
 8210W        W24284  15.156  11.410  14.271 -0.1009 -0.1514 -0.1415
 8211W        W24285  11.524   3.424  15.420 -0.3535 -0.0734  0.0571
 8212W        W24286  14.900  17.698  13.361  0.0063 -0.0456 -0.1891
 8213W        W24287  14.409  13.461   4.807  0.3121  0.2665  0.1600
 8214W        W24288  13.163  12.207   6.616 -0.1320  0.0234  0.1045
 8215W        W24289   9.562   2.651   2.687  0.0308 -0.0342  0.1263
 8216W        W24290  17.824   1.468  11.980  0.0463  0.0927 -0.1343
 8217W        W24291   0.695   9.116  14.422 -0.1050  0.1521  0.0336
 8218W        W24292  10.971  10.803   3.590 -0.1252  0.3140  0.1508
 8219W        W24293   7.314   7.650   4.397 -0.2272 -0.1611 -0.1499
 8220W        W24294  14.035  14.315  14.843 -0.0199 -0.2485  0.1191
 8221W        W24295   8.278  13.350  12.604 -0.3290 -0.0708 -0.0510
 8222W        W24296   4.005   2.967   2.300 -0.0791  0.0053 -0.0031
 8223W        W24297   2.061  13.906  12.051 -0.1404 -0.0734  0.0421
 8224W        W24298   3.418   8.214  14.942 -0.1131 -0.2598 -0.0416
 8225W        W24299   5.230  15.658   5.773 -0.3565  0.2311  0.0052
 8226W        W24300  15.668  14.070   1.161  0.1437 -0.0428  0.0566
 8227W        W24301   5.581  10.833  14.399  0.0619  0.1298  0.1419
 8228W        W24302  10.328  17.742  15.651  0.0073  0.2280 -0.3190
 8229W        W24303   7.878  16.699   0.838 -0.0215 -0.1531 -0.1598
 8230W        W24304   7.167  11.742  14.835  0.1007  0.0772  0.2022
 8231W        W24305   7.790  14.638   0.013 -0.0103 -0.0843 -0.1364
 8232W        W24306   4.526   8.229   0.954 -0.1028  0.3585  0.3116
 8233W        W24307   4.097  14.702  13.057 -0.2214  0.0245 -0.0395
 8234W        W24308   3.445  15.555  12.203 -0.1966 -0.0866 -0.0480
 8235W        W24309  13.026   5.396   3.544  0.3804 -0.0103  0.1281
 8236W        W24310   6.224  11.211   2.087  0.4381  0.0653  0.0033
 8237W        W24311  12.013   4.526  15.991 -0.0297 -0.2724  0.2351
 8238W        W24312   6.832  10.359   0.246 -0.3185 -0.0112  0.0972
 8239W        W24313   4.885  17.159  11.883 -0.0047  0.1700  0.1716
 8240W        W24314   4.599   5.283  14.506 -0.0702  0.0555 -0.0511
 8241W        W24315  10.544   6.399   1.324 -0.0434  0.0348 -0.1983
 8242W        W24316  11.357   8.524   1.672  0.0794 -0.1506 -0.1252
 8243W        W24317  13.757  10.674   5.608  0.1214 -0.0818  0.2035
 8244W        W24318  14.908  16.159   1.092  0.2703 -0.0609  0.4344
 8245W        W24319   4.573  15.191  13.788 -0.0556 -0.1048 -0.1163
 8246W        W24320   3.270   0.582   1.716 -0.1852  0.0558 -0.0269
 8247W        W24321  16.522   7.578  13.664 -0.2237 -0.2706  0.0473
 8248W        W24322   4.426   0.530   3.866 -0.0128  0.0465 -0.2618
 8249W        W24323   5.833  14.488  16.237  0.1300 -0.1588  0.2914
 8250W        W24324   5.551   7.589   5.145 -0.0007  0.0155  0.0389
 8251W        W24325  14.072  15.590   3.795  0.0662  0.0855  0.3287
 8252W        W24326   0.525  12.177  13.357  0.0615  0.1717 -0.2974
 8253W        W24327  12.059  10.375   0.427 -0.2905  0.0406  0.0711
 8254W        W24328  15.297  16.012   1.980  0.3055  0.1549  0.0213
 8255W        W24329   7.611  17.245   0.633  0.1269  0.0055 -0.0351
 8256W        W24330  12.343   1.271  15.891  0.0315 -0.2146 -0.0881
 8257W        W24331   0.081   6.321  13.876 -0.2442 -0.4549 -0.0683
 8258W        W24332   0.900   7.866  14.361  0.0840  0.1003  0.0085
 8259W        W24333  15.644   9.710   0.853  0.1126 -0.0860 -0.0335
 8260W        W24334  12.583   8.619   4.351  0.1313 -0.1302  0.1071
 8261W        W24335  12.970   0.514   2.465 -0.3433  0.2736 -0.3476
 8262W        W24336  17.607   5.294   2.524 -0.3040 -0.0637  0.3132
 8263W        W24337   4.276  11.160  14.481  0.0238  0.1697  0.0338
 8264W        W24338   8.198   3.261   0.192 -0.1500 -0.2585  0.1748
 8265W        W24339  11.745   6.151  16.661  0.1338  0.0719  0.2142
 8266W        W24340  16.725   1.267  14.694  0.1376  0.0567 -0.0466
 8267W        W24341   5.252   5.021  15.146  0.1003 -0.1070  0.0133
 8268W        W24342  15.061   4.661   4.394 -0.1044  0.3748 -0.0993
 8269W        W24343  12.889  16.727   5.354 -0.2553  0.0697  0.2852
 8270W        W24344  13.214   1.153   1.287  0.2118  0.1654  0.0584
 8271W        W24345   4.420   7.245   6.196 -0.0543  0.1329  0.1377
 8272W        W24346   8.237  17.528  12.791 -0.0228 -0.3009  0.0424
 8273W        W24347   9.399   0.633   3.753  0.1222  0.2177 -0.1553
 8274W        W24348  17.746  15.463  14.823 -0.0918 -0.1989 -0.0438
 8275W        W24349  13.482   9.092   1.139 -0.2287 -0.0742  0.0860
 8276W        W24350   8.971   4.180   2.925  0.0848 -0.0002 -0.0133
 8277W        W24351   2.131  16.123   2.302  0.1740 -0.1679  0.2300
 8278W        W24352  10.866  12.752   1.134 -0.0741 -0.0517 -0.2074
 8279W        W24353  17.360   2.745   3.150  0.0396 -0.1028 -0.1419
 8280W        W24354   0.693   9.238   1.601  0.0749  0.1578 -0.2141
 8281W        W24355   2.156  17.627  15.376 -0.0234 -0.2650  0.3777
 8282W        W24356  12.318   4.693  12.764 -0.0490 -0.2691 -0.0759
 8283W        W24357   3.543   5.733  13.013  0.2118  0.0133 -0.0902
 8284W        W24358  14.015   4.796  13.732  0.1078  0.3409 -0.0152
 8285W        W24359   8.916  14.202   3.805 -0.1188  0.4008 -0.0204
 8286W        W24360   1.138   9.281   3.143 -0.0664 -0.0915 -0.2670
 8287W        W24361  15.062   7.561   4.772 -0.0293  0.1024  0.0360
 8288W        W24362  17.249   0.720   1.618 -0.0504 -0.0037  0.2086
 8289W        W24363  15.941   3.818  16.000  0.0102 -0.1868  0.0983
 8290W        W24364   9.749  12.038   1.298  0.0819  0.0602 -0.0746
 8291W        W24365  15.940  11.605  15.378  0.1468  0.1837 -0.0283
 8292W        W24366  13.058   9.592   5.451 -0.0190 -0.2266 -0.2795
 8293W        W24367  10.688   9.389  13.331 -0.3388 -0.2816  0.0653
 8294W        W24368  14.975  13.410  16.129  0.0484  0.1625 -0.3257
 8295W        W24369   2.525  12.219   2.861 -0.0480  0.1388 -0.3014
 8296W        W24370   6.271  15.990   2.233 -0.3264  0.0230 -0.1487
 8297W        W24371   3.853  11.624   3.830 -0.3561 -0.0730  0.0555
 8298W        W24372   8.871   2.748  15.641 -0.0283  0.2832 -0.2077
 8299W        W24373   7.865   8.939  12.889  0.0711  0.0173 -0.0921
 8300W        W24374  13.246   9.975   2.023  0.2082  0.0816 -0.0936
 8301W        W24375  11.054   9.743  15.559 -0.2385  0.2529  0.1956
 8302W        W24376  16.186  14.325  14.466 -0.0880  0.1839  0.1775
 8303W        W24377   6.166  16.567   5.303 -0.3832 -0.1850  0.1577
 8304W        W24378  12.156  17.154  12.998  0.3814  0.1811  0.0663
 8305W        W24379   4.970  13.173  12.328  0.3010  0.0158 -0.0986
 8306W        W24380  10.987  13.434   4.126  0.1393 -0.3201  0.0354
 8307W        W24381  15.517   0.307  12.787  0.0155  0.2035  0.0285
 8308W        W24382   0.499  17.283   0.683 -0.0785  0.4249 -0.4476
 8309W        W24383  12.456  10.037  14.666 -0.2600 -0.2414 -0.0716
 8310W        W24384  15.515   8.680   2.176  0.0435 -0.1452  0.2516
 8311W        W24385  15.556  13.973   2.768  0.2704 -0.0587 -0.1990
 8312W        W24386  16.900  17.670   1.990 -0.2515  0.0288 -0.2587
 8313W        W24387  14.221   6.477   4.171  0.3375  0.3979  0.2363
 8314W        W24388   8.076  11.830   2.628  0.2883 -0.0981  0.0029
 8315W        W24389   6.241  11.772   3.961 -0.0649  0.0424 -0.2232
 8316W        W24390   1.702   3.580   3.547  0.0039 -0.2031 -0.0993
 8317W        W24391  12.825  12.518   3.574  0.1896  0.1114 -0.1264
 8318W        W24392  15.867  16.144   0.841 -0.0190 -0.1883 -0.0808
 8319W        W24393  10.365  12.657   1.291 -0.3011 -0.0482 -0.1595
 8320W        W24394  15.622  11.617   1.120 -0.1214  0.0547  0.2151
 8321W        W24395   8.348  10.160   6.356  0.1978 -0.1941  0.4438
 8322W        W24396  15.676   9.676   4.451  0.2778  0.2691 -0.0368
 8323W        W24397   1.331  16.204  15.518 -0.0193 -0.2317 -0.0811
 8324W        W24398  15.808  17.609   2.886 -0.1335 -0.1327  0.0577
 8325W        W24399  11.677  16.497   4.680 -0.2383 -0.0511 -0.0391
 8326W        W24400   6.868  16.759  15.033 -0.5880 -0.1397 -0.1339
 8327W        W24401   0.005   9.061   5.601  0.0546  0.1908 -0.0879
 8328W        W24402   3.416   5.770   1.609 -0.0100  0.1804 -0.2193
 8329W        W24403   7.543   3.680   2.436 -0.1173 -0.0474 -0.0788
 8330W        W24404  11.656   6.491  15.383 -0.0318  0.1167  0.2489
 8331W        W24405   9.068   6.914  15.177 -0.1690  0.1607  0.1261
 8332W        W24406   7.430  14.608   3.748  0.1688 -0.0722 -0.5646
 8333W        W24407  17.309  15.920  15.612  0.0472 -0.1481  0.0293
 8334W        W24408  14.029   8.020   5.905  0.0477  0.0619  0.2747
 8335W        W24409  13.284  11.446  14.484 -0.1012  0.1724 -0.0471
 8336W        W24410   1.030   5.974   5.989  0.5347 -0.1342 -0.1079
 8337W        W24411   3.597   4.050  16.452  0.2329  0.1947 -0.2447
 8338W        W24412   8.139   3.961  11.537  0.4304 -0.0888 -0.3286
 8339W        W24413  10.978   1.316   6.347  0.0530 -0.2272  0.1923
 8340W        W24414   7.923  13.189   5.616 -0.2941  0.2509  0.1213
 8341W        W24415  14.042  15.775  16.521 -0.0013  0.0936  0.2552
 8342W        W24416   1.035   3.138  15.426  0.1986  0.2167 -0.0666
 8343W        W24417   4.499   9.075   0.682  0.0792 -0.0740 -0.2287
 8344W        W24418   2.508   5.287   1.353 -0.0985  0.1524  0.1485
 8345W        W24419   6.264  16.847  16.252  0.0812 -0.1224 -0.2485
 8346W        W24420  12.005   8.828   6.085  0.0942  0.1109 -0.0630
 8347W        W24421  13.554   2.712   1.166 -0.3143  0.0729  0.1190
 8348W        W24422   1.378   7.833   6.974  0.0389 -0.0131 -0.2033
 8349W        W24423   8.970   0.193   4.628  0.0790  0.0949  0.3683
 8350W        W24424  13.024   1.070  12.415  0.0346  0.2067 -0.1500
 8351W        W24425   4.405   5.771   3.626  0.3115  0.1427  0.0544
 8352W        W24426  13.735  11.302  12.573 -0.0351  0.2756 -0.0216
 8353W        W24427  13.163   6.900  12.076 -0.1594  0.0904  0.0934
 8354W        W24428   3.400   7.246   3.411 -0.1630  0.0042  0.1084
 8355W        W24429  15.165  13.287   3.337  0.0924  0.0404  0.3786
 8356W        W24430   2.958   4.228  12.160 -0.0302  0.0573  0.0802
 8357W        W24431   4.165   7.710  13.037  0.2720  0.1045 -0.2656
 8358W        W24432  12.653  15.455  14.749  0.1970  0.0820 -0.4181
 8359W        W24433   6.551   1.542  11.798  0.1824  0.0279  0.1804
 8360W        W24434   3.792  13.543   1.303  0.1334 -0.2032  0.3511
 8361W        W24435   4.929  13.965   3.454 -0.0640 -0.1392  0.2150
 8362W        W24436   1.738  11.200  11.573 -0.0142 -0.1407 -0.0345
 8363W        W24437   2.693  12.222  12.481 -0.0561  0.0810 -0.0717
 8364W        W24438  12.164   9.632   2.206 -0.0455 -0.0824  0.4353
 8365W        W24439   8.286  14.358   2.827  0.1064 -0.3053  0.1212
 8366W        W24440  11.227   4.421   1.743  0.0557 -0.4832 -0.0881
 8367W        W24441  12.323   5.838   1.137  0.3864  0.4150  0.0279
 8368W        W24442   3.272   9.301  15.230 -0.0909  0.2896  0.3702
 8369W        W24443  15.468  10.214   3.366  0.1398 -0.1145 -0.0678
 8370W        W24444   5.127  13.976  13.093  0.2049 -0.1968  0.2002
 8371W        W24445  10.086   6.159   4.085  0.1150  0.0772  0.0126
 8372W        W24446  16.313  13.301  14.440 -0.1288 -0.4148 -0.0214
 8373W        W24447  10.088   9.144  11.917 -0.4361 -0.0579 -0.1887
 8374W        W24448   6.010  13.811   5.303  0.0047  0.3674 -0.1140
 8375W        W24449   6.786  15.430  14.673  0.1463 -0.2189 -0.1124
 8376W        W24450   4.650  14.685   0.916 -0.1099  0.0961 -0.0002
 8377W        W24451   3.043   0.824  15.910  0.1301  0.1506  0.0944
 8378W        W24452  13.400  11.983   2.879 -0.0794 -0.0006  0.2476
 8379W        W24453  16.066   1.991  16.192  0.0778  0.1571 -0.3843
 8380W        W24454   0.619   5.428   3.038 -0.0282  0.0301 -0.0453
 8381W        W24455   8.356   0.332   1.604  0.2970 -0.0162 -0.1817
 8382W        W24456   6.718  15.650  15.572  0.3137  0.1495  0.2966
 8383W        W24457   0.998   1.084  16.196  0.0124 -0.0518 -0.1795
 8384W        W24458   3.970   7.217  12.943  0.1604 -0.0846 -0.1426
 8385W        W24459  13.679   4.321   3.924 -0.2062 -0.1027  0.2640
 8386W        W24460  12.783  10.898   1.810 -0.1211 -0.1373 -0.2315
 8387W        W24461   2.534  13.108   2.146  0.1887 -0.1107 -0.0042
 8388W        W24462   6.314   3.221   4.013  0.1454  0.0662 -0.0908
 8389W        W24463   1.455  16.073   2.961 -0.3193  0.1534  0.1378
 8390W        W24464  17.610   2.144   2.116 -0.2016 -0.1550 -0.3129
 8391W        W24465  12.364   9.629   1.701  0.0021  0.1742  0.0556
 8392W        W24466   3.755   2.721  11.855 -0.1184  0.3082  0.1521
 8393W        W24467  15.115  11.846  14.597 -0.0048  0.1532 -0.2741
 8394W        W24468   7.580  13.406   0.087 -0.2850  0.2989 -0.0932
 8395W        W24469  14.608   3.710   3.591  0.4334  0.1133  0.1684
 8396W        W24470   2.191   6.959   2.274 -0.0458  0.0358  0.1781
 8397W        W24471   2.274   3.844  12.876 -0.0342 -0.3491 -0.1818
 8398W        W24472  14.387   4.820  12.398  0.1347  0.1030 -0.1295
 8399W        W24473  12.574  10.706   4.857 -0.1343  0.1389 -0.1800
 8400W        W24474   4.528  13.924  14.133  0.0886 -0.1418 -0.0923
 8401W        W24475   9.185  16.270  13.880  0.1056  0.2180 -0.0327
 8402W        W24476   2.481   8.989  12.808  0.0283  0.0028  0.3453
 8403W        W24477   0.658  15.593   4.225 -0.1391  0.1377  0.0266
 8404W        W24478   2.061  13.347   1.975 -0.0396  0.2321 -0.0818
 8405W        W24479  13.081  15.787  14.599 -0.0312  0.0154  0.1302
 8406W        W24480  11.487  13.517   2.402 -0.0522  0.0981 -0.3083
 8407W        W24481  10.736  12.543   4.047 -0.1650 -0.1386  0.1644
 8408W        W24482  11.285   6.559   0.889 -0.1067  0.2431 -0.0090
 8409W        W24483   9.340   9.950  16.791 -0.3476 -0.2060 -0.1279
 8410W        W24484   7.917  13.485   3.440 -0.1696 -0.0485  0.2174
 8411W        W24485   7.526   5.042  15.030  0.2418 -0.0649  0.0268
 8412W        W24486  17.257   1.083   1.026 -0.0913 -0.0758 -0.0335
 8413W        W24487   2.029   1.945  14.443 -0.1237  0.0099 -0.1209
 8414W        W24488  14.389   9.918   4.750  0.1296 -0.2491 -0.0954
 8415W        W24489   5.442  15.827  16.574  0.0487  0.0707  0.0328
 8416W        W24490   3.331  16.185   3.015  0.0335  0.2708  0.1289
 8417W        W24491  14.532   2.875   5.643  0.0679  0.0524 -0.2136
 8418W        W24492  10.178  12.854  11.497  0.1578 -0.0946  0.0671
 8419W        W24493  17.699  16.657  15.189  0.0618  0.0604 -0.0100
 8420W        W24494   7.530  16.026   1.566  0.0274  0.0205 -0.4008
 8421W        W24495   1.858   0.671  12.205  0.3001 -0.1037  0.0717
 8422W        W24496  15.742  17.120  14.707 -0.1724 -0.1990  0.2248
 8423W        W24497   7.219   8.045  12.537 -0.1619  0.2302 -0.1843
 8424W        W24498   3.593  15.327  14.917 -0.0668  0.2326  0.1995
 8425W        W24499   9.718   4.465   0.759  0.1577  0.1121  0.1911
 8426W        W24500  12.342   9.425   3.653 -0.0783  0.0915 -0.2661
 8427W        W24501   5.970   6.408   3.764 -0.4470  0.1175  0.0922
 8428W        W24502  15.126   8.545   3.211 -0.2276 -0.3306 -0.1231
 8429W        W24503  12.355  14.936   3.295 -0.0491  0.1029  0.1168
 8430W        W24504   6.062  14.630   5.840 -0.0938  0.0313 -0.0058
 8431W        W24505   6.622   1.362   4.312  0.0286  0.1887 -0.0173
 8432W        W24506  12.436  14.102  14.661  0.2724 -0.0528  0.1786
 8433W        W24507  14.533   0.897  16.418  0.0851  0.2606  0.0622
 8434W        W24508   5.278   0.783   5.375  0.0771  0.1423  0.0152
 8435W        W24509  14.977  15.659   1.085 -0.1737 -0.0938 -0.2224
 8436W        W24510   7.579   1.763   0.647  0.0502  0.0754  0.1781
 8437W        W24511   3.868   3.202   5.286 -0.0638  0.2159 -0.3185
 8438W        W24512   9.806   9.344   5.650 -0.0011 -0.3765 -0.0459
 8439W        W24513  10.129  12.826  14.970 -0.2523 -0.0655 -0.1158
 8440W        W24514   0.956   9.638  13.739 -0.0276  0.4034 -0.1574
 8441W        W24515   2.549  14.894  11.280 -0.0658 -0.2383  0.1076
 8442W        W24516   3.826  12.905  13.864 -0.2570  0.2912 -0.1432
 8443W        W24517   6.609  13.711   4.008  0.0048  0.0979  0.0182
 8444W        W24518   3.604  16.209   1.387  0.2108 -0.2467  0.1469
 8445W        W24519  13.173   7.155  14.141  0.1897  0.0075  0.4083
 8446W        W24520   3.012   9.275   4.737  0.1575 -0.1050 -0.0975
 8447W        W24521   7.603  15.918  14.494 -0.0002 -0.3811  0.0001
 8448W        W24522  17.834   2.204  15.633 -0.0336  0.1112  0.4412
 8449W        W24523  12.817  17.648   5.913  0.1002 -0.0900 -0.4739
 8450W        W24524  12.807  12.166   1.930 -0.1335  0.0297 -0.1194
 8451W        W24525  10.892   4.434  12.746  0.2166 -0.1675  0.2219
 8452W        W24526   6.891  11.694   1.405  0.0172  0.4235  0.1154
 8453W        W24527   7.162  11.396  13.538  0.1832  0.1042  0.0253
 8454W        W24528   6.867   8.383   2.868 -0.0319  0.2805  0.2235
 8455W        W24529  15.289  11.152  12.435  0.1027 -0.1028  0.2597
 8456W        W24530  13.097  10.830   2.281 -0.0402  0.0439 -0.0881
 8457W        W24531  13.452  13.930   3.965  0.2493 -0.0856 -0.2141
 8458W        W24532   8.012  16.953   4.975  0.2696 -0.1303  0.2282
 8459W        W24533   4.905  13.075  13.636  0.0439 -0.0124 -0.0447
 8460W        W24534  15.787   3.894   4.874  0.1417 -0.1645 -0.1328
 8461W        W24535  10.945   4.342   0.071  0.2275 -0.1620  0.1479
 8462W        W24536  13.792  13.069  16.609  0.2417  0.1779 -0.0156
 8463W        W24537   3.151   4.932   5.093 -0.1320 -0.0343 -0.0891
 8464W        W24538   3.088   6.083   0.329  0.0710  0.1583 -0.2399
 8465W        W24539   6.618  14.792   0.452 -0.3214 -0.0419 -0.2048
 8466W        W24540  17.000  16.400  12.233  0.2522 -0.1783 -0.1821
 8467W        W24541  14.116  11.686  16.725 -0.2570  0.1239  0.0302
 8468W        W24542  14.354   4.001  14.930  0.0784 -0.1139 -0.0292
 8469W        W24543  17.313   8.426  15.530  0.3525 -0.1076 -0.0819
 8470W        W24544   2.316   1.420   3.733  0.3374 -0.2593  0.0832
 8471W        W24545   4.479  12.393   1.865 -0.1915 -0.0547 -0.1706
 8472W        W24546   1.196  13.392   3.490 -0.0127 -0.0239  0.0566
 8473W        W24547   8.005  10.269   0.937 -0.1209  0.1526  0.0050
 8474W        W24548  16.837  13.882   3.449  0.0335  0.3628  0.3767
 8475W        W24549   3.595   3.324   2.231  0.0403 -0.1199 -0.2605
 8476W        W24550   3.933  10.733   2.998 -0.3135  0.2476  0.1746
 8477W        W24551   3.885  15.470  13.250  0.1624 -0.1670 -0.0811
 8478W        W24552   4.072  10.835  16.444 -0.2453 -0.0206  0.0206
 8479W        W24553   1.126  17.672   5.104  0.3523  0.1173  0.2363
 8480W        W24554   1.358  16.398   2.328  0.2149  0.0007 -0.1905
 8481W        W24555   1.205  17.281  11.548 -0.2667  0.1422  0.2516
 8482W        W24556   7.972   1.313   1.845  0.3011 -0.2742  0.2006
 8483W        W24557  12.377   5.470  15.078 -0.0504 -0.0824  0.2397
 8484W        W24558   2.879  13.104   1.145  0.1155  0.1330 -0.0270
 8485W        W24559  16.685   0.969   4.682  0.0275 -0.1370  0.0363
 8486W        W24560  15.684   9.340   2.555 -0.4338 -0.0180 -0.3850
 8487W        W24561   6.292  10.343   1.787 -0.2647  0.3714  0.1838
 8488W        W24562  16.870   7.911  14.851 -0.0638  0.0066  0.0389
 8489W        W24563   3.455   7.017   0.148 -0.2241 -0.0739 -0.0132
 8490W        W24564  10.479   5.855  15.720 -0.1273  0.0303 -0.0997
 8491W        W24565  16.839  16.109   4.289  0.1648 -0.1049  0.2053
 8492W        W24566   6.359  17.781   1.259 -0.1070  0.0071  0.0868
 8493W        W24567   4.071   5.463  14.662  0.2475 -0.2093 -0.1699
 8494W        W24568   4.976   3.603  12.511  0.1117 -0.0763  0.1931
 8495W        W24569  16.783   2.960  15.027  0.1251  0.0211 -0.0767
 8496W        W24570  15.899   9.091  16.215 -0.0152  0.1696 -0.0412
 8497W        W24571  16.003   5.026  15.119 -0.0164 -0.1879 -0.0223
 8498W        W24572   2.783  12.232  16.340  0.0673  0.0760 -0.4535
 8499W        W24573   3.516   3.860  13.033 -0.4780  0.0670 -0.0219
 8500W        W24574   1.798   6.064  12.190  0.2342 -0.1413 -0.1071
 8501W        W24575  16.949  16.525  11.726 -0.2622  0.1967  0.0565
 8502W        W24576   9.978   2.535  15.738  0.2552  0.0546 -0.1730
 8503W        W24577   9.800   0.194  12.876  0.0117 -0.1010 -0.1298
 8504W        W24578   3.520  13.812   3.285 -0.1521 -0.3092 -0.2679
 8505W        W24579   7.073  13.398  14.817  0.1414 -0.3168  0.0091
 8506W        W24580   7.938  17.201   1.713  0.1852 -0.0112 -0.2018
 8507W        W24581   4.753   7.632  13.492 -0.1782 -0.0475 -0.1481
 8508W        W24582   8.287  16.884   2.033  0.1360 -0.0348 -0.2533
 8509W        W24583   6.411  10.154  12.339  0.0716 -0.2276  0.1029
 8510W        W24584   1.591   6.789  13.496 -0.0599 -0.0694 -0.0701
 8511W        W24585   1.182   4.958  13.455  0.0178 -0.4204  0.0787
 8512W        W24586   9.381  12.243  12.089  0.4039 -0.2681 -0.1919
 8513W        W24587   7.940   0.180   5.347  0.2641 -0.1520 -0.1430
 8514W        W24588  16.120   1.708   6.280  0.0652  0.2638  0.0858
 8515W        W24589   8.951   0.382  12.816  0.1476  0.2278  0.1304
 8516W        W24590   5.278   8.440   1.777  0.0799  0.0311  0.0539
 8517W        W24591   7.132   4.243   5.347 -0.1811 -0.0256 -0.3996
 8518W        W24592  11.847   0.427  15.440  0.1016 -0.0498 -0.2724
 8519W        W24593  11.418   6.797   3.906  0.1267 -0.3924 -0.0554
 8520W        W24594   3.832  12.289  16.024 -0.0479 -0.1761  0.2367
 8521W        W24595   9.948   7.105  11.833 -0.1063 -0.1433 -0.1357
 8522W        W24596   4.851   6.553  15.748  0.0051 -0.0433 -0.0984
 8523W        W24597   6.077   9.560   0.359  0.1035  0.0469  0.0736
 8524W        W24598   5.027  13.597   0.331  0.0750 -0.0801 -0.1454
 8525W        W24599  14.176  13.859  15.763  0.1837  0.1092 -0.0142
 8526W        W24600  14.972  17.314  16.874 -0.0533  0.0131 -0.1251
 8527W        W24601   3.313   2.305   5.564 -0.0245 -0.0682  0.1158
 8528W        W24602   9.291   7.690  16.659  0.2274  0.0216 -0.1679
 8529W        W24603  13.403   5.450  12.447 -0.0347 -0.0754 -0.0385
 8530W        W24604   4.826  14.346  13.406  0.0974 -0.0015 -0.0545
 8531W        W24605  10.468   9.246   3.432 -0.0831 -0.0864  0.1337
 8532W        W24606   9.606  16.218  13.656  0.0367 -0.1503 -0.1628
 8533W        W24607   8.797  16.642   1.202  0.0255  0.1462  0.2218
 8534W        W24608   1.485   5.978   3.941  0.3007 -0.0693 -0.1108
 8535W        W24609  15.981   8.642   5.670 -0.3095  0.1630  0.1014
 8536W        W24610   2.784   7.893   1.071  0.0251 -0.0354  0.0911
 8537W        W24611   1.705   9.155   1.601  0.4750  0.1674  0.1985
 8538W        W24612  12.578  17.368   2.823  0.0445  0.0422  0.1268
 8539W        W24613   8.763   2.939  14.793 -0.2340 -0.1152  0.0367
 8540W        W24614  12.774  12.665  12.945 -0.0040 -0.2735 -0.0059
 8541W        W24615   5.612   6.465   4.108  0.0865  0.0774 -0.0615
 8542W        W24616  14.998  16.548   0.305 -0.1079 -0.3868  0.0395
 8543W        W24617  11.072  12.961  14.339 -0.0027 -0.0406 -0.1194
 8544W        W24618   6.996   7.775  15.537  0.0797  0.3602 -0.1112
 8545W        W24619   3.766   5.885  12.134 -0.2184  0.3833 -0.2106
 8546W        W24620  13.386  13.612   4.651 -0.1527 -0.0955  0.0663
 8547W        W24621   3.599  14.621  15.732  0.1738 -0.2683  0.2060
 8548W        W24622   0.776  15.930  13.627  0.0324 -0.0532 -0.0067
 8549W        W24623   7.355   1.910  14.472  0.0263  0.1225 -0.0928
 8550W        W24624   3.568  12.411   3.148  0.2089  0.1187 -0.0042
 8551W        W24625   7.087   6.815  13.933  0.1986  0.0940  0.1378
 8552W        W24626  17.638  15.845  14.227  0.1756 -0.1348 -0.0032
 8553W        W24627  14.514   9.209   3.241 -0.1831 -0.1806  0.3305
 8554W        W24628  13.577  11.175  16.472 -0.0409  0.1926 -0.2480
 8555W        W24629  15.995  11.056   4.851 -0.0765  0.0426 -0.0746
 8556W        W24630   0.913   2.570  14.030 -0.2285  0.0369  0.1406
 8557W        W24631  11.448   5.702  14.444  0.0091 -0.1204  0.2035
 8558W        W24632   5.721   0.050  12.412 -0.3593  0.1700  0.0806
 8559W        W24633  16.107   8.868  13.605 -0.5572 -0.1242 -0.0747
 8560W        W24634  17.174   8.405  12.934  0.1127  0.1563  0.1754
 8561W        W24635  15.465  13.291  13.252  0.1861  0.0916  0.1697
 8562W        W24636  14.233  14.699  15.667 -0.2760 -0.2860 -0.0837
 8563W        W24637  16.800  11.259   4.467 -0.0675  0.2607  0.1338
 8564W        W24638  11.950  10.831  13.718  0.1315  0.2747  0.3548
 8565W        W24639   2.443   8.423   6.367 -0.2288 -0.1367 -0.0152
 8566W        W24640   1.110   6.174  14.545  0.1419 -0.2647  0.0756
 8567W        W24641  14.553   1.075  12.752  0.3058  0.1170 -0.0639
 8568W        W24642  13.634  15.261   5.037 -0.0116  0.0288  0.1097
 8569W        W24643   1.472  13.215  12.454  0.1956  0.0303 -0.1054
 8570W        W24644   3.802   9.667   5.020 -0.1467  0.0350  0.2077
 8571W        W24645  11.970   5.254  16.405  0.3787  0.0850  0.0156
 8572W        W24646  16.525   1.534  15.497  0.3610  0.1993 -0.0045
 8573W        W24647  14.440   1.311   1.209 -0.0681 -0.2242  0.1248
 8574W        W24648  11.948  14.845   5.290  0.1904 -0.2562  0.2546
 8575W        W24649   0.194   7.827   1.355 -0.1195  0.1881 -0.1347
 8576W        W24650   5.798   2.753   5.433  0.1092  0.1568 -0.0014
 8577W        W24651   3.536  14.661   3.577 -0.0080  0.2335  0.0101
 8578W        W24652   3.667  15.511   4.794 -0.0165 -0.2224  0.0270
 8579W        W24653  11.879  12.652   0.977 -0.2892 -0.2923  0.1348
 8580W        W24654  14.342   1.851  14.869  0.2300  0.3299 -0.1116
 8581W        W24655   9.982  14.747   3.059  0.0844 -0.0012  0.0900
 8582W        W24656  17.219  10.585  12.701  0.0894  0.2266  0.0666
 8583W        W24657   4.546  11.405  13.110 -0.2674 -0.1707 -0.3893
 8584W        W24658   3.160  15.422   0.685 -0.0863  0.0575 -0.1916
 8585W        W24659   9.361  12.815  14.669  0.3916  0.0546  0.0043
 8586W        W24660   5.865  14.803   4.006  0.4236 -0.1878 -0.1056
 8587W        W24661  13.301  12.218   1.282  0.0421  0.0137 -0.1416
 8588W        W24662   2.570   5.155  10.715 -0.0913  0.0906 -0.1263
 8589W        W24663   2.919  17.736   4.455  0.0724 -0.0505 -0.2616
 8590W        W24664   8.129  15.858  16.123  0.0719  0.2061 -0.1632
 8591W        W24665  12.117  14.890   2.521 -0.2285 -0.0080 -0.0258
 8592W        W24666   8.705  11.364  14.729  0.2532  0.0292 -0.2008
 8593W        W24667  15.160   4.412  12.360  0.1602  0.6084 -0.0363
 8594W        W24668  17.571   8.632   0.449  0.1211  0.4307  0.1060
 8595W        W24669   0.195  17.459  15.393 -0.2441 -0.1144  0.1442
 8596W        W24670  10.331   6.856   0.740 -0.3026  0.2911  0.3706
 8597W        W24671   2.310   9.800   4.220 -0.0102  0.0520  0.2842
 8598W        W24672   3.011   4.745   0.407  0.0251 -0.1156 -0.0224
 8599W        W24673   8.694   2.990  12.030  0.0045 -0.2226 -0.0356
 8600W        W24674  13.556   6.506   0.840 -0.3123 -0.2213  0.2794
 8601W        W24675  17.205  16.780   3.534 -0.2487 -0.0172  0.2034
 8602W        W24676   8.312  11.754   5.209 -0.1837 -0.1549 -0.1454
 8603W        W24677  14.105   0.485  16.292  0.1761  0.1088 -0.0263
 8604W        W24678  11.440  10.537  11.763 -0.2269 -0.1431  0.1822
 8605W        W24679  15.408  16.362   3.441 -0.1429  0.0194 -0.2749
 8606W        W24680   7.975  16.529  15.716  0.1199  0.0473  0.2359
 8607W        W24681  16.142   2.498  14.552 -0.0552 -0.0076  0.2711
 8608W        W24682  12.255  14.402   4.586  0.0474  0.0161  0.0604
 8609W        W24683   0.469   8.308   1.453  0.2351  0.0576  0.0415
 8610W        W24684   7.874   0.553   3.942 -0.0404  0.0458  0.0779
 8611W        W24685   5.480  16.730  13.725  0.0362 -0.0786  0.0414
 8612W        W24686  13.223  13.302   1.761  0.2054 -0.2144 -0.2344
 8613W        W24687   9.359   0.988   3.276 -0.0094 -0.2077  0.0324
 8614W        W24688   1.548  16.559  14.728 -0.0138  0.3497 -0.3026
 8615W        W24689  15.980   7.854  14.346 -0.0380 -0.0193  0.1770
 8616W        W24690  10.820   2.016   1.620  0.1960  0.2641 -0.2657
 8617W        W24691   1.464   5.860  14.239 -0.0835 -0.0573  0.2549
 8618W        W24692  15.219   9.886  13.178 -0.0574 -0.2549  0.1181
 8619W        W24693  13.969  14.460   1.457 -0.1100  0.1795  0.0215
 8620W        W24694   7.978   5.888  14.113  0.1883  0.1553  0.2884
 8621W        W24695  14.107   8.998  14.399 -0.2346  0.1502 -0.1059
 8622W        W24696   8.439  14.436  13.160  0.1209 -0.1009  0.1671
 8623W        W24697  15.558   4.038   3.697 -0.0283  0.2397 -0.5750
 8624W        W24698   8.145  14.519   0.652 -0.4623  0.3264 -0.0782
 8625W        W24699  11.729   1.393  11.878 -0.2839  0.0933 -0.0539
 8626W        W24700   5.562  12.235   0.803 -0.3468  0.2925 -0.0283
 8627W        W24701  16.854   1.106   1.459  0.1489  0.0013  0.2913
 8628W        W24702   2.863  14.706   4.996  0.0534  0.0797  0.2415
 8629W        W24703   4.099   8.948  16.556  0.2401 -0.1274 -0.1976
 8630W        W24704  13.735   7.562   5.046  0.0357  0.0963  0.2982
 8631W        W24705   5.302  15.322  13.360  0.2411 -0.0411 -0.0767
 8632W        W24706   4.884   0.616   3.101 -0.1511  0.3252 -0.1735
 8633W        W24707  10.263  11.358   2.953 -0.1875 -0.2803 -0.3611
 8634W        W24708   5.736  16.942   6.105 -0.0241 -0.2156  0.5219
 8635W        W24709  16.008  11.961  16.362  0.2325 -0.2113 -0.1336
 8636W        W24710   3.944  13.901   1.691  0.0075 -0.1331  0.1367
 8637W        W24711   6.009  10.397  16.865 -0.0929  0.1182 -0.1810
 8638W        W24712   1.376   8.142   4.033 -0.0904  0.0519  0.0554
 8639W        W24713   2.513  13.710  12.262  0.2414 -0.1263 -0.0850
 8640W        W24714   2.545  11.134   3.346 -0.2586  0.2075 -0.1490
 8641W        W24715   8.912   8.264   3.421  0.0053 -0.3357  0.1161
 8642W        W24716  15.699   9.773  13.143  0.0396 -0.0411 -0.2097
 8643W        W24717   3.784   8.571  16.695 -0.1287  0.1330 -0.0537
 8644W        W24718   6.621  16.228  11.858 -0.1603 -0.1020  0.1957
 8645W        W24719   3.743  17.260  11.782 -0.0483  0.2728  0.0019
 8646W        W24720   2.651   7.166  15.897  0.0972  0.4077  0.1417
 8647W        W24721   5.587  14.757   5.669 -0.0437  0.0970  0.2774
 8648W        W24722  17.177   3.973  12.706  0.2229 -0.1088  0.2967
 8649W        W24723   8.232  17.259  12.334  0.1350  0.1408  0.1149
 8650W        W24724  11.104   4.562   3.721 -0.0523  0.2570 -0.0263
 8651W        W24725   4.209  13.259  16.239  0.2790  0.1304  0.1870
 8652W        W24726   6.950  16.515   0.411 -0.1448 -0.5090  0.3449
 8653W        W24727  15.536  16.680   3.914  0.3166  0.0058 -0.0491
 8654W        W24728   3.502  17.396   3.841 -0.3286  0.1484  0.1184
 8655W        W24729   4.321   3.333   2.979 -0.0331 -0.1123  0.2092
 8656W        W24730  16.302   1.717   0.137 -0.2645 -0.0259  0.2277
 8657W        W24731   7.577   9.519   3.851  0.0528 -0.2823 -0.2320
 8658W        W24732   3.733   6.448  11.753 -0.1358  0.0897 -0.0695
 8659W        W24733  17.159   6.896   2.236 -0.2067 -0.0353 -0.3609
 8660W        W24734   4.822   5.361   2.740  0.0261  0.2167 -0.0283
 8661W        W24735  11.246   7.153   2.758  0.1346  0.2274  0.3440
 8662W        W24736  12.422   0.340  11.988 -0.1857 -0.5304 -0.2560
 8663W        W24737  16.528   9.276   0.943  0.2388 -0.2762 -0.1639
 8664W        W24738  11.505  13.396  15.657 -0.2744  0.3559 -0.0447
 8665W        W24739   9.481  15.708   3.212 -0.2830  0.0383  0.0429
 8666W        W24740  15.737  10.752   6.263  0.0443  0.1805 -0.4706
 8667W        W24741  14.087   0.510  15.675  0.2132  0.0260 -0.2052
 8668W        W24742  14.074   7.686  13.128  0.3322  0.3111 -0.2297
 8669W        W24743   5.546   0.189   0.190 -0.0699 -0.0111  0.0779
 8670W        W24744  17.798  17.632   2.886 -0.2127  0.0771  0.2175
 8671W        W24745  15.939  11.838  15.850 -0.0049  0.1511  0.2101
 8672W        W24746  13.591   2.624   4.696 -0.1294  0.1796 -0.1019
 8673W        W24747  15.276   1.517   2.891 -0.0247  0.3662  0.0143
 8674W        W24748  14.397   9.432   2.827 -0.2886  0.1829 -0.3321
 8675W        W24749   8.513   2.104  11.372  0.0192  0.2444 -0.2287
 8676W        W24750   6.751   6.280  11.749 -0.0961 -0.0722 -0.4312
 8677W        W24751   8.198  12.538   6.403  0.0685 -0.0640 -0.1525
 8678W        W24752  11.526   3.304   4.204 -0.1516 -0.0651  0.0123
 8679W        W24753  13.903  11.744   5.757  0.0457 -0.1703  0.2699
 8680W        W24754  14.629   9.183  13.625  0.0418 -0.3070  0.1150
 8681W        W24755   9.768   3.763   0.304 -0.0008  0.1312 -0.1849
 8682W        W24756   7.012  16.941   2.119  0.0264  0.1301 -0.0777
 8683W        W24757  16.519  17.377   5.701 -0.2032  0.1305 -0.0983
 8684W        W24758   3.910  17.021  12.955  0.1978  0.0275 -0.0027
 8685W        W24759  12.575   0.557   5.114  0.1822 -0.0301  0.0612
 8686W        W24760   8.179  12.155   1.609 -0.1342 -0.0665 -0.1133
 8687W        W24761  10.311   2.054   1.490  0.1657 -0.1475 -0.0436
 8688W        W24762  16.021  16.012   6.175  0.2063 -0.3059  0.1054
 8689W        W24763   6.237  11.205   0.290 -0.0071  0.1304 -0.0603
 8690W        W24764   1.912   7.792  13.905  0.2388 -0.1311  0.0443
 8691W        W24765  16.549   8.589  15.360 -0.2776 -0.0134  0.2872
 8692W        W24766   7.209  12.477  12.904  0.0280  0.1964  0.3037
 8693W        W24767   3.078  12.342  16.961 -0.2153 -0.1125  0.0052
 8694W        W24768  10.982  11.656  16.658  0.0765  0.0648  0.1067
 8695W        W24769   0.273  11.862  13.067 -0.0525 -0.2063 -0.1515
 8696W        W24770   9.147  17.786   4.236 -0.0122  0.1562  0.2207
 8697W        W24771   5.090   3.876  16.877  0.0031 -0.1462 -0.1521
 8698W        W24772  14.800   4.514   1.658 -0.3368 -0.2141  0.2666
 8699W        W24773  15.648  17.461   4.974 -0.0743 -0.0505  0.0306
 8700W        W24774   1.789  10.831   3.545  0.0032  0.0374 -0.1771
 8701W        W24775  12.391   3.334   0.292  0.0101  0.1220 -0.0084
 8702W        W24776   1.556  17.512  14.973 -0.0201 -0.0097 -0.1757
 8703W        W24777   4.349  11.967  12.111  0.0636 -0.0131  0.1034
 8704W        W24778   6.116   6.675   1.843  0.0476 -0.0563 -0.1138
 8705W        W24779   8.913   6.310  13.474  0.0909  0.0760  0.1670
 8706W        W24780  16.606   6.800  14.289  0.1792 -0.0338 -0.1740
 8707W        W24781  15.332  10.892   1.609 -0.4604  0.0518 -0.0128
 8708W        W24782   6.588  17.643   3.734  0.0574 -0.1984 -0.1517
 8709W        W24783   2.604   2.683  14.812  0.2847 -0.0835  0.1394
 8710W        W24784  13.903  14.041  12.814  0.1299 -0.1405  0.0934
 8711W        W24785  13.803  17.660   1.727 -0.1758  0.0101 -0.0563
 8712W        W24786   4.524   8.903  15.208  0.0426  0.3515 -0.0763
 8713W        W24787  16.327   2.009   1.902  0.1177  0.0963 -0.2891
 8714W        W24788  17.455   4.851   5.655 -0.1008  0.0003  0.0972
 8715W        W24789   1.866   0.814  16.412  0.0516  0.2947  0.1532
 8716W        W24790   1.579   2.778  14.888  0.1922  0.2658 -0.0114
 8717W        W24791   5.998   1.403   4.956 -0.1505 -0.3681  0.2350
 8718W        W24792  13.411  12.291   3.271  0.0051 -0.3892 -0.1080
 8719W        W24793  14.894   0.784   5.342  0.1515 -0.0645 -0.0834
 8720W        W24794  11.704  17.828   2.456 -0.0067  0.1026  0.1139
 8721W        W24795   8.980   6.705   2.353 -0.0487 -0.0160  0.0732
 8722W        W24796   1.723   8.889  14.678 -0.4576 -0.2666  0.0190
 8723W        W24797  16.067   1.388   4.222 -0.1037 -0.1045 -0.2714
 8724W        W24798   2.830   8.181   6.093  0.1954  0.2232 -0.0479
 8725W        W24799   3.785   2.521   3.867  0.1502 -0.0328  0.0226
 8726W        W24800  11.575   8.381   0.450 -0.0241  0.0597 -0.2962
 8727W        W24801   0.923   4.968  16.623 -0.1596  0.0463 -0.1197
 8728W        W24802   9.836   7.831  12.327 -0.0676  0.3665 -0.0318
 8729W        W24803  12.584   3.162  15.418  0.0069  0.1139  0.0579
 8730W        W24804   5.903   5.664   5.441  0.1720 -0.1572  0.2755
 8731W        W24805   9.288   3.542  12.472  0.0116  0.0359  0.0900
 8732W        W24806   5.738   0.171  13.476  0.0751 -0.1601 -0.0790
 8733W        W24807   3.090   4.333   3.445 -0.0922 -0.0657 -0.2733
 8734W        W24808  15.032   3.169   0.012  0.0758  0.1898  0.1149
 8735W        W24809  16.571  14.892   5.606  0.0056 -0.2016 -0.0802
 8736W        W24810  16.053   2.731  12.128 -0.2213 -0.2084  0.1222
 8737W        W24811  11.112  13.119  15.872 -0.0965 -0.2646 -0.2346
 8738W        W24812   8.596  13.545   0.913  0.0596 -0.1826 -0.0993
 8739W        W24813   4.851  13.441   3.399  0.0006  0.1218  0.1599
 8740W        W24814   1.480  14.844  13.349 -0.0060  0.2584  0.1173
 8741W        W24815  14.502  16.850   1.600  0.1279  0.0063 -0.0801
 8742W        W24816  14.929   9.053   4.826 -0.0806  0.1184  0.1031
 8743W        W24817   7.079   0.712  15.365  0.2963 -0.3133  0.1313
 8744W        W24818   2.953  16.074  15.811 -0.2027 -0.3603  0.5727
 8745W        W24819   5.636   4.868   4.755 -0.0767 -0.0815  0.0403
 8746W        W24820   9.123  16.880  11.922 -0.2826 -0.3524 -0.0574
 8747W        W24821  10.608   8.857  15.259 -0.2797  0.0309  0.5105
 8748W        W24822  13.059   2.430  14.811 -0.0931  0.4034  0.2547
 8749W        W24823   6.720   6.134  12.939  0.1054  0.2809  0.0422
 8750W        W24824  11.019  17.322   5.432  0.0374  0.0011 -0.1516
 8751W        W24825   5.633   9.422  14.703  0.1497 -0.1825  0.0531
 8752W        W24826  15.823  17.636   6.804  0.4357  0.0226 -0.2199
 8753W        W24827  16.604  17.445   3.418 -0.1061 -0.1005  0.3104
 8754W        W24828   6.307   4.305   1.640  0.0143 -0.0202  0.1984
 8755W        W24829  17.381  12.349  13.068  0.2328  0.2774 -0.0201
 8756W        W24830   0.009   3.672   5.897 -0.0670 -0.0264  0.3574
 8757W        W24831   2.100  14.362  11.269 -0.0081  0.2317  0.0428
 8758W        W24832   4.125  14.424  15.118 -0.1881  0.1559 -0.0989
 8759W        W24833   5.417  11.997   5.393 -0.0182  0.1920  0.1122
 8760W        W24834   5.095  12.128   3.170  0.0731 -0.2908 -0.2990
 8761W        W24835  11.152   1.849   1.087  0.1095  0.0325 -0.0401
 8762W        W24836   4.333  16.486  15.620  0.0456  0.0154  0.0590
 8763W        W24837   5.151   7.160   5.204 -0.2989 -0.2815  0.1636
 8764W        W24838   7.162  12.402   1.942 -0.0450 -0.0883 -0.0832
 8765W        W24839  13.615   5.887  15.831 -0.0960 -0.3163 -0.0784
 8766W        W24840  11.421   8.728  15.416  0.0518  0.1731  0.1403
 8767W        W24841  16.575  10.905   4.805  0.0029 -0.2223 -0.1223
 8768W        W24842   1.662  10.515   0.933  0.2313  0.0169 -0.2184
 8769W        W24843   8.617   5.368  14.310  0.1382  0.0962  0.1475
 8770W        W24844  15.337  10.432   2.673  0.3728  0.2448  0.1880
 8771W        W24845   7.619  11.956  11.949 -0.2324  0.1383 -0.0993
 8772W        W24846  15.740   0.675   2.478  0.2346  0.4365  0.1096
 8773W        W24847   2.661  16.199   2.182 -0.2700  0.0847 -0.0196
 8774W        W24848   9.158  11.173  16.667 -0.2586 -0.0684  0.1252
 8775W        W24849   9.189   3.543  13.293 -0.2143 -0.0767 -0.0809
 8776W        W24850   1.641   7.671   6.124 -0.2726  0.0223  0.2114
 8777W        W24851  11.481  13.661  16.871  0.1040 -0.1790 -0.0764
 8778W        W24852  13.777  14.914  13.628 -0.1301  0.4418  0.1074
 8779W        W24853  17.762   0.042  16.070  0.1157  0.2272  0.2311
 8780W        W24854   6.807  11.619  14.016  0.0433 -0.0160  0.2195
 8781W        W24855   8.832  14.653   3.607  0.1108 -0.1247 -0.2196
 8782W        W24856   0.355  13.092   1.317  0.1032  0.0133 -0.1977
 8783W        W24857  16.743   6.586  14.833  0.3607  0.1130 -0.0902
 8784W        W24858   9.440   6.621  12.621  0.3453 -0.1049 -0.0654
 8785W        W24859   3.188  16.916   4.446  0.0581  0.0967 -0.0858
 8786W        W24860   3.564  11.489   1.656  0.5064 -0.0939 -0.0368
 8787W        W24861   3.711   9.320  13.713  0.1288 -0.3606 -0.3040
 8788W        W24862  14.283   3.532  16.220 -0.0800 -0.2791 -0.2027
 8789W        W24863  10.690  16.107   0.471 -0.1069 -0.3371  0.0488
 8790W        W24864   0.289   0.564   5.867  0.0224 -0.0321  0.0137
 8791W        W24865  15.217  14.576  13.724  0.0669 -0.0499 -0.1335
 8792W        W24866   8.492   1.734   0.604 -0.2656  0.2723 -0.2539
 8793W        W24867   1.935   4.804   2.686  0.2657  0.1258  0.3687
 8794W        W24868   6.795  15.754  14.265 -0.0582 -0.3503 -0.0871
 8795W        W24869   6.844  15.007  16.664 -0.0556  0.0669 -0.1453
 8796W        W24870   8.738  16.473   5.363  0.0776 -0.2417  0.2222
 8797W        W24871   4.801   8.159  15.612 -0.0451  0.4001  0.0641
 8798W        W24872   0.723   0.679   0.991 -0.0322  0.1206 -0.3515
 8799W        W24873  16.230   6.518   1.880 -0.2324  0.1134  0.4611
 8800W        W24874  10.407  12.243  11.775  0.1657  0.2104  0.0004
 8801W        W24875   9.228  15.794  15.086  0.0560 -0.3291  0.1823
 8802W        W24876  16.160   1.389  16.360  0.1680 -0.0246 -0.0745
 8803W        W24877  14.006  15.227   1.858  0.2736 -0.2900  0.1499
 8804W        W24878   6.413  14.579  10.535 -0.0599 -0.1269 -0.1089
 8805W        W24879   3.936  12.291   0.033  0.0541 -0.1743 -0.1509
 8806W        W24880   0.564  15.126   4.343  0.4827  0.3010  0.2490
 8807W        W24881   4.184   8.715   0.850  0.1662  0.0374 -0.2317
 8808W        W24882  15.148  14.739   3.064 -0.3760 -0.2937 -0.1934
 8809W        W24883  12.808  10.604  13.581 -0.1136  0.2631 -0.0031
 8810W        W24884   9.476  14.250  14.291  0.2170 -0.0187 -0.0222
 8811W        W24885  10.677   1.967   0.218 -0.0828  0.0735 -0.1442
 8812W        W24886   8.514  11.180  15.147  0.0316 -0.0753 -0.1865
 8813W        W24887   8.530   9.480   2.937  0.2517  0.1856  0.4944
 8814W        W24888   5.348   1.741  12.907 -0.0850 -0.0484 -0.2687
 8815W        W24889  14.186   6.684   5.353 -0.0454  0.0801 -0.1790
 8816W        W24890  12.266  11.290   5.500  0.4920  0.0680  0.2639
 8817W        W24891   7.018  14.575  11.759  0.2460  0.0602  0.1279
 8818W        W24892   5.926   8.733   3.041  0.0941 -0.0465 -0.1450
 8819W        W24893  16.044  14.998  14.854 -0.2546 -0.2647 -0.1974
 8820W        W24894  15.646   6.000  13.750 -0.1284 -0.1569  0.0145
 8821W        W24895  16.495  17.018  13.026 -0.1193 -0.4505  0.1521
 8822W        W24896   2.527  13.792  12.752  0.1793  0.1367 -0.0008
 8823W        W24897   5.909  10.753   5.398 -0.0739  0.1140  0.1498
 8824W        W24898  13.956  15.035  15.328  0.0024 -0.0201 -0.1530
 8825W        W24899  15.676   4.771   0.581  0.1670 -0.2067  0.4346
 8826W        W24900   0.489  16.385   4.883 -0.0162  0.0009  0.1710
 8827W        W24901   2.962   6.941  13.164  0.1532  0.3230 -0.1741
 8828W        W24902  15.875   0.371   6.159 -0.1564 -0.0564  0.0451
 8829W        W24903   5.479  17.474  15.393 -0.0601  0.4115  0.0361
 8830W        W24904  10.639  16.277  15.549  0.1954 -0.2377 -0.0592
 8831W        W24905  16.274   6.050   2.092  0.0326  0.1676 -0.4325
 8832W        W24906   5.959  14.885   4.569  0.1119 -0.0348 -0.3514
 8833W        W24907   9.970   0.093  15.127 -0.0666 -0.0095  0.5202
 8834W        W24908   3.328   4.104  16.017 -0.1014 -0.0356  0.3171
 8835W        W24909   0.369   7.628   3.586 -0.0170 -0.0385  0.1862
 8836W        W24910  12.057  10.867  16.932  0.3323 -0.0683 -0.0970
 8837W        W24911   1.902   7.968  13.331  0.0496 -0.1112 -0.0392
 8838W        W24912  14.433   8.722   1.746 -0.0182  0.2288  0.3415
 8839W        W24913   5.996  10.627  14.188 -0.0043 -0.0931 -0.0034
 8840W        W24914   5.965   4.161   6.004 -0.1987  0.0318 -0.0329
 8841W        W24915   5.828  16.646  15.370  0.0042  0.2993  0.1876
 8842W        W24916   2.105   8.857   5.596  0.0541 -0.0057 -0.1993
 8843W        W24917   2.969   1.191  12.959 -0.1268  0.1237 -0.1955
 8844W        W24918  11.694   7.307   2.981 -0.3364 -0.0999 -0.3388
 8845W        W24919   9.414   6.674   4.010 -0.0277  0.1173 -0.2744
 8846W        W24920   0.133   3.117  12.777  0.0673 -0.0628  0.0485
 8847W        W24921  17.012   9.370   3.976  0.1780  0.3917  0.1602
 8848W        W24922   2.989   6.393  13.371  0.3279 -0.3261  0.3371
 8849W        W24923   2.370  14.799  14.512 -0.0734 -0.2520 -0.1816
 8850W        W24924  10.958   4.510   2.166 -0.1426 -0.0148  0.3121
 8851W        W24925   3.738   4.898  15.811 -0.2849  0.0750  0.2924
 8852W        W24926   0.385  13.475   4.095 -0.1995  0.2182  0.1087
 8853W        W24927   4.431   8.770  11.948  0.1705 -0.0722 -0.1264
 8854W        W24928   1.506  14.224  14.693 -0.1381  0.3648 -0.0283
 8855W        W24929  13.917  15.940   5.660 -0.0455  0.3352  0.4885
 8856W        W24930  15.998  10.251  16.916  0.0252 -0.0575 -0.1153
 8857W        W24931   3.141  14.594  16.489  0.0126  0.4262  0.0582
 8858W        W24932   2.301   7.159   1.010 -0.2660 -0.2174  0.0068
 8859W        W24933   2.806   5.121   3.686  0.1498 -0.0520  0.0344
 8860W        W24934  14.816  12.021   5.181 -0.0921  0.0356  0.4703
 8861W        W24935  17.402   7.340   3.056  0.3691  0.2316 -0.1859
 8862W        W24936   9.273  11.778  13.777 -0.3637 -0.2371 -0.0810
 8863W        W24937   1.884   6.197  15.021 -0.3295  0.3096  0.0820
 8864W        W24938   1.340   0.161  14.734 -0.0879 -0.1926 -0.1187
 8865W        W24939  12.288  15.398  12.517 -0.1376 -0.1539 -0.3194
 8866W        W24940  12.055   6.197  15.338  0.0432 -0.0050  0.1009
 8867W        W24941  11.795   6.201   2.972 -0.0788 -0.0517  0.3580
 8868W        W24942   5.284  13.714  16.518 -0.2691 -0.1562  0.0697
 8869W        W24943   5.958  16.759  13.780 -0.2964 -0.3408 -0.1433
 8870W        W24944  13.856   1.110  12.640 -0.1485 -0.0019  0.0367
 8871W        W24945  15.157   8.492  15.126  0.0139  0.4221 -0.0324
 8872W        W24946  12.635   6.091  16.692 -0.2479  0.1414  0.1543
 8873W        W24947   9.060   1.160   2.800 -0.0179 -0.3990 -0.3211
 8874W        W24948   7.926  14.001  15.683 -0.1808 -0.2204 -0.2850
 8875W        W24949   5.405   6.684   1.419  0.1615 -0.0836 -0.0093
 8876W        W24950   5.118  13.431  14.631 -0.0790 -0.0703  0.2498
 8877W        W24951  12.924  15.770   1.654  0.2692  0.2410 -0.0362
 8878W        W24952   0.261   9.099   1.839  0.1072 -0.1553  0.3345
 8879W        W24953  13.523   6.807   5.546 -0.0202 -0.2801  0.0316
 8880W        W24954   2.578   6.880   2.586 -0.0516 -0.1911  0.0666
 8881W        W24955  14.644   2.097   4.602 -0.2161  0.2029  0.1683
 8882W        W24956   7.164  15.689   0.344 -0.0153 -0.0501 -0.0994
 8883W        W24957   3.624   4.453   3.476 -0.0205 -0.0118 -0.0451
 8884W        W24958   0.373   2.111  16.257  0.0482  0.1412  0.0433
 8885W        W24959  15.736   9.223   0.983  0.3507 -0.1551 -0.1503
 8886W        W24960   1.508  14.410   4.175  0.0623 -0.2998 -0.0160
 8887W        W24961   9.709   2.141  14.493  0.1158  0.0324  0.0845
 8888W        W24962   9.097  15.347   5.828  0.2761 -0.1007  0.1936
 8889W        W24963   2.362  13.122  15.706  0.0188 -0.2545 -0.1061
 8890W        W24964   2.054  15.209   3.847  0.0434  0.1129 -0.1084
 8891W        W24965  10.588   5.015  16.903  0.2010  0.1546 -0.1942
 8892W        W24966   5.962   1.238   6.014  0.0832  0.1387  0.4774
 8893W        W24967  12.573  13.633   4.190  0.1115 -0.0018  0.0856
 8894W        W24968  13.709   0.049  15.650  0.2174  0.0225 -0.1832
 8895W        W24969   5.743  12.655   5.949 -0.0725  0.1498 -0.0546
 8896W        W24970   1.394   3.769   5.828  0.6037  0.3254 -0.2078
 8897W        W24971   1.210   1.422  15.908 -0.0198 -0.1997  0.0163
 8898W        W24972   9.762   1.517  13.270 -0.0584  0.0649  0.1274
 8899W        W24973  12.242  15.530   4.350 -0.0149 -0.0591  0.0220
 8900W        W24974   7.010  11.810  15.480  0.4452  0.2154 -0.0461
 8901W        W24975  14.044   0.480  13.442 -0.0776 -0.0438 -0.2409
 8902W        W24976   4.476   4.201   5.197 -0.0872  0.2635 -0.1586
 8903W        W24977  11.066   4.178   3.273 -0.0059 -0.0595 -0.0534
 8904W        W24978  14.733  13.156  14.486 -0.1683 -0.3873 -0.3211
 8905W        W24979   7.252   7.803   4.969 -0.0046  0.1198 -0.0650
 8906W        W24980   2.111   8.914  16.570 -0.4392 -0.0193  0.0771
 8907W        W24981  15.536  10.213  15.699  0.0256 -0.0014  0.1064
 8908W        W24982  10.834  16.943  16.567  0.1344 -0.0224 -0.0277
 8909W        W24983   1.834   4.096   3.198 -0.1827 -0.2292  0.2122
 8910W        W24984  12.813   3.238   4.313 -0.0997 -0.2578 -0.1794
 8911W        W24985   9.712  15.400  16.557  0.1221 -0.0021 -0.1900
 8912W        W24986  15.832   2.934   5.279 -0.3367 -0.1504  0.1225
 8913W        W24987   0.446  15.920  16.670 -0.2202 -0.0260  0.0382
 8914W        W24988   3.317   6.786  14.186  0.2448 -0.2276 -0.1245
 8915W        W24989   1.736  12.058   4.591 -0.1553  0.3074  0.1332
 8916W        W24990   4.640   7.388   5.304  0.0230 -0.0603  0.1180
 8917W        W24991   2.604   1.157  14.761 -0.0875 -0.0471 -0.2299
 8918W        W24992   3.780  11.924   0.366  0.0817 -0.1335 -0.1348
 8919W        W24993   5.646   2.202   0.945 -0.0104  0.0872  0.0256
 8920W        W24994  16.381   0.427   0.485 -0.1801 -0.2075  0.0907
 8921W        W24995   2.561  15.552  13.238  0.2330  0.2933  0.1312
 8922W        W24996   9.872   0.514   4.826 -0.0415  0.0469  0.2564
 8923W        W24997  14.297   8.435   0.642 -0.0120  0.0699  0.0041
 8924W        W24998   1.499  15.938  13.339  0.3795  0.0642  0.0485
 8925W        W24999  11.935  10.279  15.589 -0.0058  0.0011  0.3356
 8926W        W25000  17.634  13.236  13.163 -0.1653 -0.0659  0.2471
 8927W        W25001  12.351   2.984   3.451 -0.1662  0.0018 -0.1100
 8928W        W25002  10.596   4.183  15.683  0.4417  0.2369  0.0169
 8929W        W25003  16.057  16.145   5.054 -0.0355  0.1828  0.3554
 8930W        W25004   0.058  10.440   2.329  0.1789 -0.0434 -0.0512
 8931W        W25005   5.945   0.291  14.039  0.1992 -0.0263  0.0231
 8932W        W25006   8.394   0.476   0.625 -0.0451 -0.0755  0.2303
 8933W        W25007  17.100   2.643  12.555 -0.0841  0.0897  0.1158
 8934W        W25008   1.459   9.416  16.547 -0.0046  0.0392  0.1435
 8935W        W25009   8.369   7.652  12.648  0.0279  0.1262 -0.2120
 8936W        W25010   0.086  15.370   1.996 -0.4379 -0.1372  0.0094
 8937W        W25011   4.314   2.689   0.610  0.2165 -0.2665  0.3724
 8938W        W25012   6.886   5.385  16.262 -0.3917 -0.2014  0.0643
 8939W        W25013  13.043  10.608  16.938 -0.1478 -0.0994  0.0194
 8940W        W25014   8.918  15.199  15.851  0.1909  0.1595  0.2355
 8941W        W25015  15.731  17.518   0.535 -0.1807 -0.1550  0.0213
 8942W        W25016  12.604  16.608   0.175 -0.1039  0.2312  0.1940
 8943W        W25017   3.601   8.875   1.032  0.0953  0.0073  0.2695
 8944W        W25018   6.992   6.071   4.857  0.1597 -0.1837  0.2864
 8945W        W25019  11.240   6.370  13.648  0.0855 -0.0427 -0.0742
 8946W        W25020   7.949   6.073   5.576 -0.0272 -0.1060 -0.0195
 8947W        W25021   9.193  16.046   0.447 -0.3264  0.2706  0.3228
 8948W        W25022  13.747   0.667  14.903  0.0494  0.1658 -0.0440
 8949W        W25023   3.109   8.354  15.424 -0.3945 -0.2476 -0.0278
 8950W        W25024   4.810   9.714   5.661  0.1095 -0.1576  0.0594
 8951W        W25025  12.593  17.102  12.111 -0.2250  0.1831  0.2016
 8952W        W25026  14.750   6.740  15.720 -0.0411 -0.0119  0.0479
 8953W        W25027  14.585   3.597  13.676  0.1497  0.3810  0.2435
 8954W        W25028   8.101   7.190  16.147 -0.3610  0.1312 -0.0719
 8955W        W25029  16.895  11.194  16.675 -0.2456  0.0632 -0.0686
 8956W        W25030  16.145   9.395  15.361  0.1809 -0.2732 -0.1467
 8957W        W25031  16.676   1.317  15.998  0.1164  0.3185 -0.0694
 8958W        W25032  10.335  13.639  14.467  0.0853 -0.1370  0.0400
 8959W        W25033   3.142   4.883  14.813  0.0450 -0.2316  0.0027
 8960W        W25034   8.551  12.732  15.697  0.3965 -0.0030  0.2072
 8961W        W25035   7.048   7.401   3.839 -0.4054 -0.1373 -0.0166
 8962W        W25036   2.325   3.979   3.146  0.2521 -0.2248  0.4371
 8963W        W25037  15.158   1.964   3.393  0.0450  0.0148  0.1268
 8964W        W25038   2.178   2.812   4.283  0.1023  0.1526 -0.1735
 8965W        W25039  14.011   4.769  12.015 -0.3400 -0.0986 -0.1942
 8966W        W25040   0.806  13.396   3.153  0.5007 -0.1094  0.0839
 8967W        W25041   3.597   1.665  12.378  0.1319  0.0449 -0.0561
 8968W        W25042   9.020  14.342  16.427  0.2793  0.2203 -0.1742
 8969W        W25043  13.386  15.617  14.072 -0.2580 -0.1237 -0.0993
 8970W        W25044  13.416  15.438   1.273 -0.2137 -0.2425 -0.0595
 8971W        W25045   6.455   5.739  15.788  0.2260  0.2495  0.0142
 8972W        W25046   2.108   3.858   0.263 -0.0668 -0.1798  0.0487
 8973W        W25047  10.490  10.468   1.746  0.2046  0.1472  0.1900
 8974W        W25048   4.384   9.030  14.308  0.0620 -0.2817 -0.0803
 8975W        W25049  15.280   7.671   5.409  0.1765  0.1992 -0.2466
 8976W        W25050  12.840  11.573  15.418  0.2659  0.2794 -0.0860
 8977W        W25051  12.380   2.155  12.330 -0.0590 -0.0122  0.3187
 8978W        W25052   5.497  12.873  14.408  0.0560 -0.1796 -0.0152
 8979W        W25053  14.464   6.243  11.875 -0.1969 -0.3529  0.2198
 8980W        W25054   6.240   4.087   0.156 -0.1013  0.1846  0.3463
 8981W        W25055  13.581   0.155   1.061  0.3513 -0.1890 -0.0786
 8982W        W25056  16.483  17.531   4.280 -0.2031 -0.2161  0.0080
 8983W        W25057   6.916  12.829  13.213 -0.0561  0.1647  0.0771
 8984W        W25058   9.044   9.868   5.355  0.1756 -0.0249  0.1850
 8985W        W25059  12.443  11.024  13.321  0.2342 -0.3130  0.0185
 8986W        W25060   0.891  16.911  16.934  0.2339 -0.2453  0.1311
 8987W        W25061   8.013   9.835  12.169  0.3214 -0.0984 -0.0400
 8988W        W25062  16.990  17.454  16.894 -0.1472  0.0170 -0.1682
 8989W        W25063   8.427  10.599  16.672  0.0157  0.1083 -0.1326
 8990W        W25064  15.012   4.817   2.644 -0.1659 -0.0958  0.2615
 8991W        W25065  12.247  13.035   1.918  0.1497 -0.1156  0.2503
 8992W        W25066   3.283   1.306  14.126 -0.1540 -0.1315  0.1033
 8993W        W25067   5.446  16.109   2.678  0.0514  0.2082 -0.2013
 8994W        W25068   5.585  14.529  14.436 -0.1265 -0.0927 -0.1783
 8995W        W25069   8.730   5.315  12.498  0.1099 -0.3396 -0.1171
 8996W        W25070   6.840  17.569  14.419 -0.0447  0.0767  0.2816
 8997W        W25071   7.159  12.309  13.390  0.0385 -0.1666  0.3980
 8998W        W25072   0.240   3.335  15.304 -0.3006 -0.0800  0.1322
 8999W        W25073   6.586   0.821  15.096  0.1841 -0.2616  0.0190
 9000W        W25074  15.642   6.429  15.931  0.0461  0.2643  0.1419
 9001W        W25075   6.739   6.069  12.224 -0.1134 -0.5379  0.0436
 9002W        W25076   2.302  16.831  12.809  0.1260  0.1474  0.2775
 9003W        W25077  11.746  16.390  14.202 -0.0660  0.0764 -0.2213
 9004W        W25078   7.125   5.097   1.354 -0.0736  0.1830  0.1222
 9005W        W25079  16.424  16.829  16.518  0.1715 -0.1411 -0.0114
 9006W        W25080  11.291   9.616  16.667  0.3720  0.1623 -0.0338
 9007W        W25081  14.366  15.934  16.177  0.2867  0.1314  0.1105
 9008W        W25082  15.732  11.016  16.484  0.3203  0.1534 -0.0597
 9009W        W25083  13.852  15.724  14.192  0.0641 -0.0324  0.2023
 9010W        W25084  16.264  10.998  16.287 -0.0600 -0.0170 -0.1977
 9011W        W25085   2.712  13.687   0.310 -0.1938  0.3722 -0.0395
 9012W        W25086  14.086  16.481   0.528 -0.0421 -0.0389 -0.0070
 9013W        W25087   0.140   0.729   3.310  0.1586  0.1054  0.1068
 9014W        W25088   9.657   5.830   1.144  0.1060 -0.1893 -0.3308
 9015W        W25089  16.039  14.538  12.674  0.0608 -0.0757  0.2001
 9016W        W25090   6.041  16.435  16.869 -0.2639  0.0193 -0.1754
 9017W        W25091   4.784  11.347   2.828  0.1184  0.0832 -0.0266
 9018W        W25092  13.279  10.897  12.626  0.0069  0.0052 -0.3964
 9019W        W25093   8.576  13.143   0.117 -0.1772 -0.1923 -0.2822
 9020W        W25094   5.182  10.572   2.794  0.2635 -0.2337 -0.2651
 9021W        W25095   6.336   7.584   4.370  0.3383  0.0537  0.1878
 9022W        W25096  10.744   4.333   1.505  0.1953 -0.2381 -0.0131
 9023W        W25097   2.635  17.519   4.029  0.1336 -0.0260 -0.2983
 9024W        W25098  16.148  14.365   4.235  0.0548 -0.1766 -0.1641
 9025W        W25099   0.920   8.105  11.670  0.0714  0.1870 -0.3098
 9026W        W25100  17.671   4.825  14.696 -0.2359  0.3493  0.0233
 9027W        W25101  16.685   9.755   3.445  0.0228  0.0138 -0.1264
 9028W        W25102   4.358   1.089  15.654  0.2234  0.0739  0.0710
 9029W        W25103  17.639  10.149   5.505 -0.0811  0.0265  0.1377
 9030W        W25104  14.541   7.825  12.896 -0.0361 -0.2757 -0.0373
 9031W        W25105  15.875   4.407   3.932 -0.2045  0.1198 -0.0736
 9032W        W25106   1.290  14.575   3.651  0.0074  0.0178  0.2787
 9033W        W25107   7.679  15.618  14.094  0.1093 -0.0734  0.1755
 9034W        W25108   9.847  11.356   3.161  0.0939 -0.0981  0.0782
 9035W        W25109  13.704   7.060   3.223 -0.1272  0.1464  0.1469
 9036W        W25110   4.747  12.347   3.421 -0.0105  0.0015  0.0174
 9037W        W25111   7.257  17.453  13.246  0.0169  0.0396  0.0299
 9038W        W25112  13.551   0.247   4.470  0.2547 -0.1644  0.0424
 9039W        W25113   9.843   6.154  16.839 -0.2245 -0.1413 -0.1580
 9040W        W25114  11.073   2.995   2.107  0.2281 -0.1077  0.0601
 9041W        W25115  14.373   7.193  11.797 -0.0753  0.1179  0.0718
 9042W        W25116  13.882   8.825   3.952  0.0042 -0.1088 -0.0879
 9043W        W25117   0.736   9.662   2.500  0.2293  0.1647  0.1927
 9044W        W25118   0.967   1.145   3.264 -0.2073  0.2644 -0.2570
 9045W        W25119  14.711  14.176   0.678 -0.1540 -0.3952  0.1867
 9046W        W25120   1.456   9.817   5.267  0.0932  0.2792  0.0135
 9047W        W25121   2.856   0.451   0.833 -0.3161  0.3132  0.0724
 9048W        W25122   6.479   6.451   5.130  0.0034  0.0043 -0.0071
 9049W        W25123  14.779  16.631   3.334 -0.1481  0.1484 -0.3055
 9050W        W25124   1.096   3.475   1.807  0.0673 -0.0392 -0.0911
 9051W        W25125  14.193   1.456   3.811 -0.0361 -0.0109  0.0822
 9052W        W25126   2.123   2.762  14.680 -0.3231 -0.0794  0.0938
 9053W        W25127   9.936   1.374   4.401  0.3649 -0.2495  0.3972
 9054W        W25128   3.756  10.250   3.265 -0.2591 -0.0951 -0.4202
 9055W        W25129   0.735   0.959  15.335  0.1720  0.0297  0.1524
 9056W        W25130  16.082   3.107   5.664 -0.1640  0.1712  0.0605
 9057W        W25131   2.067  14.678  14.070  0.1100 -0.0974  0.0983
 9058W        W25132  12.295  13.293   5.959  0.0877 -0.2184  0.4333
 9059W        W25133  17.587  17.085  12.040 -0.0493 -0.0528  0.1804
 9060W        W25134  15.207  10.402   4.043  0.0465  0.1068  0.0845
 9061W        W25135   8.979  15.050   4.990 -0.5715  0.0565 -0.2977
 9062W        W25136   1.044  11.453   0.477 -0.2678 -0.1642 -0.1731
 9063W        W25137   5.912  14.215  15.289 -0.0633  0.1016 -0.3814
 9064W        W25138   3.618   1.351   4.545 -0.1330 -0.0953 -0.0447
 9065W        W25139   8.545   9.831   5.262  0.1533  0.1601  0.1989
 9066W        W25140   2.873   1.074   0.005 -0.3471 -0.0889 -0.2431
 9067W        W25141  12.136  10.180  12.532 -0.1083 -0.3849 -0.0250
 9068W        W25142   1.789  17.354  16.826 -0.0948  0.0332  0.0260
 9069W        W25143   7.149   4.477  12.356 -0.0009  0.1650 -0.2609
 9070W        W25144  16.305   1.758   5.787 -0.1006  0.0037 -0.2333
 9071W        W25145   3.562   5.879  11.674  0.2344 -0.1819 -0.1237
 9072W        W25146   7.273   0.990   1.335 -0.0635 -0.2921 -0.0857
 9073W        W25147   8.077   0.671  12.747  0.2752  0.1130  0.0111
 9074W        W25148   3.498   9.872  16.564  0.0313  0.2585  0.0740
 9075W        W25149  12.526   0.079   4.402  0.0705 -0.0638 -0.0143
 9076W        W25150  12.138  11.442   3.042 -0.3555 -0.0378 -0.4036
 9077W        W25151  14.218   3.772   1.560  0.0727 -0.0426  0.1676
 9078W        W25152  14.249   8.494   4.665 -0.0733 -0.2008  0.0769
 9079W        W25153   6.477  11.676   2.142 -0.1113  0.0780  0.0817
 9080W        W25154  17.790   4.220  13.900 -0.2738  0.0465 -0.0173
 9081W        W25155  12.999   9.983  12.012  0.0428  0.0835  0.3271
 9082W        W25156   7.434  17.090  12.814  0.1759  0.2059 -0.1167
 9083W        W25157   0.978  16.765  16.448 -0.0908  0.0420 -0.0673
 9084W        W25158  12.816  15.922   5.142 -0.0992  0.0221 -0.0553
 9085W        W25159   5.518   3.105   0.876  0.0129 -0.0077 -0.1958
 9086W        W25160   9.998   0.615  11.695 -0.1195  0.2178 -0.1367
 9087W        W25161   3.070  12.737  14.565  0.1119  0.0702 -0.0133
 9088W        W25162   9.314  13.481   5.462 -0.2706 -0.3567 -0.4064
 9089W        W25163   1.081   0.233   1.838 -0.0973  0.0578 -0.0075
 9090W        W25164   8.993   3.495   2.460 -0.0179  0.1298 -0.1844
 9091W        W25165   0.381  12.330  12.294  0.0346 -0.2283 -0.0383
 9092W        W25166   3.804  16.313  16.307 -0.1660  0.3268  0.3714
 9093W        W25167   9.037   5.362  13.425  0.0333 -0.1400  0.2778
 9094W        W25168  15.501   6.884  16.229  0.1013  0.0326  0.1184
 9095W        W25169  15.653  12.684  16.866 -0.0893  0.0699 -0.1986
 9096W        W25170  14.176   9.525  14.794  0.1551  0.2652 -0.3142
 9097W        W25171   5.702   7.071  13.289 -0.0091 -0.0925 -0.1359
 9098W        W25172   6.361  14.965   4.294  0.0652  0.2582 -0.2146
 9099W        W25173  16.901  11.604   5.174  0.0262  0.4811 -0.0955
 9100W        W25174  15.348  11.021   3.965 -0.1752  0.2921  0.2295
 9101W        W25175  16.908   3.816   4.153  0.1696 -0.0579 -0.0762
 9102W        W25176   6.252   0.159  13.654 -0.3170 -0.0638  0.2767
 9103W        W25177  10.411  14.975   4.531  0.0614  0.0262  0.3242
 9104W        W25178   9.528   6.726  13.673  0.0236 -0.1636  0.0270
 9105W        W25179  10.980  16.897  15.683 -0.0844  0.2048 -0.0589
 9106W        W25180   4.380  16.088   4.457  0.1646 -0.2258 -0.2194
 9107W        W25181   2.969  13.501  12.591  0.0315 -0.2998  0.0603
 9108W        W25182   2.972  17.412   5.828 -0.2818  0.4834 -0.0397
 9109W        W25183   6.871   2.279   3.437 -0.4643 -0.2036 -0.0391
 9110W        W25184  17.267   1.967   2.454  0.1166  0.0914  0.1672
 9111W        W25185  11.344   5.878   3.838  0.0170  0.0641  0.3673
 9112W        W25186   5.650  11.527  10.592  0.0977  0.1807 -0.2014
 9113W        W25187   5.449   4.289   4.133 -0.2139 -0.1831  0.1660
 9114W        W25188  13.492   3.755   6.415 -0.1190 -0.1045  0.0901
 9115W        W25189   0.986   1.483   2.390 -0.4431 -0.1913  0.0435
 9116W        W25190   8.164  10.635   1.478  0.0973 -0.0418  0.0367
 9117W        W25191   6.711  11.095  13.801 -0.0645  0.0073  0.0773
 9118W        W25192   0.845   3.001  12.257 -0.0058 -0.0756  0.0748
 9119W        W25193   1.479  13.706   4.609  0.3585  0.0028 -0.2433
 9120W        W25194  11.901  10.821  12.590  0.0653 -0.1826  0.3343
 9121W        W25195   3.620  14.618   5.391  0.0353  0.3096 -0.2618
 9122W        W25196  10.607  13.757   3.865 -0.0016  0.1081 -0.3134
 9123W        W25197   3.707   4.231  13.578  0.3105 -0.3316 -0.0382
 9124W        W25198   7.345  11.597  12.611  0.0383  0.0867 -0.2794
 9125W        W25199   4.128  14.473  11.990 -0.1266  0.2435  0.2054
 9126W        W25200   1.368   2.965  12.326  0.2436  0.0568 -0.0778
 9127W        W25201   8.666  10.646   6.312 -0.0769 -0.0454 -0.0450
 9128W        W25202   6.518   3.459   4.433 -0.0648 -0.1815  0.2547
 9129W        W25203   2.358  14.453  13.138  0.0364  0.1292 -0.0937
 9130W        W25204   9.070  13.210   1.687 -0.0231  0.4888 -0.0972
 9131W        W25205   9.719   3.887   4.886  0.2859  0.2560 -0.0329
 9132W        W25206   3.503   5.494  16.795 -0.1657  0.2405  0.2654
 9133W        W25207  12.739  15.312  16.610 -0.1626 -0.0392  0.0697
 9134W        W25208  10.660   1.742  14.309 -0.2353  0.1461  0.0882
 9135W        W25209  13.260   5.033  15.316 -0.3374 -0.1732 -0.0323
 9136W        W25210  14.991  14.709   3.589 -0.1395 -0.1779  0.0329
 9137W        W25211  16.438   9.270  11.997  0.1707 -0.0596  0.0891
 9138W        W25212   9.054  11.087  12.647  0.2447 -0.0074 -0.2581
 9139W        W25213   5.531   4.143  14.319 -0.1511 -0.1399 -0.2349
 9140W        W25214  11.608  17.003   5.756  0.1974  0.3606  0.0657
 9141W        W25215  11.423   9.200  12.644  0.3102  0.0834 -0.0199
 9142W        W25216  12.654   1.294   3.428  0.3118 -0.1112  0.0222
 9143W        W25217  13.985   4.985   2.753  0.0258  0.1130 -0.1948
 9144W        W25218  17.048  10.224  15.557  0.1807  0.3334 -0.4104
 9145W        W25219  15.618   2.527   5.018 -0.1192 -0.0755 -0.1183
 9146W        W25220  13.070   1.738  14.563  0.1957 -0.2092  0.1077
 9147W        W25221  13.627   9.091   2.975 -0.1525  0.0279  0.0451
 9148W        W25222  10.939   9.375   4.633 -0.0287  0.0056 -0.4846
 9149W        W25223  16.242  16.087   3.495  0.0010 -0.2043 -0.1233
 9150W        W25224   3.405  12.005   3.966 -0.2639  0.0464  0.1785
 9151W        W25225   5.045   0.778  11.715 -0.0735  0.0957 -0.1508
 9152W        W25226   0.597  11.373   5.146  0.0171 -0.0349 -0.4963
 9153W        W25227   9.786   0.981   0.577  0.0183  0.1568  0.0617
 9154W        W25228   9.599   9.116  12.069  0.2231  0.0052 -0.0302
 9155W        W25229  13.194   3.267  16.799  0.0537 -0.1325 -0.0531
 9156W        W25230  11.995  12.946   6.131  0.2937 -0.2524  0.1919
 9157W        W25231   7.302  12.760   3.203 -0.2206 -0.0299 -0.0491
 9158W        W25232   0.495   1.805  12.230  0.1249 -0.1195 -0.0278
 9159W        W25233  17.435   4.416   0.936 -0.1650 -0.0718  0.2600
 9160W        W25234  12.407  10.055   2.605  0.0204 -0.2267  0.1790
 9161W        W25235   3.280  10.098  13.364  0.0838  0.2861 -0.0145
 9162W        W25236  13.730   0.119  13.610 -0.1517  0.1773 -0.0288
 9163W        W25237   5.698   7.839   5.582 -0.2073 -0.1249  0.0195
 9164W        W25238   4.592   7.088   3.872  0.1449  0.0852  0.1978
 9165W        W25239   7.420   9.260   2.511  0.0486  0.2148  0.0048
 9166W        W25240  12.826   8.421   3.353 -0.1416  0.0608  0.1483
 9167W        W25241  15.872   7.763  16.601 -0.0030  0.1998 -0.1809
 9168W        W25242   0.390   9.348  16.913 -0.0782 -0.2495  0.2097
 9169W        W25243   7.209  11.564  11.638 -0.2567  0.2799  0.1196
 9170W        W25244  12.993   4.876  12.283  0.1789 -0.2255  0.1243
 9171W        W25245   3.473  13.714  12.654 -0.0482  0.3160  0.2705
 9172W        W25246  16.160   7.630  14.742  0.0246 -0.0053 -0.0739
 9173W        W25247   8.162   1.778  15.536 -0.0925 -0.0845  0.0694
 9174W        W25248  17.044   5.749   0.494  0.1846 -0.2335 -0.0008
 9175W        W25249  13.541  12.067   1.655  0.2763  0.0495  0.0640
 9176W        W25250   9.658  12.137   4.091  0.1469  0.1384 -0.2756
 9177W        W25251  17.287   8.217  16.005 -0.3188 -0.1664 -0.0276
 9178W        W25252   4.349  12.676  14.806  0.0748 -0.0837  0.0477
 9179W        W25253  10.097  17.730  14.660 -0.1289  0.2512  0.0419
 9180W        W25254  10.242  11.916   3.403  0.0076 -0.2754 -0.0519
 9181W        W25255   0.969   7.133   2.348  0.3791 -0.0111 -0.0671
 9182W        W25256   0.712   5.047  14.746  0.0076  0.0109  0.0120
 9183W        W25257  17.249  10.249  13.298 -0.1072 -0.0744 -0.0941
 9184W        W25258   4.654   8.120  12.940  0.1129 -0.0983 -0.0156
 9185W        W25259  17.755   1.495   3.034  0.2167  0.1742 -0.0875
 9186W        W25260  13.744  10.692   3.878 -0.1676  0.0137 -0.0902
 9187W        W25261   5.977  17.271  14.219 -0.3037  0.2702  0.0734
 9188W        W25262  12.041  13.607  13.787  0.1599  0.1814  0.0719
 9189W        W25263   8.258   9.184  15.418 -0.0259 -0.0712  0.0193
 9190W        W25264  10.352  17.650  12.236 -0.1926  0.0974 -0.0353
 9191W        W25265   7.073   1.768  13.770 -0.0436  0.0963  0.0719
 9192W        W25266   2.599   8.214  15.454 -0.1000 -0.1463 -0.3369
 9193W        W25267  14.857   5.104  15.774 -0.2876 -0.0936  0.1790
 9194W        W25268  15.134  13.332   1.228 -0.0751 -0.0103 -0.2331
 9195W        W25269   7.233  16.305  13.671  0.0876 -0.0942  0.0735
 9196W        W25270  15.615   2.629  11.763 -0.0243  0.0921 -0.1559
 9197W        W25271  15.382   3.860   3.004 -0.2422  0.0266 -0.1271
 9198W        W25272  14.375  14.210   3.877 -0.0390 -0.1171 -0.0579
 9199W        W25273   0.492   3.108  10.802 -0.0566  0.0385  0.2959
 9200W        W25274   0.979   6.684   4.390 -0.2894  0.1853  0.0076
 9201W        W25275   6.370   3.854   0.570 -0.0341  0.2652  0.2372
 9202W        W25276   7.789   4.943   3.703 -0.1954 -0.1451  0.0863
 9203W        W25277   8.158  14.276  14.657 -0.1453 -0.0706 -0.1861
 9204W        W25278  17.084   8.532   5.568  0.1674 -0.3893 -0.1009
 9205W        W25279   0.567   3.401  16.542  0.0792 -0.1598 -0.3280
 9206W        W25280   9.967   4.676  15.131  0.0608 -0.0127 -0.1837
 9207W        W25281  10.978  16.521   0.406  0.3396  0.2768  0.2109
 9208W        W25282   5.589   0.237  16.021  0.0114 -0.2556  0.4091
 9209W        W25283   1.732   4.912  13.521  0.0121 -0.0866 -0.1767
 9210W        W25284   0.544  11.069   3.505 -0.1961 -0.2739  0.0275
 9211W        W25285   3.019   5.681  16.923  0.1024  0.1399  0.1278
 9212W        W25286  12.145   3.783  12.104  0.0416  0.0861  0.0901
 9213W        W25287  10.676  13.052   3.424  0.0920  0.0658  0.1856
 9214W        W25288  12.814   3.367   4.800  0.0411  0.1475  0.0534
 9215W        W25289   5.978   6.689  14.621 -0.0043 -0.2217 -0.0783
 9216W        W25290   5.287   9.200  16.256 -0.1243 -0.1223 -0.1403
 9217W        W25291  10.775   0.644  16.570  0.2097  0.3844  0.0437
 9218W        W25292   0.667   6.377  15.575  0.0167  0.5041  0.1730
 9219W        W25293  11.083   2.589  12.689  0.1618  0.1028  0.0153
 9220W        W25294  12.171  12.057   3.036 -0.0099  0.0262 -0.1560
 9221W        W25295   8.003   1.938   0.452  0.0419 -0.2490  0.0515
 9222W        W25296   7.902   7.624  12.734  0.0314 -0.1796 -0.2034
 9223W        W25297  11.874   0.512   4.310 -0.3262 -0.2452  0.1562
 9224W        W25298  10.421   2.858  15.851  0.1366  0.1104 -0.0807
 9225W        W25299  10.766  10.538  15.794 -0.1027  0.1100  0.2531
 9226W        W25300   6.602   9.956   1.704 -0.1710  0.2229  0.0984
 9227W        W25301   5.522  11.750  11.883 -0.0613 -0.0954 -0.0057
 9228W        W25302  10.801   2.541  14.090 -0.0708 -0.0174  0.1471
 9229W        W25303  16.034  10.903  15.557  0.2006  0.1198  0.0223
 9230W        W25304  12.665   9.164  13.088  0.1218 -0.1479  0.1722
 9231W        W25305  14.766   9.505  16.803  0.0356 -0.0858  0.0227
 9232W        W25306   0.658   4.185  16.862  0.0643 -0.2410 -0.1508
 9233W        W25307   7.470  13.819  12.764 -0.2580 -0.1592 -0.0747
 9234W        W25308   6.554   9.297  14.129 -0.0786 -0.0968 -0.1818
 9235W        W25309  11.235   5.583  11.982 -0.0728  0.1154  0.2224
 9236W        W25310  17.827  13.189  12.673 -0.1186  0.0078 -0.0694
 9237W        W25311   0.096   4.729  14.153 -0.1138  0.0811  0.3047
 9238W        W25312   0.607   9.650  14.678  0.0871 -0.0190 -0.4036
 9239W        W25313   0.864  14.186   4.723  0.2166 -0.2203 -0.3472
 9240W        W25314  13.795  12.848   4.922  0.2012  0.1711  0.2107
 9241W        W25315   1.521   1.856   3.324 -0.1529 -0.0473 -0.0039
 9242W        W25316  15.513  10.677   3.111  0.0175 -0.1400  0.0753
 9243W        W25317  15.068  12.395   1.648  0.0236 -0.0465  0.0110
 9244W        W25318   7.157   3.209   4.911 -0.1779  0.1810 -0.1142
 9245W        W25319  11.044   4.543   5.648  0.0367 -0.1333 -0.1673
 9246W        W25320  17.312  15.700  13.418 -0.0016  0.0811 -0.0835
 9247W        W25321   6.314  11.076  12.519 -0.0793  0.0517 -0.3209
 9248W        W25322  14.251   7.055   0.121 -0.2545 -0.1080 -0.0398
 9249W        W25323  10.678   0.320   0.042 -0.1994 -0.1672  0.4357
 9250W        W25324   4.142   4.382   3.508  0.0478 -0.2761 -0.2272
 9251W        W25325   3.153  14.803  13.390  0.0048 -0.1256  0.0641
 9252W        W25326  10.855  11.238   0.133  0.1040  0.2432  0.0565
 9253W        W25327   8.986  15.546   2.763 -0.1179 -0.2054 -0.0399
 9254W        W25328  11.515  12.380   2.061 -0.2779  0.0924 -0.0490
 9255W        W25329   1.401   8.469   1.080  0.2032 -0.1485 -0.0962
 9256W        W25330   3.748  14.513   0.187  0.1680 -0.2554 -0.0708
 9257W        W25331  15.611   6.587   2.122  0.1192 -0.2835 -0.1957
 9258W        W25332   0.386  17.681  11.909  0.0789 -0.3437  0.0974
 9259W        W25333  12.418  10.222  13.763  0.0335 -0.0172  0.0094
 9260W        W25334  15.378   0.903  16.762  0.1027  0.0015 -0.1406
 9261W        W25335   2.455   0.957  16.802  0.3418  0.0105 -0.1451
 9262W        W25336  14.318   3.703  13.262  0.1398 -0.0506  0.1291
 9263W        W25337   5.731  12.376  16.596 -0.3702 -0.3263 -0.2200
 9264W        W25338   1.602  17.830  13.453  0.4226 -0.1319  0.0573
 9265W        W25339  13.454   5.235  12.895  0.0019 -0.0298  0.0507
 9266W        W25340  11.924  14.616  15.251 -0.1967  0.0819  0.0677
 9267W        W25341   1.248   4.680   5.543  0.1865  0.1989 -0.0864
 9268W        W25342  15.009  14.828   1.270 -0.4195  0.0294 -0.4703
 9269W        W25343   7.717   5.998  12.401 -0.2818 -0.0289 -0.0987
 9270W        W25344   7.065   9.212  11.608 -0.1558  0.1711  0.4200
 9271W        W25345  13.233   8.803  13.251 -0.1632  0.3411  0.0711
 9272W        W25346   7.054   2.925   3.931  0.1117 -0.2891  0.2400
 9273W        W25347   4.318   2.399   4.795  0.0134  0.2664  0.0568
 9274W        W25348   7.132   0.029   4.128  0.2711 -0.4284  0.0147
 9275W        W25349   0.069   8.333   4.474  0.0352 -0.1645  0.4426
 9276W        W25350  10.586   4.359   3.210  0.1659 -0.0957 -0.1728
 9277W        W25351  10.534   0.309   0.841 -0.0820 -0.1989  0.2143
 9278W        W25352   7.487   3.126  16.150  0.0988 -0.1406 -0.0364
 9279W        W25353  11.297   0.783  12.471  0.2307 -0.1217  0.4338
 9280W        W25354   3.399   3.839  14.393 -0.1032  0.2004  0.0112
 9281W        W25355   8.297  15.782  11.740  0.1683 -0.0314  0.0022
 9282W        W25356   2.719   3.391   2.675 -0.1292 -0.2154  0.0768
 9283W        W25357   6.385   1.129  14.600  0.4280 -0.0482 -0.1251
 9284W        W25358   8.688   9.994   1.269 -0.3775 -0.0917  0.2568
 9285W        W25359   7.039  10.190  12.857 -0.0278 -0.1940 -0.0190
 9286W        W25360   2.299   3.445  14.609 -0.1972 -0.3424  0.2050
 9287W        W25361   4.432  15.473   0.790 -0.0300  0.1151  0.0854
 9288W        W25362  14.470   2.157  15.256 -0.2301  0.2051  0.1111
 9289W        W25363  15.773   8.817  15.817  0.0959 -0.0254 -0.1136
 9290W        W25364   9.424  15.790   1.248 -0.1602  0.1706  0.1280
 9291W        W25365   7.988  17.421  14.215 -0.3306 -0.2307 -0.0051
 9292W        W25366   9.236  12.305  13.814 -0.2191  0.0099  0.2325
 9293W        W25367   5.090  17.202  12.401 -0.0100  0.1394 -0.2971
 9294W        W25368  15.758  15.600  14.278 -0.1742  0.1643 -0.1372
 9295W        W25369  10.576   6.242   3.243  0.0169 -0.0924 -0.3159
 9296W        W25370  11.023  14.431  14.760 -0.0311  0.1500 -0.0727
 9297W        W25371   7.846  15.572   2.493 -0.0014  0.0594  0.4137
 9298W        W25372   2.622   8.991   0.304  0.2037 -0.0665  0.1969
 9299W        W25373  10.480   0.573  12.144 -0.2581 -0.0196 -0.0341
 9300W        W25374   5.130  12.643  15.198  0.1775  0.2391  0.3187
 9301W        W25375  17.739  14.272   3.577 -0.0061  0.2943 -0.1397
 9302W        W25376   4.345  14.022   5.595  0.3043 -0.0312 -0.1762
 9303W        W25377  11.292   2.013   4.753  0.2714  0.1002 -0.1767
 9304W        W25378  15.860   0.820   5.532  0.1499 -0.0685  0.3621
 9305W        W25379   3.495   2.518  14.919  0.0024 -0.0816  0.2793
 9306W        W25380   7.884  17.188  12.658 -0.3246  0.0262 -0.2414
 9307W        W25381  12.378   8.055  12.299  0.4843  0.1717  0.0515
 9308W        W25382   1.178  10.812   1.672 -0.1102 -0.0002  0.0746
 9309W        W25383   4.397  14.857   5.084 -0.1306  0.2870 -0.2296
 9310W        W25384  17.589  11.521  12.361  0.2018  0.0439 -0.0985
 9311W        W25385  13.540  13.960  12.191 -0.0646  0.3289  0.1999
 9312W        W25386  14.692   8.280   2.319  0.1598  0.0332  0.0699
 9313W        W25387   0.862  12.587   5.434  0.0011 -0.1276 -0.0381
 9314W        W25388  11.956   2.408  15.422  0.3421 -0.3356 -0.3796
 9315W        W25389  15.236   7.183   1.194 -0.3316  0.1934 -0.0896
 9316W        W25390  12.618  15.543  16.179  0.0488  0.0414 -0.1122
 9317W        W25391  10.703  13.720  13.095  0.0975  0.0632  0.1768
 9318W        W25392   4.146  10.398  14.166  0.0392 -0.0668  0.2839
 9319W        W25393   4.110   8.710   2.590 -0.2663 -0.0885 -0.1520
 9320W        W25394   8.650  15.188   0.341 -0.2452 -0.1987 -0.0641
 9321W        W25395  14.430  12.470  15.001 -0.2511  0.2255  0.2220
 9322W        W25396   3.321   1.383  12.661  0.1954  0.4124 -0.2122
 9323W        W25397   3.968  17.572   3.824 -0.2943  0.3991 -0.0912
 9324W        W25398   7.043  16.564   3.626 -0.0580 -0.2004 -0.0629
 9325W        W25399  12.272  16.717  15.630 -0.0120  0.0929  0.0132
 9326W        W25400  14.017   0.158   0.753  0.1839  0.1267  0.0909
 9327W        W25401  14.169  12.965  15.668  0.0507  0.1203 -0.0213
 9328W        W25402   5.173   8.651   2.788  0.0526 -0.1950  0.1340
 9329W        W25403   1.042   2.628  12.035  0.0455  0.2654  0.1433
 9330W        W25404   1.413   4.727   2.785 -0.1590 -0.1730 -0.0496
 9331W        W25405  16.518   1.495   4.536 -0.0227  0.0692  0.0396
 9332W        W25406   2.542   4.060   4.411  0.0613 -0.1032 -0.1382
 9333W        W25407  14.654  13.102  16.854 -0.1333 -0.0715 -0.0354
 9334W        W25408  12.943   7.954   3.270  0.0640  0.1052 -0.0469
 9335W        W25409   3.410  14.507   4.153 -0.0114 -0.0598 -0.0473
 9336W        W25410   0.621   7.993  13.347  0.0232 -0.0178 -0.0889
 9337W        W25411  12.039   3.535   1.811 -0.3270 -0.1275 -0.1906
 9338W        W25412   3.106   5.175   4.580  0.0058 -0.1579  0.1060
 9339W        W25413   2.294  16.594  16.626 -0.0255 -0.2176 -0.0281
 9340W        W25414   1.961  12.193   2.868 -0.0316 -0.0817 -0.0235
 9341W        W25415   3.348  12.184  16.265 -0.1915 -0.0152  0.1229
 9342W        W25416   5.004  14.911  13.559 -0.0753 -0.2324  0.0685
 9343W        W25417   2.365   1.074   0.329  0.0976  0.0159 -0.3096
 9344W        W25418  15.010  15.865  15.020  0.1973 -0.4817  0.0902
 9345W        W25419   2.989   9.069  16.597  0.0810  0.1215 -0.1009
 9346W        W25420   8.046  11.216  15.001 -0.0010 -0.3580  0.1324
 9347W        W25421  17.672   6.804  14.453  0.1921  0.1769 -0.2540
 9348W        W25422   3.499   4.933   4.308  0.1023 -0.1108  0.1279
 9349W        W25423  17.671  10.062   1.142 -0.3398  0.0996  0.0353
 9350W        W25424   0.549   2.526   1.081 -0.2942 -0.0704  0.0167
 9351W        W25425  15.030   7.352   4.336  0.5281  0.0196 -0.2642
 9352W        W25426   7.083   7.314   1.861 -0.0513  0.0743  0.3503
 9353W        W25427   1.815   5.791   5.408  0.0375  0.0590  0.2205
 9354W        W25428  16.225   1.158  14.859 -0.1504 -0.1960 -0.0240
 9355W        W25429  13.502   9.809   2.906 -0.1480  0.0157  0.0743
 9356W        W25430  16.179  11.860  12.065  0.1322  0.4416  0.2403
 9357W        W25431  12.025  16.910   5.461 -0.3071 -0.4325 -0.1943
 9358W        W25432  10.665   8.990   5.721 -0.2013 -0.1801  0.0792
 9359W        W25433  17.368  16.904   1.793  0.2832  0.0074 -0.3176
 9360W        W25434   6.859  12.499   0.121  0.1525 -0.1043 -0.0219
 9361W        W25435   7.393   0.734  14.923 -0.0316 -0.2263 -0.3999
 9362W        W25436  14.752  17.488  16.355 -0.0442  0.3416 -0.0559
 9363W        W25437  12.830   3.212  15.881  0.0804 -0.0112  0.2872
 9364W        W25438   6.462   5.856   4.465  0.1184  0.3628  0.1743
 9365W        W25439  12.245  11.194   4.936  0.0909  0.2974 -0.0663
 9366W        W25440   6.940   1.990  16.921 -0.1149  0.1687  0.2822
 9367W        W25441   0.971   7.310  15.905 -0.3111  0.2098 -0.0327
 9368W        W25442  10.143  13.190   0.604  0.0031 -0.0624 -0.1983
 9369W        W25443   4.186  13.898  15.072  0.2545  0.2840 -0.0393
 9370W        W25444  17.369   2.402  13.039 -0.1085  0.2241  0.0288
 9371W        W25445   2.056  16.074  16.865  0.0686 -0.1534 -0.1802
 9372W        W25446  11.697  14.904   0.568  0.2762 -0.0046  0.1791
 9373W        W25447  14.467   5.551  11.176  0.4080  0.1384  0.0311
 9374W        W25448   7.047   9.905   0.585 -0.0415 -0.1169  0.0583
 9375W        W25449   4.983   7.912  13.859  0.1383  0.2300 -0.0288
 9376W        W25450   2.031  11.353   4.968 -0.2585 -0.1292  0.1166
 9377W        W25451  17.638  14.419   2.117  0.0829  0.1742  0.4318
 9378W        W25452  15.156   0.923   2.538  0.0683  0.4870  0.0675
 9379W        W25453  10.415   4.165   6.182 -0.0711  0.0876 -0.4275
 9380W        W25454   0.096   6.115  14.847 -0.1463 -0.1310 -0.0378
 9381W        W25455   0.571   9.351  16.052 -0.0229  0.0247  0.5374
 9382W        W25456  15.802  16.946   0.200 -0.1281  0.0660 -0.1280
 9383W        W25457   5.598  12.047   2.013  0.3890 -0.2954  0.0348
 9384W        W25458  12.742   8.384  11.802  0.1653 -0.1332  0.0526
 9385W        W25459   7.207   3.911   4.160 -0.0479 -0.0254  0.2233
 9386W        W25460  14.316  11.450   5.820 -0.1787  0.0941  0.0252
 9387W        W25461   2.413  14.975   1.747 -0.3609 -0.0546  0.1807
 9388W        W25462  14.581   0.338   2.816 -0.1106 -0.0949 -0.1028
 9389W        W25463  12.099  17.144   5.954  0.0669  0.0368  0.0471
 9390W        W25464  12.226  11.739   1.457  0.2735 -0.3634  0.1619
 9391W        W25465  13.491  15.722   0.861  0.2262 -0.3209  0.3362
 9392W        W25466   5.248  11.953   1.641 -0.0692  0.1420 -0.0044
 9393W        W25467  17.645   4.547  13.139  0.0773  0.1339  0.2042
 9394W        W25468  11.266   3.468  14.875 -0.0183  0.2933  0.1080
 9395W        W25469   9.217   6.702   0.172 -0.1043 -0.1582 -0.0577
 9396W        W25470  11.443  16.282  13.705 -0.0657  0.1612  0.1992
 9397W        W25471  14.757   7.173  16.434 -0.1348 -0.0208 -0.2900
 9398W        W25472  17.135   4.862   3.420 -0.2389  0.0559 -0.1490
 9399W        W25473  12.206  15.143   1.238  0.1703 -0.0088 -0.2076
 9400W        W25474  11.315   3.368  12.206  0.1048 -0.2938  0.1325
 9401W        W25475  10.253   2.328   1.069 -0.1128  0.2053  0.2998
 9402W        W25476   9.341   7.749   6.133  0.0781  0.0769 -0.1739
 9403W        W25477   7.576   8.800  15.999  0.0701  0.1041  0.3175
 9404W        W25478   2.082   9.671   2.201 -0.0628 -0.0179 -0.1272
 9405W        W25479  11.218  12.853   0.193 -0.1575 -0.1575 -0.1564
 9406W        W25480  17.556  15.206   1.643 -0.0910  0.0670  0.0212
 9407W        W25481   7.039   6.711  11.902 -0.0315  0.2819  0.2110
 9408W        W25482   0.710   2.671  14.479 -0.2065 -0.0881 -0.1750
 9409W        W25483   4.942  14.050  13.873 -0.0353 -0.4025 -0.0108
 9410W        W25484  15.496   0.019   2.327 -0.2520 -0.1694 -0.0344
 9411W        W25485  14.748   2.268   3.440 -0.1965 -0.1739 -0.2921
 9412W        W25486  14.802   7.433   5.441  0.0968  0.0150 -0.0321
 9413W        W25487   0.200   1.455  14.111  0.0540  0.2942 -0.2152
 9414W        W25488  16.995   0.772  12.773  0.2418  0.5406 -0.0057
 9415W        W25489   5.875  14.316  11.830 -0.2038  0.1136  0.0036
 9416W        W25490   1.593   5.586   2.389  0.0942 -0.0746  0.0806
 9417W        W25491  15.149   9.936   2.617  0.1236 -0.2503  0.0912
 9418W        W25492  11.525  12.430   5.223  0.0960  0.0713  0.5764
 9419W        W25493  10.455   7.329   0.395 -0.0305  0.1038 -0.0456
 9420W        W25494  12.380   9.839   0.996 -0.3491 -0.1506  0.1307
 9421W        W25495   2.376   4.725  12.803 -0.6924  0.0038 -0.0606
 9422W        W25496   4.439  12.991   5.723 -0.4982  0.0136  0.0235
 9423W        W25497   7.974   1.707   2.443  0.1166 -0.2963  0.4288
 9424W        W25498  11.239  17.067  14.083  0.2880  0.3435  0.0245
 9425W        W25499   7.956  11.874  15.459  0.0321 -0.2202  0.1823
 9426W        W25500   4.423   2.096  14.675 -0.0926  0.1236 -0.3134
 9427W        W25501  15.022   3.974  12.518 -0.2422 -0.2675  0.1112
 9428W        W25502   0.727   0.950   4.119 -0.0554 -0.2783  0.1745
 9429W        W25503  15.482  15.334  13.969  0.0748 -0.0843  0.0102
 9430W        W25504  13.535   2.431  16.124  0.1061  0.0320 -0.1869
 9431W        W25505  16.006  13.772   0.609 -0.1570 -0.1778 -0.0441
 9432W        W25506   1.474  16.378   0.576  0.2295 -0.1675  0.0267
 9433W        W25507  13.635   9.594   0.959 -0.2626 -0.1315 -0.1493
 9434W        W25508  14.404   4.583  16.054  0.1316  0.0405 -0.2401
 9435W        W25509  11.968  17.041   3.455 -0.2231 -0.1667  0.1061
 9436W        W25510  11.009   1.612   0.067  0.0425 -0.4518  0.0501
 9437W        W25511  14.409   4.872  15.552 -0.1787  0.0922 -0.2317
 9438W        W25512  17.261  14.621  16.308  0.1559 -0.2194 -0.2050
 9439W        W25513  12.478  11.347  12.483  0.0381 -0.1609 -0.0157
 9440W        W25514   0.801   4.736   2.614 -0.2687  0.1243 -0.1260
 9441W        W25515   7.434  15.558   0.767  0.3237  0.0327 -0.0701
 9442W        W25516   4.553   6.457  12.569 -0.1871  0.1234  0.0368
 9443W        W25517  17.410   0.988  12.877 -0.0802 -0.0507 -0.2712
 9444W        W25518  15.582  12.594  13.057 -0.2877 -0.1651  0.0691
 9445W        W25519   0.816  10.695   2.783  0.0506 -0.2090 -0.0448
 9446W        W25520  15.306   4.845  16.589  0.1255 -0.0089  0.2381
 9447W        W25521   3.443  17.622  15.225  0.0531 -0.0410 -0.2550
 9448W        W25522   5.016   6.434  13.627 -0.2359  0.1235  0.2163
 9449W        W25523   3.568   3.530   1.047 -0.3326  0.0800  0.0432
 9450W        W25524  12.121   9.468  16.372 -0.1102 -0.0933  0.0044
 9451W        W25525  13.699  12.498   2.185  0.0134  0.1748 -0.0540
 9452W        W25526   2.045   5.323   2.552  0.1026 -0.2624  0.1856
 9453W        W25527   4.092  11.381  15.855  0.2189  0.1457 -0.0369
 9454W        W25528   0.822  14.538   0.644  0.3511 -0.1097 -0.0854
 9455W        W25529   2.666   4.958  13.554 -0.0963 -0.0224  0.2144
 9456W        W25530   6.721   0.914   5.000  0.0036  0.1304 -0.2408
 9457W        W25531   6.725  12.317   1.537  0.0272 -0.1439  0.1218
 9458W        W25532   6.355   2.004   5.551 -0.1731  0.1042  0.1238
 9459W        W25533  16.091  14.079  16.388  0.1232  0.0966 -0.2144
 9460W        W25534  13.881   3.882   1.973  0.2579 -0.2262 -0.1528
 9461W        W25535  12.245   2.155  15.145 -0.2687  0.2809  0.2722
 9462W        W25536  12.018   1.511   1.932 -0.0298 -0.2066  0.1690
 9463W        W25537   0.182   1.673   0.095 -0.1525 -0.1365 -0.0750
 9464W        W25538  16.482  12.877   0.623  0.3057  0.0070  0.3326
 9465W        W25539  12.572  11.947  15.040 -0.1863 -0.0111  0.3054
 9466W        W25540  12.577  15.851   2.700 -0.1945 -0.0573  0.3176
 9467W        W25541   0.885  12.411  12.109 -0.2801 -0.0351 -0.1322
 9468W        W25542  16.328  15.738  11.852  0.2816 -0.1698  0.3775
 9469W        W25543   2.014   7.119  14.726 -0.2421  0.1921  0.0336
 9470W        W25544  14.256  11.675  15.511  0.0728  0.0274 -0.0243
 9471W        W25545   5.688   6.131   5.652 -0.0289 -0.2560  0.0390
 9472W        W25546   7.491  17.231   4.033 -0.0934 -0.1551  0.3844
 9473W        W25547   5.144  16.463   2.898 -0.0718  0.0549  0.1955
 9474W        W25548   0.471   4.833   3.897 -0.1849  0.0074  0.2837
 9475W        W25549   7.742   8.955   4.740  0.1270 -0.0620 -0.0714
 9476W        W25550   5.982   2.427   3.314 -0.1283 -0.1061  0.1172
 9477W        W25551   7.497   5.271   4.576  0.3035 -0.1850 -0.3017
 9478W        W25552   3.342   9.338  15.782  0.0590  0.1348  0.0936
 9479W        W25553   6.527  11.959   3.056  0.1580  0.0329 -0.1701
 9480W        W25554  12.584   3.350  14.584  0.1925 -0.0005 -0.0551
 9481W        W25555   3.486   8.004  15.407  0.0993 -0.1577 -0.0040
 9482W        W25556   9.763  11.959  10.927 -0.1208 -0.4413  0.2059
 9483W        W25557   3.320  14.876  12.825 -0.2061  0.2837  0.0726
 9484W        W25558   5.758  11.147   3.909  0.0322  0.0998 -0.1439
 9485W        W25559   5.613  13.230   0.666  0.0987 -0.0191 -0.0964
 9486W        W25560   3.961   0.630   2.924  0.3128 -0.1361 -0.0302
 9487W        W25561  17.169  10.911   4.437  0.4205 -0.0616 -0.1545
 9488W        W25562   0.691  10.165   5.200 -0.2185 -0.1572  0.0333
 9489W        W25563  11.312   3.743  15.728 -0.1779  0.0200 -0.2603
 9490W        W25564   4.010  12.417   0.553  0.1762  0.2646  0.1858
 9491W        W25565  17.611  14.063  16.935  0.1974 -0.2996  0.0859
 9492W        W25566  11.179   3.070  14.536  0.1385 -0.2194 -0.2205
 9493W        W25567  16.099   7.932  13.769  0.3356 -0.1213 -0.0136
 9494W        W25568   5.214  15.230   3.089 -0.1043 -0.1795  0.5884
 9495W        W25569   2.741  13.345  16.021 -0.3127  0.0403  0.2941
 9496W        W25570   7.098  17.377   4.366 -0.1009 -0.3098 -0.1793
 9497W        W25571   9.507  14.957  15.057  0.3981 -0.1380 -0.1338
 9498W        W25572   5.081   9.146  12.729 -0.2136 -0.0150 -0.2072
 9499W        W25573   9.874   5.645   3.387  0.1744  0.0024 -0.1034
 9500W        W25574  14.770   2.948   2.926 -0.0193 -0.1912 -0.2910
 9501W        W25575  11.649   7.051  15.348  0.1681  0.1996  0.2601
 9502W        W25576   8.033   0.951  15.574 -0.1551 -0.2242  0.2157
 9503W        W25577  13.378   0.184  13.925 -0.1984 -0.1559 -0.1886
 9504W        W25578  16.443  10.855  16.752  0.1080 -0.2306 -0.2988
 9505W        W25579  14.846   1.747   1.599 -0.0499 -0.0157  0.0340
 9506W        W25580  17.136   4.262   0.550 -0.2542  0.1753  0.0816
 9507W        W25581  17.631   5.791  15.593  0.1388 -0.1293 -0.3938
 9508W        W25582   2.605   8.926   3.946 -0.0070  0.0439 -0.1403
 9509W        W25583  11.381   1.217  12.808  0.6958  0.1075  0.0649
 9510W        W25584  17.433   3.636  11.116  0.1379  0.1540  0.1366
 9511W        W25585   2.271  13.524   6.106  0.0104  0.4680  0.1218
 9512W        W25586  11.290  17.175   1.885  0.0503  0.2856  0.0686
 9513W        W25587  12.908   1.312   0.503  0.1257 -0.1319 -0.1108
 9514W        W25588   0.861   2.493   2.782 -0.2488 -0.1066  0.1126
 9515W        W25589   0.313   6.431  15.230  0.1953 -0.0659  0.0607
 9516W        W25590   5.293   6.311   5.429 -0.0527  0.0023  0.0699
 9517W        W25591  16.069   2.158  15.276  0.0806  0.1607  0.0312
 9518W        W25592   0.904  17.348  13.854  0.1053  0.3430  0.1890
 9519W        W25593  11.395   5.780  11.562 -0.1414  0.0798 -0.0020
 9520W        W25594  17.538  14.373  15.340  0.1905  0.0640  0.0791
 9521W        W25595   0.975   4.558  11.804  0.2032 -0.2783 -0.0541
 9522W        W25596   4.116   2.504  12.723 -0.1322 -0.0369 -0.0957
 9523W        W25597   7.434  14.524   1.832 -0.3167  0.3695  0.0375
 9524W        W25598  12.997  15.387   0.898 -0.3643 -0.0458 -0.1699
 9525W        W25599  11.864   4.243   3.231 -0.0429 -0.0548 -0.1397
 9526W        W25600   0.863   5.579  14.784  0.2635  0.2186 -0.2488
 9527W        W25601   3.090  17.232   5.362 -0.0915 -0.1688  0.0089
 9528W        W25602  14.813   8.685  12.813  0.1303  0.1543 -0.2468
 9529W        W25603   2.987   2.448   3.293  0.1870  0.0484 -0.1553
 9530W        W25604  12.687   7.011   1.785  0.1272  0.0273 -0.4619
 9531W        W25605  15.603  11.895   0.357  0.0011 -0.0573 -0.1734
 9532W        W25606   6.323  14.232   3.339  0.0968  0.1603  0.0298
 9533W        W25607   9.465   7.734   2.747 -0.1924 -0.1728  0.1068
 9534W        W25608  13.765  10.221  14.173 -0.1759  0.0524 -0.1198
 9535W        W25609   6.381  11.115  13.400  0.1191 -0.0765 -0.0141
 9536W        W25610   8.201   6.304   1.800 -0.0834 -0.2253 -0.0671
 9537W        W25611  17.459   7.172  13.611  0.3008 -0.1376  0.1510
 9538W        W25612   4.925   1.266   4.308  0.0926  0.3611  0.0571
 9539W        W25613   5.510   3.566  13.351  0.0196  0.0258  0.2936
 9540W        W25614   2.126   7.492   2.111  0.0726 -0.2421  0.1550
 9541W        W25615  17.170   1.324  16.054 -0.3179 -0.0121  0.0537
 9542W        W25616   6.578   2.972   3.706 -0.3787 -0.0258 -0.0378
 9543W        W25617   7.066  15.519   4.029 -0.1031 -0.2195 -0.1977
 9544W        W25618  16.035  17.416   0.094  0.1758 -0.0095 -0.1145
 9545W        W25619   6.328   9.173   2.192  0.0986 -0.0322  0.2693
 9546W        W25620  13.707   9.393  14.005 -0.1409  0.3851 -0.0575
 9547W        W25621   5.930   8.775   6.091 -0.3491  0.4177  0.0824
 9548W        W25622   3.763  10.237   3.740  0.2400  0.1054  0.0510
 9549W        W25623   5.457  13.139  13.247 -0.1027 -0.1836  0.0727
 9550W        W25624  10.889   8.171  10.538  0.1343 -0.0467  0.0389
 9551W        W25625  13.792   5.418  13.216  0.0158 -0.2255  0.2166
 9552W        W25626  15.369   7.320  14.965 -0.2228 -0.0099  0.2069
 9553W        W25627   3.227   8.401   3.541  0.0147  0.2003  0.1335
 9554W        W25628   3.699   6.416   0.949  0.1643 -0.1666 -0.0594
 9555W        W25629  10.789   5.312   0.275  0.0531  0.1646 -0.1805
 9556W        W25630   7.348   1.486  15.376 -0.1705 -0.1145 -0.1681
 9557W        W25631  11.117   6.176  16.686 -0.1182  0.0685  0.0735
 9558W        W25632   3.039  14.341   2.403  0.2270  0.0084  0.0312
 9559W        W25633  12.324   3.638   4.285 -0.2423 -0.2283 -0.5291
 9560W        W25634  17.837  11.843  12.683  0.1604 -0.2408  0.0133
 9561W        W25635  14.192  16.170  12.960  0.0964 -0.1386 -0.0152
 9562W        W25636   2.524  17.397   3.410 -0.2710  0.0122  0.1814
 9563W        W25637   4.110  10.972   5.321 -0.0208  0.0836  0.1093
 9564W        W25638  12.614   8.143  11.352  0.0966 -0.0785 -0.1581
 9565W        W25639  14.629   3.364   1.004  0.4175  0.0866  0.0082
 9566W        W25640  15.498   8.783  16.256  0.3526  0.2132  0.0344
 9567W        W25641   5.058   2.779   6.004  0.0996 -0.1162 -0.3012
 9568W        W25642   4.856  15.944   5.244 -0.0283 -0.1004 -0.2333
 9569W        W25643   9.349   2.380  16.946 -0.0573  0.2317  0.1159
 9570W        W25644   5.993   4.958   5.246 -0.0861 -0.0791  0.0494
 9571W        W25645   4.576   3.983   2.340 -0.3348  0.0360  0.0557
 9572W        W25646  13.320   7.063   6.588  0.2075  0.1238  0.2224
 9573W        W25647   8.191  12.091  13.212  0.1194  0.2269  0.2146
 9574W        W25648  14.677   5.467   5.708  0.3926  0.3968  0.0067
 9575W        W25649   9.665  15.137  12.049  0.1122 -0.0795 -0.1399
 9576W        W25650   1.509   4.760  13.952  0.1592  0.0608  0.2735
 9577W        W25651  12.561  11.008   4.463 -0.0339 -0.1463 -0.1931
 9578W        W25652  10.049   6.426   1.583 -0.2168 -0.0343 -0.2628
 9579W        W25653   3.631   1.251   3.638 -0.0263  0.4278  0.3184
 9580W        W25654  14.678   7.305   1.286 -0.1325  0.1388  0.3351
 9581W        W25655   5.535  17.355  16.647 -0.1704 -0.3189 -0.0877
 9582W        W25656  15.369   8.626   5.687  0.0082 -0.3231 -0.0810
 9583W        W25657  17.537   7.442   5.897 -0.1585  0.0729  0.1721
 9584W        W25658  14.637   1.276   1.728  0.1137  0.0338 -0.4263
 9585W        W25659   6.280   8.793  11.670  0.0388 -0.0052  0.1138
 9586W        W25660   3.013  14.445   1.522  0.1851  0.2724 -0.3351
 9587W        W25661  10.046   1.282  16.773 -0.1759  0.1705 -0.0286
 9588W        W25662  10.922  17.752   2.341 -0.3120 -0.2432  0.0605
 9589W        W25663  17.598   8.105   4.196  0.0469  0.1553 -0.2519
 9590W        W25664  17.346   3.037  12.636 -0.0328  0.1476 -0.1407
 9591W        W25665   5.641   6.770   3.525  0.0845 -0.1971  0.1256
 9592W        W25666  16.209   9.480   0.338 -0.0281  0.2480  0.5530
 9593W        W25667   2.855  15.950   0.103 -0.3521  0.0701 -0.2594
 9594W        W25668   0.237   2.655   5.734 -0.0508  0.3898  0.2105
 9595W        W25669   7.577  17.133   5.140 -0.1671  0.0363 -0.1505
 9596W        W25670   5.987   3.926   3.342  0.0033  0.0055  0.0301
 9597W        W25671   1.016   6.868  16.189 -0.0791 -0.0285 -0.0008
 9598W        W25672  14.354   4.480  12.013 -0.1491 -0.1736 -0.0350
 9599W        W25673   4.304   8.736   0.281 -0.1421  0.1899 -0.0293
 9600W        W25674   8.998   7.358   4.819 -0.1812  0.4367 -0.1141
 9601W        W25675  14.538  13.079   4.065  0.2190  0.3309  0.1778
 9602W        W25676  11.065  10.514   2.927  0.1671  0.0057  0.1547
 9603W        W25677  13.811   6.059  16.578 -0.2192 -0.0496  0.2813
 9604W        W25678  13.043  13.213   5.473 -0.4432  0.3246  0.2275
 9605W        W25679   8.069  10.626  12.579  0.0500  0.1188 -0.0230
 9606W        W25680  14.019  12.984   4.028  0.1359 -0.1037 -0.1106
 9607W        W25681   8.795   1.243   4.245 -0.1083 -0.2209  0.0460
 9608W        W25682   0.684   7.529  13.023  0.0270  0.1672 -0.2315
 9609W        W25683  16.883   8.656   4.526  0.0904 -0.2502 -0.3808
 9610W        W25684   1.960   1.436  14.124 -0.0571  0.1433  0.0714
 9611W        W25685  11.224   3.513  13.808 -0.3091 -0.0123  0.3082
 9612W        W25686  16.394   3.874  15.084  0.3880 -0.3236  0.1689
 9613W        W25687   0.805   4.138  15.432 -0.2814  0.1586 -0.0019
 9614W        W25688  17.233  10.047   4.811  0.0348  0.3115 -0.2976
 9615W        W25689  15.115  12.737   6.059  0.3517  0.0103 -0.0368
 9616W        W25690  10.380  17.218  11.991 -0.1112  0.0515  0.1249
 9617W        W25691   3.565   4.136  15.017  0.0403  0.1993 -0.0534
 9618W        W25692  13.046   3.039   0.441  0.2594  0.0389  0.1762
 9619W        W25693   8.840  12.422  15.479 -0.3199 -0.1141  0.0184
 9620W        W25694   1.402  12.818  15.653  0.0988  0.0863  0.4334
 9621W        W25695  14.595  10.072   0.132 -0.2292 -0.2430 -0.1333
 9622W        W25696  14.679  12.690   1.811 -0.0630 -0.3188  0.1982
 9623W        W25697   0.443   4.965   2.880  0.1162 -0.0424 -0.0398
 9624W        W25698   0.482  10.319   2.093 -0.1046  0.0327 -0.0714
 9625W        W25699   8.193   5.040   0.707 -0.3475  0.0521 -0.1443
 9626W        W25700   8.671  11.579  11.987 -0.1139 -0.1662 -0.0193
 9627W        W25701  12.089   8.044  14.718  0.0198  0.2477  0.1165
 9628W        W25702   8.397  16.155   2.807  0.1393  0.0574  0.1760
 9629W        W25703   9.187   6.573   1.326  0.0476  0.0851  0.4698
 9630W        W25704  11.028   2.610  15.118  0.0929 -0.1765  0.1958
 9631W        W25705  15.578   3.847   2.463  0.1557 -0.1275  0.0762
 9632W        W25706  11.949   2.984   1.373  0.1596 -0.1304  0.5052
 9633W        W25707  17.689  13.251  15.649  0.4535  0.1694 -0.1826
 9634W        W25708   0.781   2.373   5.062  0.0633 -0.3032  0.1171
 9635W        W25709   7.679  10.000   0.510 -0.1322  0.0233  0.2932
 9636W        W25710  15.332   7.754  15.237  0.1075  0.4815  0.1219
 9637W        W25711   4.530  10.910   0.952 -0.3257  0.1918 -0.0991
 9638W        W25712  13.015   6.300   0.009 -0.0353 -0.0680  0.1758
 9639W        W25713   2.713   1.045   3.816 -0.0912  0.3635 -0.1273
 9640W        W25714   8.771   7.497   1.927 -0.1478  0.2526  0.0324
 9641W        W25715  10.481  16.473  16.522 -0.0812  0.1599  0.1641
 9642W        W25716   1.558   3.786  15.829  0.0950 -0.0844  0.0910
 9643W        W25717   0.259  15.914   3.928 -0.0039 -0.0917 -0.0766
 9644W        W25718  11.602   2.689  16.490  0.1211  0.1203  0.0898
 9645W        W25719   8.613   2.994  13.373  0.2713  0.0695 -0.0518
 9646W        W25720   2.809   1.237   2.683  0.2758  0.0528  0.0800
 9647W        W25721   0.711   5.584  15.423  0.2039  0.1055  0.0045
 9648W        W25722   4.377   7.750   3.869 -0.1050  0.0123 -0.1626
 9649W        W25723  15.567  16.623  14.441  0.1338 -0.1112 -0.1899
 9650W        W25724   4.711   8.835   2.746  0.0649  0.0047  0.1465
 9651W        W25725  11.098   5.441   3.791 -0.3367  0.1258 -0.0692
 9652W        W25726   5.062  10.075  16.740  0.1643  0.0978 -0.0633
 9653W        W25727   1.928   5.948  16.054  0.3268  0.0702 -0.1244
 9654W        W25728   2.121   4.271   1.197  0.2290 -0.3560 -0.2471
 9655W        W25729   6.139  17.606   5.470  0.1509  0.0047 -0.1398
 9656W        W25730   8.149   1.155  12.568  0.1357 -0.3071 -0.4283
 9657W        W25731  10.392  13.394   0.255  0.3632  0.0520 -0.0075
 9658W        W25732  10.839   0.886   1.556 -0.3211 -0.3038  0.2401
 9659W        W25733  15.790   0.853  12.612  0.1264  0.0716 -0.2016
 9660W        W25734  16.032   5.686   5.100  0.0237 -0.0181  0.2370
 9661W        W25735   1.354   6.046   1.725  0.2212 -0.2289  0.0621
 9662W        W25736   9.769  10.187   2.284 -0.0636 -0.3443 -0.0760
 9663W        W25737  14.702   2.655  13.519 -0.4694  0.2067 -0.2533
 9664W        W25738  15.704   7.533  16.094  0.1879  0.2969  0.1589
 9665W        W25739   5.595  12.207  15.970  0.0439  0.2296  0.0420
 9666W        W25740   5.883   1.374  13.743  0.1036 -0.0693 -0.1354
 9667W        W25741  10.836   2.203   4.826  0.3710 -0.1771 -0.0544
 9668W        W25742  12.003   2.250   3.880  0.2730 -0.1952  0.0916
 9669W        W25743  16.239  13.741   6.627  0.0391 -0.2108  0.2389
 9670W        W25744  11.676   9.160  15.194 -0.1616 -0.0175  0.1352
 9671W        W25745   6.432  11.422   5.777  0.0310 -0.5739 -0.0464
 9672W        W25746  16.117  13.771  13.262  0.1813 -0.1999 -0.0821
 9673W        W25747  15.020  10.252  13.482  0.0588 -0.1257  0.2904
 9674W        W25748  11.286  13.766  15.369 -0.0034  0.0515 -0.2484
 9675W        W25749   0.279   4.023  15.876 -0.1246 -0.0321  0.0100
 9676W        W25750   3.354   8.783  16.822 -0.0921  0.3447  0.0875
 9677W        W25751   4.503  16.459   1.677 -0.0055  0.1779  0.1069
 9678W        W25752  15.179   5.340   2.698 -0.2103  0.0528 -0.3772
 9679W        W25753  11.225   8.206   2.963  0.1634  0.1455  0.0362
 9680W        W25754   8.633  10.790   2.690 -0.1694  0.0866 -0.1416
 9681W        W25755   6.310  10.874  14.529 -0.0566  0.1119  0.1834
 9682W        W25756   6.047   4.144   3.790 -0.0656 -0.0939  0.3060
 9683W        W25757   2.224  17.164   3.032 -0.0843 -0.1293 -0.0263
 9684W        W25758  11.120  16.049   4.716 -0.0329  0.0011 -0.0231
 9685W        W25759  17.018  15.119  14.916  0.2219 -0.1594 -0.2324
 9686W        W25760   1.442  13.313  11.737 -0.1946  0.2611 -0.1170
 9687W        W25761   5.177   5.835  13.792 -0.0568  0.2671  0.1610
 9688W        W25762   0.456   8.583   1.898  0.0045 -0.1147 -0.0504
 9689W        W25763   1.514   2.122   5.799  0.0842 -0.0694 -0.0989
 9690W        W25764   6.992   4.792  11.546  0.0286 -0.1984  0.1021
 9691W        W25765   2.915  14.010   1.122  0.0084  0.1924  0.0000
 9692W        W25766   5.354   4.393   1.339 -0.0444 -0.1424 -0.0801
 9693W        W25767  15.072   2.299  13.627  0.0087 -0.1622 -0.0474
 9694W        W25768  14.011   7.769  16.404 -0.1048 -0.0535  0.1528
 9695W        W25769  13.559   4.046   4.835 -0.2780  0.2767 -0.0989
 9696W        W25770  13.708   9.307  14.531 -0.2959  0.1365 -0.0327
 9697W        W25771   1.359   5.485  13.424 -0.4020  0.2126 -0.0992
 9698W        W25772  17.347  13.109  14.651  0.0108  0.0099 -0.0749
 9699W        W25773  15.967  12.289   3.706  0.0671 -0.0993 -0.0501
 9700W        W25774   8.931  12.091   1.889  0.1990 -0.2327 -0.1354
 9701W        W25775   7.863   2.379  16.175  0.0239 -0.2018 -0.2552
 9702W        W25776   9.338   2.685   0.397  0.1856  0.0029  0.1661
 9703W        W25777   5.940   4.219  14.099 -0.1221  0.1561 -0.1060
 9704W        W25778  10.912  10.653  12.541  0.0478  0.3542 -0.1036
 9705W        W25779   9.430   7.477  12.392  0.1394  0.2117 -0.2613
 9706W        W25780   9.193   1.636   5.555  0.2640  0.0392 -0.0070
 9707W        W25781  10.797   4.152  15.106  0.1295  0.1553 -0.0738
 9708W        W25782   7.241   8.770  16.471 -0.2184  0.0629 -0.1271
 9709W        W25783  12.406  14.719  15.231 -0.4806  0.1099  0.1802
 9710W        W25784   5.026   7.657   5.119 -0.1454 -0.3292  0.0876
 9711W        W25785  15.308   1.434  15.272  0.0973 -0.0248  0.2189
 9712W        W25786   1.613   6.163  14.571 -0.0888 -0.0175  0.1162
 9713W        W25787   4.790  15.898   5.827  0.0350  0.1173  0.0913
 9714W        W25788   8.357  12.322   5.385 -0.2902  0.2031  0.0323
 9715W        W25789   8.909  16.999   5.436 -0.0959  0.0718  0.0320
 9716W        W25790   3.042  15.038  16.794 -0.0615  0.0767  0.1811
 9717W        W25791  12.313   7.476  13.623  0.1941 -0.0786 -0.2852
 9718W        W25792  14.134   7.635   4.501  0.0422  0.1921  0.0555
 9719W        W25793   4.248  12.692  16.968  0.2818 -0.3955  0.0361
 9720W        W25794  15.797   6.101   1.916  0.2214  0.1618  0.1968
 9721W        W25795   7.014   3.957  13.151 -0.1338  0.2047  0.0002
 9722W        W25796   8.140   3.427   0.715  0.0235  0.0598 -0.2301
 9723W        W25797  16.432  13.366  13.223  0.0347 -0.1786 -0.0065
 9724W        W25798   2.692   1.131   6.218 -0.1122  0.2792 -0.0223
 9725W        W25799  13.808   1.245   0.530 -0.0388  0.1994  0.0923
 9726W        W25800   2.323   9.938   0.282  0.1250  0.1041 -0.0194
 9727W        W25801  15.757   6.110   3.705  0.0660  0.2190  0.0246
 9728W        W25802   0.411  17.340   1.208 -0.0810 -0.1552 -0.2105
 9729W        W25803   7.835  16.636  14.334 -0.3726  0.0807 -0.2066
 9730W        W25804   0.242  10.226  12.652 -0.0080  0.1217 -0.0031
 9731W        W25805  14.956   1.734   5.474  0.0552  0.0980  0.3170
 9732W        W25806  12.851   1.025   0.948  0.2027  0.1241  0.0266
 9733W        W25807  11.003   1.227   3.710 -0.1128  0.3041  0.0532
 9734W        W25808  13.788   5.462   2.824  0.4736  0.1304  0.0184
 9735W        W25809   4.890  14.630  11.666 -0.0723 -0.0119 -0.1132
 9736W        W25810  14.873  10.892  16.167  0.0910  0.1355  0.2228
 9737W        W25811   7.633   0.997  13.455 -0.2054 -0.0696 -0.1495
 9738W        W25812  16.461   3.846   1.005  0.0070  0.0823 -0.3426
 9739W        W25813   1.329  12.514   5.314  0.2793 -0.0626  0.0395
 9740W        W25814   3.043  13.056  13.850 -0.4779  0.3191  0.0148
 9741W        W25815  10.994   9.680   4.227 -0.0628 -0.0848  0.0384
 9742W        W25816  11.795   2.814  13.898 -0.0858  0.1242 -0.1319
 9743W        W25817  15.830   2.810  12.716 -0.0729 -0.0978 -0.0774
 9744W        W25818  17.163  10.222   5.319  0.0277 -0.2102  0.3904
 9745W        W25819   1.559   2.183   5.216  0.0955 -0.0032  0.0181
 9746W        W25820  11.718   0.968  14.619  0.3553 -0.2466 -0.2445
 9747W        W25821   1.483  13.179  15.305 -0.0158  0.2090 -0.1242
 9748W        W25822  14.394   9.724   3.284 -0.1901 -0.2210  0.1948
 9749W        W25823   3.065   6.287   5.358  0.0496  0.0888 -0.1567
 9750W        W25824  11.779  14.311   4.516 -0.1091  0.5196 -0.0439
 9751W        W25825  15.282  15.099   1.724 -0.4011  0.0870  0.0795
 9752W        W25826  10.140  15.957   0.341 -0.2198  0.1533  0.0361
 9753W        W25827  13.955   1.055  16.507  0.1804 -0.1985  0.0535
 9754W        W25828   3.410   5.910   6.188  0.3033  0.0816  0.1321
 9755W        W25829  16.765  13.816   2.368  0.0721 -0.3319 -0.1328
 9756W        W25830   9.618  13.749  16.811  0.0582  0.0997  0.0555
 9757W        W25831   8.340  12.490  14.644 -0.0688 -0.0776 -0.2285
 9758W        W25832   6.171   5.924   3.664 -0.0723  0.3253 -0.1113
 9759W        W25833   9.396  12.708   0.979  0.0601 -0.0239 -0.1616
 9760W        W25834  10.442  17.453  14.360  0.1377 -0.1444  0.1323
 9761W        W25835  10.414   4.778  12.916 -0.1387  0.0415 -0.3534
 9762W        W25836   5.155  10.890  15.000  0.1327 -0.5125 -0.3185
 9763W        W25837  17.138  10.679  14.066 -0.0633  0.3457 -0.1365
 9764W        W25838   6.108   9.184   1.166 -0.2610 -0.2596 -0.2117
 9765W        W25839   1.420   3.341   2.232 -0.0585 -0.1101 -0.0989
 9766W        W25840  10.914  17.456  11.921 -0.0220  0.1887 -0.1006
 9767W        W25841  15.618  13.887   6.122  0.0160  0.0319  0.1092
 9768W        W25842   8.957   7.981  13.781 -0.2186  0.1143 -0.1862
 9769W        W25843   9.031   2.684  13.351  0.1981  0.4546 -0.2161
 9770W        W25844   2.629   3.866  13.933  0.1670  0.1354 -0.3578
 9771W        W25845   5.783  10.179  13.187  0.2074 -0.2218 -0.0434
 9772W        W25846  12.856   4.151   3.661 -0.3511  0.1644 -0.0725
 9773W        W25847   4.523  14.758  13.367  0.2966 -0.0319 -0.0834
 9774W        W25848   4.998   6.207  12.773 -0.1850  0.1825  0.1107
 9775W        W25849  14.710  11.699   0.402 -0.0982  0.2455  0.0249
 9776W        W25850   5.527   0.111   0.746 -0.3843 -0.0378  0.0316
 9777W        W25851  16.600  12.922   6.006  0.2999  0.0279  0.1794
 9778W        W25852   7.862  10.721  14.689  0.0975  0.0231  0.0773
 9779W        W25853   0.058  13.003   4.810 -0.1751 -0.0348 -0.0168
 9780W        W25854  14.114  15.262   3.401 -0.3574 -0.2676 -0.2860
 9781W        W25855   7.258  11.856  13.752  0.1556  0.0683  0.0536
 9782W        W25856   0.274   5.389  15.424 -0.1888 -0.0064  0.0624
 9783W        W25857  12.643  11.357  14.695  0.1866 -0.2160 -0.0355
 9784W        W25858   6.243  13.113  13.704  0.0859 -0.0735  0.0288
 9785W        W25859   9.341   6.543   0.796  0.0213 -0.1576  0.1505
 9786W        W25860  11.456   0.462   1.053  0.1157 -0.0834 -0.1566
 9787W        W25861  17.052  15.076  16.371  0.0055 -0.0079  0.1401
 9788W        W25862   9.841  14.833  15.412  0.0913  0.1853  0.4143
 9789W        W25863   8.668  17.484  12.581  0.1400  0.2422 -0.0826
 9790W        W25864   4.719  10.983  14.688  0.1738 -0.2746 -0.1050
 9791W        W25865  14.671   5.805  12.102 -0.0283 -0.0803 -0.0001
 9792W        W25866   6.992   4.484   0.140  0.2324 -0.1584  0.2997
 9793W        W25867   6.549   4.600  15.144 -0.0600 -0.2238  0.3618
 9794W        W25868  12.891  11.275  11.918 -0.0483 -0.1786  0.3421
 9795W        W25869  11.733   7.924   0.308 -0.2598 -0.2095  0.0053
 9796W        W25870   2.518   6.595   5.965  0.3472  0.0762  0.1430
 9797W        W25871  13.428  12.554  15.852 -0.2444  0.1885 -0.3009
 9798W        W25872   3.652  15.460  16.065 -0.1770 -0.1322  0.0526
 9799W        W25873  17.728   4.059   0.297  0.0045  0.0603  0.0209
 9800W        W25874   6.740   1.630   3.433 -0.1225  0.1635  0.1165
 9801W        W25875   9.719   3.723   0.996  0.2897 -0.0419  0.0046
 9802W        W25876  14.108  12.953  13.391  0.1420  0.0692  0.2780
 9803W        W25877   9.807   7.712   6.460 -0.3388  0.0438 -0.1053
 9804W        W25878   4.266  13.757  13.305  0.0198 -0.2218 -0.0952
 9805W        W25879   1.608   1.780  14.130  0.3812  0.1501  0.0742
 9806W        W25880   3.905  13.023   3.886  0.2951  0.1681  0.0287
 9807W        W25881   4.224  17.330  13.975  0.2129 -0.1719  0.4907
 9808W        W25882  10.501   7.058   2.090  0.1919  0.0094  0.1338
 9809W        W25883   3.508  12.189   0.716  0.1279 -0.1220  0.1497
 9810W        W25884  14.311   4.066  16.161  0.2128  0.0238  0.0308
 9811W        W25885   1.797   3.615   1.943 -0.3879  0.0443 -0.0735
 9812W        W25886   7.036   0.150  12.116 -0.3780  0.0484 -0.1492
 9813W        W25887   5.110   8.094  12.870  0.0079  0.1341  0.0429
 9814W        W25888   7.232  16.464   4.078 -0.0771  0.1100  0.0175
 9815W        W25889  14.449   1.257   3.044 -0.0572 -0.3210 -0.0744
 9816W        W25890   3.945   8.590  11.791  0.0029  0.1146 -0.3397
 9817W        W25891  14.777   5.169   2.288 -0.1594  0.1082  0.0387
 9818W        W25892   4.799   8.837  14.804 -0.0434 -0.1763  0.0716
 9819W        W25893   4.069   6.392   4.364 -0.2766 -0.1522  0.0177
 9820W        W25894   5.133   3.516   1.243  0.1206 -0.2022  0.0955
 9821W        W25895   8.516  17.393   5.376  0.0787 -0.1157 -0.1243
 9822W        W25896   0.980   5.622  11.480 -0.2457 -0.0169 -0.1751
 9823W        W25897   2.851   1.397  14.351  0.1984  0.2140  0.0296
 9824W        W25898  17.474   4.188  11.746  0.1302 -0.2698  0.0145
 9825W        W25899   6.037  12.209   1.001  0.0004  0.2242  0.3850
 9826W        W25900  14.621   5.788   1.518  0.0038 -0.1409 -0.2069
 9827W        W25901  13.794  15.338  13.343 -0.0790  0.0828 -0.1945
 9828W        W25902   7.411  13.603   0.681 -0.1344 -0.2715 -0.1115
 9829W        W25903   6.252  15.270  13.499  0.2671  0.2727  0.0643
 9830W        W25904  14.185   3.574   5.374 -0.0980  0.0015  0.0923
 9831W        W25905   5.561   0.231   1.260  0.0028  0.0732 -0.4109
 9832W        W25906   6.249   4.205   2.950 -0.2269 -0.0586 -0.2268
 9833W        W25907   2.322  11.835  15.175  0.2428  0.1428  0.3609
 9834W        W25908  15.816   6.107  14.222  0.1310 -0.1467 -0.0219
 9835W        W25909   6.253   6.832  14.005 -0.1390 -0.0738  0.1556
 9836W        W25910   5.204   4.506  15.331  0.1722  0.0201  0.2720
 9837W        W25911   0.174   8.818  12.970  0.2988 -0.2282  0.3083
 9838W        W25912   8.403   6.673   6.161 -0.1572 -0.2077  0.0450
 9839W        W25913  13.260  17.696   5.015 -0.0069 -0.0598 -0.1273
 9840W        W25914  14.377  16.802   5.120 -0.1721  0.0494  0.0374
 9841W        W25915   5.952  11.516   4.302 -0.1090  0.0224  0.4458
 9842W        W25916   9.175  10.397   0.047 -0.1482 -0.1551 -0.0208
 9843W        W25917  12.968  11.705   2.857 -0.1950  0.1502  0.0556
 9844W        W25918   6.884   8.848   4.564  0.1490  0.2327  0.2887
 9845W        W25919   7.345   5.617   4.862  0.1171  0.0501 -0.1550
 9846W        W25920   1.737   1.905  12.306 -0.1051  0.1654 -0.0738
 9847W        W25921   8.544   3.721  14.424  0.0164  0.3649 -0.1147
 9848W        W25922  15.741  12.577   2.231 -0.0778 -0.1794  0.1607
 9849W        W25923  15.606  13.986   0.544 -0.0811 -0.0452 -0.1629
 9850W        W25924  14.942   0.661  14.750  0.0041  0.0300  0.4706
 9851W        W25925   7.512   9.987   3.717  0.0831  0.0286 -0.2898
 9852W        W25926   9.068  15.842  12.497 -0.0569 -0.0370  0.0691
 9853W        W25927  10.082  10.003   4.097 -0.1392  0.1056  0.3534
 9854W        W25928   6.306   9.844   4.351 -0.2825 -0.0760  0.1281
 9855W        W25929   3.800   6.659   0.172  0.0637  0.0159  0.0896
 9856W        W25930  11.800   4.076   4.197  0.2202  0.0150 -0.2856
 9857W        W25931   4.647   2.238  11.656 -0.1181 -0.2476 -0.0477
 9858W        W25932  12.415   6.314   0.973  0.1070  0.1089 -0.0110
 9859W        W25933  17.650   9.005   1.520 -0.3020  0.0745  0.0956
 9860W        W25934  10.276  16.482   1.164  0.0493 -0.1383  0.0315
 9861W        W25935  12.897  12.426  13.332 -0.0805  0.0882 -0.1156
 9862W        W25936   6.410   3.161  12.769 -0.1187 -0.3276 -0.2136
 9863W        W25937   3.975  12.360   2.187 -0.1757 -0.0252  0.0597
 9864W        W25938  13.081  13.590  14.739 -0.1315  0.2491 -0.1024
 9865W        W25939  15.332  15.849  12.057 -0.0756  0.0090 -0.0208
 9866W        W25940   8.823   7.896   3.944 -0.3651 -0.0735  0.3125
 9867W        W25941  13.188  12.779  13.434  0.0796  0.0168 -0.2679
 9868W        W25942  12.223   0.428   4.714  0.5844 -0.0015  0.0364
 9869W        W25943   9.709   4.968  10.612 -0.2516  0.1101  0.0004
 9870W        W25944   1.685   2.087  16.007  0.0766  0.0773 -0.0189
 9871W        W25945   0.732   2.417  16.622 -0.3036 -0.2708 -0.2506
 9872W        W25946  12.953   6.855   0.572 -0.0848 -0.0463  0.0016
 9873W        W25947   7.017   8.261  15.673  0.2490  0.1063  0.0596
 9874W        W25948   4.907  13.666  16.789 -0.2848 -0.1617 -0.2104
 9875W        W25949  17.307  17.254  16.454  0.2158 -0.0957 -0.1014
 9876W        W25950   0.929  10.734  14.333  0.0803  0.0051  0.1568
 9877W        W25951  17.780  16.591   0.701  0.2196 -0.0757  0.2362
 9878W        W25952   8.944  11.244   0.618 -0.2888 -0.2583 -0.2480
 9879W        W25953   2.195  12.448  12.472  0.0669  0.1944 -0.0390
 9880W        W25954  14.803   4.470   4.804 -0.4164 -0.0080  0.0514
 9881W        W25955  10.472  17.715  13.899  0.0622  0.3117 -0.0133
 9882W        W25956  11.933   3.035   5.773  0.1254 -0.4059  0.0468
 9883W        W25957   1.221   0.309  14.162  0.0210  0.0352  0.1194
 9884W        W25958   0.043   6.158   5.827  0.0168 -0.2525  0.3110
 9885W        W25959  11.689   9.130   5.760  0.1375 -0.0270  0.0457
 9886W        W25960   4.525  13.512  12.996  0.3391  0.1473 -0.1329
 9887W        W25961   8.738   8.610  15.894 -0.2711  0.1666 -0.2752
 9888W        W25962  13.514  14.832  12.053  0.0776 -0.0496  0.0333
 9889W        W25963   1.534   9.928  12.387  0.0676 -0.0233 -0.1191
 9890W        W25964   4.446  14.993  12.911  0.1581 -0.2293 -0.0595
 9891W        W25965   8.711   4.973   4.793 -0.3965  0.1473  0.0653
 9892W        W25966   2.491   0.546   3.740  0.1815  0.0580 -0.0378
 9893W        W25967   9.170   7.124  11.559  0.0286 -0.0380 -0.4577
 9894W        W25968   3.027  16.519   4.213 -0.0878 -0.3124  0.0188
 9895W        W25969   0.317   4.445   2.558  0.1738  0.0090  0.1016
 9896W        W25970   9.737  15.466   5.324  0.1855 -0.0801 -0.1051
 9897W        W25971   7.076   4.451  13.340  0.0466  0.2004 -0.0017
 9898W        W25972  15.237   1.500   3.583  0.1199 -0.0718 -0.0567
 9899W        W25973   4.976  16.009  13.095  0.1755 -0.2957 -0.2208
 9900W        W25974  15.869  12.809   3.709  0.2213 -0.2483  0.0110
 9901W        W25975   3.069  12.018   1.610 -0.2129 -0.1823 -0.0256
 9902W        W25976   5.396   9.017   5.227 -0.1701  0.0975  0.1500
 9903W        W25977   5.858  13.608   2.752 -0.2294 -0.0295  0.1486
 9904W        W25978  10.151  13.769   4.067 -0.0370  0.0273  0.3212
 9905W        W25979  14.058  13.944  16.738  0.0685  0.0599 -0.0898
 9906W        W25980  11.117   1.865  13.009  0.1624  0.1791 -0.0319
 9907W        W25981   1.723  14.541  13.739 -0.3771  0.1521 -0.0869
 9908W        W25982   8.371  17.808  16.345  0.1538 -0.2726 -0.1544
 9909W        W25983  17.778  12.250   3.829 -0.0315 -0.0551  0.3112
 9910W        W25984   0.202   4.245  13.420 -0.1652 -0.1010  0.1012
 9911W        W25985   7.286  11.177  12.967 -0.0468 -0.0586 -0.1624
 9912W        W25986   0.851   6.368  12.314  0.1670  0.0089  0.0959
 9913W        W25987   1.321  14.881  15.827 -0.0411  0.3273  0.0930
 9914W        W25988   2.722  15.051   4.298  0.0179 -0.1100 -0.0968
 9915W        W25989  11.458   0.799  14.985  0.1767  0.1584 -0.1156
 9916W        W25990   6.573   8.341   1.336 -0.2380  0.1480 -0.1766
 9917W        W25991   8.598  11.658  13.833 -0.1900  0.2193 -0.0340
 9918W        W25992   7.515   3.695   4.692 -0.2258 -0.0765 -0.0059
 9919W        W25993  13.991   4.173   5.905 -0.0525 -0.0054  0.1198
 9920W        W25994  17.257  13.441  16.433  0.3961  0.0679 -0.1207
 9921W        W25995   7.219  15.714  15.923 -0.2799 -0.1489 -0.0571
 9922W        W25996   1.810  14.034  12.452  0.0433  0.1158  0.1075
 9923W        W25997  17.478   8.604  16.910 -0.1142 -0.0276  0.3297
 9924W        W25998   1.538  14.289   3.193  0.1209 -0.1118 -0.3032
 9925W        W25999   5.278   6.920  15.405 -0.1303  0.1140  0.0629
 9926W        W26000   8.776   2.498  12.230  0.0179 -0.0366  0.1522
 9927W        W26001  14.075   8.400   1.139 -0.0671  0.2806  0.3540
 9928W        W26002   6.561   1.766   2.138 -0.0032 -0.0437  0.0376
 9929W        W26003  12.791   6.191   4.692 -0.0665 -0.0661 -0.2715
 9930W        W26004  16.484   4.078   4.029 -0.2098 -0.1216  0.1236
 9931W        W26005  10.712   0.687  13.156 -0.0355  0.0801  0.1130
 9932W        W26006   8.052  15.282  16.330 -0.1251  0.1684 -0.0948
 9933W        W26007  16.041   5.761   3.475  0.1130  0.1389 -0.1527
 9934W        W26008  15.692   0.441  12.319 -0.1803  0.0529 -0.0912
 9935W        W26009   9.705  13.123  14.933  0.0618  0.2122 -0.0140
 9936W        W26010   7.234   2.275  11.644  0.1220  0.0083 -0.0817
 9937W        W26011  14.375   1.743   2.843 -0.2912 -0.1724 -0.0805
 9938W        W26012   5.944  11.002   1.104  0.0594 -0.1078  0.1027
 9939W        W26013  14.167  17.378  12.162 -0.1590  0.1848  0.3550
 9940W        W26014  13.537   1.263   2.782 -0.1930 -0.1174  0.1789
 9941W        W26015  10.802  10.630  16.698 -0.3007 -0.0499  0.1944
 9942W        W26016   0.905   6.320  15.111  0.1174 -0.0403 -0.1770
 9943W        W26017   7.414   0.291   1.583  0.0101 -0.2658  0.3325
 9944W        W26018   1.921  14.022  13.505 -0.1780  0.0704  0.3863
 9945W        W26019  14.798   7.815   0.071 -0.1117 -0.0526 -0.0558
 9946W        W26020  17.081  12.656   0.895  0.2004  0.2635 -0.0023
 9947W        W26021  15.749   5.950  15.233 -0.4729  0.0421  0.1058
 9948W        W26022  12.583   4.254  12.812 -0.1698 -0.4765 -0.2679
 9949W        W26023   5.726  15.098   4.945 -0.1883  0.0250 -0.0547
 9950W        W26024   3.918   8.084   5.088 -0.0579  0.0440 -0.2441
 9951W        W26025   7.383  11.539  12.134 -0.1651 -0.0221  0.0724
 9952W        W26026  13.377   7.959   5.475  0.1571 -0.2774  0.3820
 9953W        W26027  13.049  12.049  12.296 -0.2106 -0.1153 -0.0764
 9954W        W26028  11.971  15.100  12.819  0.1867  0.0386  0.0436
 9955W        W26029  15.343  11.822   1.573  0.2606  0.0082  0.1894
 9956W        W26030   4.214   2.441  13.212 -0.3274 -0.1934 -0.2021
 9957W        W26031   3.950  12.711   5.564 -0.1170 -0.0305 -0.0870
 9958W        W26032   5.901   4.014   5.526  0.2153  0.2533  0.0053
 9959W        W26033  12.022  10.595   3.396 -0.0059  0.1333 -0.1953
 9960W        W26034  17.314  15.532   0.707 -0.1899  0.0723  0.0643
 9961W        W26035   4.393  15.595   5.867 -0.1951 -0.2865  0.0135
 9962W        W26036  17.068  14.620  11.995 -0.0657  0.1642  0.1399
 9963W        W26037  10.358  15.352  11.461 -0.0214 -0.0085  0.0618
 9964W        W26038   9.620   2.435   4.463  0.0274 -0.3476  0.3098
 9965W        W26039   6.813  10.405   1.640 -0.0702  0.0511  0.2456
 9966W        W26040   2.824  14.129  15.879  0.1498 -0.1010 -0.0727
 9967W        W26041   9.288  11.614   0.042  0.1918 -0.0521  0.0396
 9968W        W26042  16.273  15.808   0.573  0.2355 -0.1872 -0.1325
 9969W        W26043   7.536  16.556   3.320  0.1890 -0.0581  0.5414
 9970W        W26044   2.051   2.344  12.395  0.0459 -0.2563 -0.2351
 9971W        W26045  11.350  12.802  13.977  0.1214  0.0475 -0.1423
 9972W        W26046  15.628   2.326  15.567  0.0464  0.0776 -0.0441
 9973W        W26047   2.099   9.292   6.070  0.1150 -0.1177  0.0568
 9974W        W26048   6.336   2.302  13.664 -0.2756 -0.2157 -0.1800
 9975W        W26049   3.878  11.925   1.376 -0.2448 -0.0415  0.1748
 9976W        W26050  15.574   5.286  12.613  0.1540 -0.0161  0.2094
 9977W        W26051   0.496   1.380  16.670  0.0629 -0.4960  0.0080
 9978W        W26052  10.327  15.204   2.370  0.0071  0.0503  0.0234
 9979W        W26053  10.929  14.874  12.591  0.0320 -0.0535 -0.1187
 9980W        W26054  17.291   8.701  12.326 -0.0132  0.0389  0.3605
 9981W        W26055  14.969  15.845  13.586 -0.2191  0.0895 -0.0021
 9982W        W26056  10.658   4.642   4.058  0.3298  0.1509  0.0567
 9983W        W26057   0.583  14.083   2.504 -0.0275 -0.3043 -0.0967
 9984W        W26058   1.732   7.512   2.992  0.0169  0.1843  0.0446
 9985W        W26059  15.266  14.730  15.381 -0.1396  0.1416  0.2938
 9986W        W26060   3.608  13.734  14.166 -0.0175 -0.1953  0.0595
 9987W        W26061  17.624  12.849   5.199 -0.1180  0.0522 -0.1465
 9988W        W26062  13.310   9.706  16.780 -0.1188 -0.1140 -0.0369
 9989W        W26063  15.505   3.022  13.981  0.3165  0.2081  0.2569
 9990W        W26064  12.728  17.067  13.023 -0.0061  0.2573  0.2454
 9991W        W26065   3.324   8.703   1.974 -0.1766 -0.3383  0.0605
 9992W        W26066  11.400   9.680   4.548 -0.1404  0.2795 -0.1792
 9993W        W26067   6.675   3.965   4.445 -0.0848  0.2239  0.1443
 9994W        W26068  12.512  16.236   1.152  0.0166 -0.0130 -0.1869
 9995W        W26069   6.262  11.760   0.261 -0.0937  0.0310  0.3670
 9996W        W26070   7.790   0.593  16.337 -0.0827 -0.0258  0.4436
 9997W        W26071   7.506  13.775  14.544 -0.0954 -0.0788  0.0664
 9998W        W26072   2.905   6.815  15.569  0.1411  0.0946 -0.1639
 9999W        W26073  14.186  16.629  14.625 -0.2078 -0.1219  0.0907
10000W        W26074   5.826   3.400   0.530  0.0239  0.1270 -0.2387
10001W        W26075  10.993   9.556   0.952 -0.0406  0.0697 -0.0159
10002W        W26076  17.097   3.140   5.473 -0.1038  0.0983 -0.2097
10003W        W26077   0.892  14.626   2.717  0.0288 -0.0475  0.0094
10004W        W26078   7.307  17.307   1.171  0.3450 -0.2224  0.2350
10005W        W26079   4.751   6.845  16.619  0.0392  0.2019 -0.1496
10006W        W26080   7.442  10.165  14.647 -0.1237 -0.0611  0.3440
10007W        W26081  14.844  10.920   4.372  0.1448  0.0628 -0.1203
10008W        W26082   9.579   3.217   0.873 -0.1236  0.0250  0.1649
10009W        W26083   9.673   5.527  16.611  0.1348 -0.1762 -0.0529
10010W        W26084   6.251  12.378   1.678  0.0150  0.2762  0.1140
10011W        W26085  14.661  14.712  12.512 -0.0356 -0.0719 -0.1623
10012W        W26086   7.633  11.023  13.851 -0.2093  0.1147 -0.2127
10013W        W26087  12.963   2.422   5.827 -0.0584 -0.2827 -0.0349
10014W        W26088  11.643  13.290   4.639 -0.0374  0.0818  0.0199
10015W        W26089   7.106   7.032   0.331 -0.0551  0.1110 -0.0827
10016W        W26090  12.827  11.118  13.766  0.3527 -0.1264 -0.3409
10017W        W26091  14.497  12.226   2.508 -0.2272  0.0946 -0.4590
10018W        W26092   3.356  13.337  12.327  0.0260  0.1722  0.1215
10019W        W26093  13.633  12.689  12.624 -0.2241  0.2320  0.0094
10020W        W26094  14.141  10.267   0.741  0.2732  0.0639 -0.0678
10021W        W26095   5.590   1.677  14.868 -0.4191 -0.1428 -0.2649
10022W        W26096   2.131  14.970  15.042  0.2730  0.2109 -0.0396
10023W        W26097   8.788   5.343  12.986  0.2848 -0.0879 -0.0211
10024W        W26098  17.445   9.307   1.153 -0.0067 -0.1147  0.0630
10025W        W26099   1.765  12.730   5.443  0.1741  0.1035  0.0508
10026W        W26100  13.186  10.558   1.136 -0.1537 -0.1479 -0.0165
10027W        W26101   9.474  13.235   0.258 -0.0704  0.3230 -0.0539
10028W        W26102   4.478   1.068   4.019  0.0341 -0.0855  0.1907
10029W        W26103  12.957  14.411  12.708  0.1247  0.0548 -0.0222
10030W        W26104   9.910  17.461   4.613  0.1703 -0.0205  0.3894
10031W        W26105  10.213  10.537   4.068 -0.2728 -0.1609 -0.1343
10032W        W26106  10.520  14.778  12.930 -0.1719  0.2775  0.0754
10033W        W26107   5.873   7.057  16.752  0.0845 -0.1942 -0.2131
10034W        W26108  15.038  17.167   4.037 -0.0759 -0.1544  0.0117
10035W        W26109   4.632   3.706  13.491 -0.1117 -0.1231  0.0849
10036W        W26110   6.415   2.475  12.167 -0.4943  0.0142 -0.0066
10037W        W26111   9.008   9.542  14.995  0.0309 -0.1357  0.1476
10038W        W26112   5.863  15.126   5.456 -0.2240  0.1678  0.0656
10039W        W26113   9.894   9.786  16.543 -0.2754  0.2171  0.1140
10040W        W26114  14.746   2.539   4.911 -0.1769 -0.2976  0.0857
10041W        W26115  15.672   8.071  11.732 -0.0180 -0.2495  0.3203
10042W        W26116   9.992   6.866   1.800 -0.1912  0.2487  0.2043
10043W        W26117   4.989  10.516  16.386 -0.0489  0.1993  0.0762
10044W        W26118  13.194  16.924  12.848  0.4704  0.1421  0.0145
10045W        W26119   3.415   6.622   4.083 -0.1579 -0.0709 -0.3916
10046W        W26120  12.637   3.996  14.364  0.1081 -0.1504 -0.0606
10047W        W26121   0.487  13.962  14.549  0.0645 -0.3126  0.0997
10048W        W26122  11.844   9.515   1.758  0.1922  0.1529 -0.1609
10049W        W26123   0.700   5.411  12.908  0.0354 -0.2644  0.1193
10050W        W26124  10.190   4.126   5.103  0.0627  0.0624  0.1838
10051W        W26125   4.584   1.716  15.283 -0.2439 -0.0910  0.2410
10052W        W26126   5.551   6.732  12.274  0.0974  0.1342 -0.4261
10053W        W26127  17.766  11.705   3.520  0.1306  0.1524  0.1271
10054W        W26128   1.358   6.246  15.023 -0.2411  0.1397 -0.2127
10055W        W26129  17.483   8.806  12.948 -0.1963 -0.2658 -0.0726
10056W        W26130  11.424   7.580  15.440  0.1507 -0.0166  0.0456
10057W        W26131   7.435   0.587   1.975  0.1327 -0.2760  0.0701
10058W        W26132   5.548   6.660   3.033  0.0872 -0.3988  0.0653
10059W        W26133   4.522   4.840  15.625  0.1658  0.0688 -0.1368
10060W        W26134  12.215  12.784  16.105  0.0513 -0.0125  0.0499
10061W        W26135   9.855  14.189   4.909  0.1741 -0.0112  0.1491
10062W        W26136  10.565   4.888  13.346 -0.1238 -0.0327 -0.0798
10063W        W26137  11.704  16.811   1.074  0.2150  0.1013 -0.2361
10064W        W26138   6.123   1.461   4.427 -0.0142  0.1719 -0.0059
10065W        W26139   4.559  13.787  11.564  0.1080 -0.0653 -0.2137
10066W        W26140   3.587  16.228  14.247  0.0219  0.1771  0.1462
10067W        W26141   3.895   4.283  14.676 -0.1532  0.0098 -0.0718
10068W        W26142   3.418   3.968  15.439 -0.2312  0.0636  0.0477
10069W        W26143   4.365   4.470  11.956  0.3716 -0.1253 -0.2873
10070W        W26144  17.718  15.528  12.621  0.3873  0.2068 -0.1458
10071W        W26145  14.544   0.222   5.366  0.0795  0.1576 -0.0996
10072W        W26146  17.488   7.678   0.252  0.3869 -0.0450 -0.0119
10073W        W26147   7.577  13.971   1.045 -0.2900 -0.1255  0.3169
10074W        W26148   2.491   1.860   4.466 -0.1850 -0.0065 -0.0025
10075W        W26149   3.895   7.272   2.427 -0.0803 -0.0892 -0.2353
10076W        W26150   3.067  13.396  13.511  0.4675 -0.3877 -0.3204
10077W        W26151  14.419  12.401  12.121 -0.1253  0.1413 -0.2329
10078W        W26152  10.874   7.200  12.549  0.1676  0.0701  0.0938
10079W        W26153  16.361   1.398   3.681 -0.1378  0.2485  0.0655
10080W        W26154  15.452  10.401   1.738 -0.0715  0.0738 -0.2210
10081W        W26155   1.646  15.999  14.672 -0.0761 -0.0768 -0.1376
10082W        W26156   9.557   3.196  13.799 -0.0721  0.2452  0.2277
10083W        W26157   5.399   3.519  11.474 -0.1689  0.0584 -0.0203
10084W        W26158   7.835  11.512  10.993 -0.3543 -0.0451  0.0747
10085W        W26159  15.766  16.737  13.716  0.0497  0.1446 -0.3231
10086W        W26160   6.554   4.140  15.889 -0.0476  0.3235  0.1198
10087W        W26161   0.951   1.860  15.739  0.1535 -0.3451  0.1465
10088W        W26162   2.988  10.602  13.352  0.1053 -0.1173  0.0223
10089W        W26163  10.600  11.836  15.874 -0.0328 -0.0448  0.0893
10090W        W26164   4.521  15.934  15.800  0.0891  0.0664 -0.2085
10091W        W26165  13.967  14.152   4.213 -0.1726  0.3103  0.0112
10092W        W26166   6.555  13.102   5.156  0.0714  0.0055 -0.4301
10093W        W26167   4.101   0.132  11.765 -0.1546  0.2450 -0.1035
10094W        W26168   6.599   5.363   0.348 -0.2299  0.1126 -0.0693
10095W        W26169   8.525   1.800  13.333  0.1903 -0.3389  0.3599
10096W        W26170   0.747  14.076   6.105 -0.2005  0.1553 -0.3499
10097W        W26171  11.789  14.380  16.147 -0.3705  0.0983 -0.2011
10098W        W26172  11.545   9.545  13.745 -0.1872 -0.0280 -0.0228
10099W        W26173  11.543   5.704   4.857  0.0561 -0.0267  0.0891
10100W        W26174  13.899   9.681  12.387  0.0404  0.1461 -0.2145
10101W        W26175   8.927  10.103   2.191 -0.1002  0.1291  0.1055
10102W        W26176   9.020  10.513   1.415  0.0888  0.0609 -0.0757
10103W        W26177  16.860  14.207  12.155  0.2962  0.2021 -0.2012
10104W        W26178   1.822   5.489   0.135  0.1084  0.5750 -0.1307
10105W        W26179  15.219  16.399   5.798  0.2519  0.1747 -0.0810
10106W        W26180  11.546   8.869  12.040  0.0153  0.1938  0.3387
10107W        W26181   2.514  14.160  11.980  0.3150  0.1892  0.0255
10108W        W26182   0.990   3.496  14.141 -0.3295 -0.0265 -0.0303
10109W        W26183   0.336  14.261   4.687  0.0810  0.0338  0.0053
10110W        W26184  15.135  14.552  12.113 -0.1386  0.1184  0.1602
10111W        W26185  13.483   3.884  15.892 -0.0365  0.1125 -0.1170
10112W        W26186  11.713   2.967   0.843  0.0068  0.0865  0.0522
10113W        W26187   5.039  13.197   3.020 -0.2938  0.2373  0.2835
10114W        W26188  17.056  17.397   4.243 -0.1318 -0.0783 -0.1136
10115W        W26189   1.826   9.247  15.771  0.1216  0.1047 -0.1862
10116W        W26190  11.342  10.668  15.903  0.1311 -0.3014 -0.0917
10117W        W26191  10.381   0.757   0.626 -0.0000 -0.0060  0.0393
10118W        W26192  16.157   9.399  13.885  0.0023  0.1597  0.1191
10119W        W26193   9.043  12.874   1.343  0.1205 -0.0158  0.3296
10120W        W26194   6.014   6.690   0.065 -0.2235 -0.0603 -0.2114
10121W        W26195  13.285  17.167   3.735  0.3346  0.4469 -0.1318
10122W        W26196   8.299  12.631   4.152 -0.0143  0.1545  0.1608
10123W        W26197  12.249  17.142   4.765  0.0602  0.2812  0.0640
10124W        W26198   1.718   9.394  12.519  0.2528  0.1802  0.1760
10125W        W26199  15.283   4.228   3.315 -0.1347  0.0889 -0.2869
10126W        W26200  14.794   5.439   3.028  0.1585  0.0302  0.2898
10127W        W26201   7.057  13.502   3.979  0.0394 -0.0732  0.1416
10128W        W26202   8.737  14.709   0.473  0.3591  0.1708  0.3539
10129W        W26203   6.119  16.765   6.388 -0.2550  0.0517 -0.0139
10130W        W26204   9.511   0.744   1.830 -0.0976  0.0760  0.2215
10131W        W26205   8.919   7.479  11.941  0.1914  0.0018  0.0565
10132W        W26206  14.965   5.759   4.208 -0.0067  0.0129  0.2027
10133W        W26207   4.489  16.724  15.132 -0.2140 -0.1351  0.0028
10134W        W26208  13.286  15.351   1.773  0.2671 -0.1169  0.0173
10135W        W26209  16.986   0.320  12.942  0.1217 -0.3437 -0.0276
10136W        W26210  14.827   3.028  14.193  0.0164  0.1792 -0.2399
10137W        W26211  11.792   9.832   0.491  0.1505 -0.1337 -0.3307
10138W        W26212  16.606  16.056   2.244  0.1238 -0.2706  0.0975
10139W        W26213  13.474  11.331  12.132 -0.1531  0.0115  0.2765
10140W        W26214  17.272   4.359   5.832 -0.2413 -0.1852  0.2129
10141W        W26215  14.571   1.305   3.533  0.1482  0.0552 -0.0135
10142W        W26216   7.213   2.305  16.336 -0.2469 -0.0491  0.0969
10143W        W26217   3.760  17.012  16.534 -0.0962 -0.0016  0.0711
10144W        W26218  12.941  10.032   2.744  0.1174  0.3774  0.0626
10145W        W26219  16.885  13.693  16.630 -0.1297  0.1424  0.0526
10146W        W26220  15.695  17.133   5.303 -0.0145  0.1430 -0.0488
10147W        W26221   6.225   3.742  15.758 -0.1596  0.2260  0.2571
10148W        W26222  15.795   4.752  16.743  0.1687 -0.0594 -0.0640
10149W        W26223   5.746   0.966   0.990 -0.1060  0.0276 -0.0145
10150W        W26224   3.884   1.599   3.370  0.0897 -0.1549 -0.0968
10151W        W26225   1.629   4.055  12.920 -0.3878  0.1343  0.1598
10152W        W26226   7.619   3.485   0.514  0.0785  0.2776 -0.0874
10153W        W26227  17.844   3.997  11.528 -0.3071 -0.0123 -0.1406
10154W        W26228  10.979   1.586   2.039  0.0112 -0.1519 -0.1668
10155W        W26229  17.367   4.876  16.290 -0.0036  0.0769  0.0394
10156W        W26230  11.569  15.526   2.775  0.0108 -0.0025  0.3259
10157W        W26231  12.797   5.260   5.149 -0.0736  0.1762 -0.0624
10158W        W26232  14.936   8.825  10.912 -0.1086 -0.1547  0.1580
10159W        W26233  12.366   5.373  13.383  0.1306  0.1724  0.0528
10160W        W26234  11.756   6.210  14.891 -0.1762 -0.2006 -0.1333
10161W        W26235   5.756  17.162   3.195 -0.0781 -0.0847 -0.0277
10162W        W26236  13.929   7.201  14.023  0.0674  0.1367 -0.1068
10163W        W26237  12.413  16.883   5.164 -0.1273  0.3220 -0.0252
10164W        W26238  16.532  15.206  15.034  0.0071  0.0218  0.0742
10165W        W26239  16.300   1.591  14.609 -0.1634 -0.2359  0.3371
10166W        W26240   9.298   5.339   5.605  0.3019 -0.1534 -0.0757
10167W        W26241  17.785  12.392  12.565 -0.0324  0.0735  0.1543
10168W        W26242  12.156   5.049   2.495  0.1209  0.1107  0.1429
10169W        W26243  14.307  16.250  14.965 -0.0200 -0.0717 -0.2020
10170W        W26244  13.865  10.223  12.412  0.1217  0.1594  0.0495
10171W        W26245   9.418   0.506  12.894 -0.1373 -0.1092 -0.0403
10172W        W26246   3.350  17.104   3.395  0.3519 -0.1576  0.0221
10173W        W26247   1.593  14.105  12.040  0.0471 -0.1951  0.0386
10174W        W26248  17.455   5.616  11.860 -0.1125 -0.0272 -0.2649
10175W        W26249  17.009   8.926  16.743  0.1088 -0.0101  0.3856
10176W        W26250   5.376  15.643   0.150 -0.0947  0.0144  0.0990
10177W        W26251  16.420   9.910  15.183 -0.0892 -0.0620  0.0164
10178W        W26252   4.788   9.565   4.039  0.0370 -0.0239  0.0027
10179W        W26253   2.610   0.921   0.956 -0.0889 -0.2367  0.0461
10180W        W26254  13.485   7.298   3.641  0.0965  0.0124 -0.0486
10181W        W26255  12.524   0.919   5.617  0.2292  0.2544  0.0842
10182W        W26256  11.997   0.422   0.093 -0.1734 -0.1635  0.2075
10183W        W26257  14.977  14.022   5.459  0.2166 -0.1653  0.0515
10184W        W26258   6.927   4.115   1.746 -0.2149  0.1316  0.1691
10185W        W26259  17.001  10.079  16.855  0.1149  0.0638 -0.3370
10186W        W26260  13.910   5.713   0.108 -0.0718  0.0458  0.4366
10187W        W26261  10.863   9.642  16.383  0.0360 -0.0867  0.1115
10188W        W26262  13.642  10.692  14.363  0.0527 -0.0205 -0.2021
10189W        W26263  11.247  16.830  16.907 -0.0465  0.1465  0.1744
10190W        W26264   8.245  15.937   3.282  0.2583 -0.0790  0.2006
10191W        W26265  15.813  16.467  14.827  0.0841  0.2266 -0.0137
10192W        W26266   1.287  13.755   2.334 -0.2112 -0.1923  0.3897
10193W        W26267   1.451  10.175   2.202 -0.0269  0.1817 -0.2372
10194W        W26268  16.022   8.325  12.077  0.0838  0.0174 -0.0182
10195W        W26269   6.612  13.887  12.423 -0.0172 -0.0332  0.2696
10196W        W26270  14.149   1.790  13.151 -0.1292 -0.1669 -0.1213
10197W        W26271   7.394   7.917   3.516  0.5129  0.0371 -0.1096
10198W        W26272  12.719  15.005   1.010 -0.2105 -0.1565  0.1517
10199W        W26273  10.412   3.735   6.436  0.0200  0.0254 -0.1773
10200W        W26274  17.453  15.101  14.711 -0.1985  0.2271  0.2567
10201W        W26275   9.678  11.160  14.378  0.0778 -0.2876  0.3844
10202W        W26276   2.745  11.024  13.328 -0.2288 -0.0298  0.2878
10203W        W26277   7.009   0.417  15.751 -0.0026 -0.0367 -0.3619
10204W        W26278   9.473  11.031  12.221  0.1593 -0.0525  0.1553
10205W        W26279  10.139   2.288  12.164 -0.3459  0.4312 -0.0670
10206W        W26280  11.765   6.931   4.692  0.2094 -0.0465 -0.1623
10207W        W26281  11.583  13.723  14.778 -0.1063  0.3269  0.2663
10208W        W26282  12.878  17.700   5.376  0.0635  0.3107  0.0280
10209W        W26283  10.003  10.241  16.282  0.2763  0.1897  0.2316
10210W        W26284   7.040   3.946  13.606  0.3536  0.0434 -0.1803
10211W        W26285   6.712   0.239   1.499  0.0157  0.1481 -0.1795
10212W        W26286  13.785   7.170  14.582 -0.0293 -0.0212  0.0451
10213W        W26287  10.087  11.786   2.949 -0.1520  0.2868 -0.1699
10214W        W26288   3.222   5.115   3.222  0.0192 -0.1733 -0.2322
10215W        W26289  13.517   4.710   5.956 -0.0361 -0.2571 -0.1018
10216W        W26290   4.915   7.165  14.372  0.1470  0.0862  0.3051
10217W        W26291   6.817   7.306  14.670 -0.1849  0.2666  0.1901
10218W        W26292  11.079   3.977   1.352 -0.0932 -0.1653  0.1344
10219W        W26293  14.063  15.351  16.929 -0.0534  0.1850  0.3235
10220W        W26294  12.402  16.698   4.096  0.0335 -0.1827  0.0131
10221W        W26295  14.776  17.611   4.197 -0.1475 -0.1620  0.1917
10222W        W26296   3.340   9.145   1.558 -0.0728  0.2519  0.0109
10223W        W26297  16.863   4.663   4.375  0.0727 -0.3078  0.2462
10224W        W26298   7.531  11.002  15.066  0.0310  0.2156 -0.0959
10225W        W26299   8.987  15.316   3.213  0.1429  0.0111 -0.0438
10226W        W26300  15.405   3.960   1.562 -0.0284  0.1228  0.0741
10227W        W26301  14.318  15.949   0.558 -0.3330 -0.0732  0.3993
10228W        W26302   9.833   5.056  11.868  0.0108 -0.3675 -0.3298
10229W        W26303   9.804   8.998   4.302  0.0993 -0.0351 -0.0235
10230W        W26304  15.909   6.604  14.957  0.0867 -0.0859 -0.2948
10231W        W26305   7.067  14.046  16.920  0.0936  0.4800 -0.3786
10232W        W26306   5.529   7.359  12.891 -0.0865  0.1347  0.0288
10233W        W26307  12.098  16.498   5.029 -0.2278  0.0252 -0.1114
10234W        W26308   2.876  13.007   2.559 -0.1047  0.1904 -0.0553
10235W        W26309  13.581   3.028  16.266  0.1907 -0.0986  0.3046
10236W        W26310  11.331  16.342  12.222 -0.1227 -0.0118  0.0803
10237W        W26311  10.748  13.708  14.121  0.3077 -0.0482  0.2556
10238W        W26312   2.747   9.461  13.631  0.1903 -0.0755  0.0255
10239W        W26313  12.041  13.177   3.667  0.0759  0.0071 -0.0232
10240W        W26314   5.105  14.953   4.401  0.2649 -0.0411  0.0195
10241W        W26315   1.279   6.987   4.716 -0.0512  0.3062 -0.1130
10242W        W26316  14.604   9.922  12.328  0.0359  0.0975 -0.0038
10243W        W26317  15.364   1.643  12.896  0.0540  0.0271  0.1013
10244W        W26318  10.691  17.522  12.996  0.1639  0.1908  0.2090
10245W        W26319  17.407   5.058   3.862  0.3550  0.0148  0.0473
10246W        W26320  15.129  12.115   0.312 -0.1637  0.2863  0.3983
10247W        W26321   1.111  15.318  12.675  0.0140 -0.0874  0.0320
10248W        W26322   7.540  17.113   4.631  0.1029  0.4054  0.0099
10249W        W26323   5.775  12.620   0.628  0.2338  0.2532  0.3250
10250W        W26324  15.633   8.656  13.487 -0.0521 -0.1666 -0.0358
10251W        W26325   9.602   6.916  15.137  0.0843  0.0399 -0.0274
10252W        W26326   7.496  12.110   0.441 -0.1641  0.0107  0.1393
10253W        W26327  14.502   5.317   0.590  0.0398 -0.0440  0.0885
10254W        W26328   9.069   7.909   1.380  0.1066  0.1367  0.2678
10255W        W26329  13.173  15.803   3.349 -0.0023  0.0291 -0.0259
10256W        W26330  15.581  11.181  15.939  0.1101 -0.0658  0.0638
10257W        W26331   4.047  13.387   0.533  0.2719 -0.2928 -0.2496
10258W        W26332   6.919  17.054   3.489 -0.1116 -0.0539 -0.1523
10259W        W26333   4.852   8.444  16.064 -0.0023  0.2010  0.2769
10260W        W26334   7.325  17.621  16.795 -0.0933  0.1939  0.1943
10261W        W26335  13.415  14.482   4.769  0.2520 -0.0510 -0.2128
10262W        W26336  13.545  12.379   5.111  0.0280 -0.0504 -0.0931
10263W        W26337  12.259  17.138  14.679 -0.1799  0.1539  0.4254
10264W        W26338  12.736  10.405   2.429  0.1259 -0.2862 -0.0862
10265W        W26339   8.572  16.574  16.310  0.0849 -0.1850 -0.2662
10266W        W26340   3.057  16.712  11.006 -0.1465 -0.1645 -0.2347
10267W        W26341   4.912   4.410   4.106  0.0452 -0.0909  0.0493
10268W        W26342  12.020  13.365   2.958  0.3802  0.0356 -0.0733
10269W        W26343   5.439   1.455   3.663  0.1227 -0.0784 -0.3296
10270W        W26344   4.805   0.848   5.111 -0.0107  0.1220 -0.0423
10271W        W26345   0.302  13.253   1.900  0.1368 -0.2784 -0.0048
10272W        W26346  10.989   8.565  16.197 -0.2453 -0.0116 -0.3060
10273W        W26347  17.063  13.255  16.919 -0.2467 -0.0732  0.0484
10274W        W26348  12.262   6.092  16.169  0.2243  0.0336  0.1293
10275W        W26349   8.735  14.764  16.326  0.1107  0.0844 -0.0244
10276W        W26350   9.777   8.703  11.842 -0.1727  0.0628  0.4460
10277W        W26351   0.029   3.043   2.974 -0.1568 -0.2641 -0.1467
10278W        W26352  10.082   9.731   1.122  0.2810  0.1080  0.0855
10279W        W26353   5.650  10.051   1.755 -0.0198  0.1372  0.1816
10280W        W26354  13.281  11.973  14.545  0.1743 -0.0512 -0.1084
10281W        W26355  16.805   2.250   4.530 -0.0122  0.0167 -0.0163
10282W        W26356   4.736   2.327  16.307 -0.0434  0.0639  0.0950
10283W        W26357  16.178   7.094  11.850 -0.0145  0.1349  0.0615
10284W        W26358   9.180   4.620   2.289  0.1481  0.0885 -0.0137
10285W        W26359   3.824   9.399   3.637  0.0325 -0.3299 -0.2539
10286W        W26360   9.739  11.955   5.018 -0.2385  0.0601 -0.3271
10287W        W26361  16.733   4.976   5.237  0.3156 -0.1664  0.1264
10288W        W26362  17.775   6.651  15.471  0.0518 -0.0180  0.0083
10289W        W26363   4.832   0.088   2.935 -0.2710 -0.0145 -0.3186
10290W        W26364  15.184   8.919  13.636  0.0268  0.1129  0.0819
10291W        W26365  16.253   2.449  12.475 -0.0028 -0.1637 -0.0801
10292W        W26366   8.008   2.825   5.053 -0.0298  0.1586 -0.0118
10293W        W26367   1.366  16.984   0.778  0.0549 -0.1531 -0.0323
10294W        W26368   2.898  15.888   5.554 -0.2391 -0.0374  0.2071
10295W        W26369  13.507  17.698   2.635 -0.0179  0.1261 -0.1747
10296W        W26370  14.205  11.441  14.222  0.1466 -0.1384  0.1954
10297W        W26371  15.804   8.363  13.069  0.3476 -0.0395 -0.4808
10298W        W26372   4.106   4.221  15.138 -0.3382  0.3450  0.2285
10299W        W26373   2.190  13.117   3.749  0.1548 -0.0567 -0.0135
10300W        W26374   2.195  10.364   4.769 -0.0857 -0.3643  0.1393
10301W        W26375   7.582  16.383   2.640  0.1536  0.2038  0.1196
10302W        W26376  15.305   2.344   4.207 -0.0826 -0.2023 -0.0156
10303W        W26377   6.598  12.996  15.905  0.0108 -0.0399 -0.0017
10304W        W26378  16.557   2.567   0.280  0.1325 -0.0479  0.3233
10305W        W26379  13.765   0.697   3.725 -0.1011 -0.1591  0.2993
10306W        W26380   5.496   8.225   3.167 -0.0510  0.1415 -0.0308
10307W        W26381  17.343   4.930   2.847 -0.1415  0.2629 -0.0463
10308W        W26382  12.408   2.492   5.067  0.3341 -0.1087 -0.1849
10309W        W26383   2.740   9.545  16.129 -0.2335 -0.2783  0.0489
10310W        W26384   6.554  11.661  16.043  0.3084  0.3702  0.0829
10311W        W26385  12.865  16.780   6.208  0.2736  0.2581  0.0019
10312W        W26386   0.672   0.340   2.904 -0.0735  0.4373 -0.1056
10313W        W26387  10.051  12.823   5.078  0.4105  0.0132  0.4795
10314W        W26388   9.729   4.663  13.615 -0.1084  0.1415 -0.1659
10315W        W26389   0.715   3.362   3.866 -0.0322  0.6628 -0.0766
10316W        W26390  14.509  13.810   3.617 -0.2130  0.0508 -0.0654
10317W        W26391   0.505  11.083   1.077 -0.2320  0.0315  0.1027
10318W        W26392   3.708   8.460   3.637  0.0260 -0.2535 -0.2235
10319W        W26393   9.057   4.193  16.269  0.0493  0.0391 -0.2565
10320W        W26394   4.968  10.110   1.153 -0.0390 -0.2031  0.0899
10321W        W26395   0.190  15.090   2.421  0.3956  0.1763 -0.0456
10322W        W26396  16.511   9.606   2.075  0.0234  0.1240 -0.2559
10323W        W26397  17.581  16.581   4.234  0.1040  0.0963 -0.2285
10324W        W26398  14.406  14.437   4.508 -0.0102  0.2106 -0.0761
10325W        W26399   4.002  13.369  14.140  0.0671  0.1964 -0.1234
10326W        W26400   2.601  15.461  15.010 -0.1668  0.3345  0.1537
10327W        W26401  10.123  10.836   5.306 -0.1935 -0.1867  0.1820
10328W        W26402   2.952  15.008   0.372 -0.2919 -0.1470  0.1800
10329W        W26403   2.981   3.963  13.647  0.2217 -0.0240  0.0040
10330W        W26404   8.043  11.446   1.074 -0.0497 -0.0321  0.2213
10331W        W26405  14.644   0.732  15.143  0.0060  0.1789  0.1410
10332W        W26406  10.349   4.772  16.364  0.0802  0.1596  0.0842
10333W        W26407   7.695  14.288   5.194  0.0615  0.1404 -0.1837
10334W        W26408   9.819   5.584  14.238  0.0143  0.2224  0.3395
10335W        W26409   1.326  12.286  14.521  0.2409  0.2165 -0.4522
10336W        W26410  16.163   8.628  11.140  0.1761  0.2688 -0.1662
10337W        W26411   4.194  14.302   2.464 -0.0908 -0.1092 -0.0007
10338W        W26412  16.313  15.875  12.890 -0.1576 -0.1727  0.3155
10339W        W26413  15.660  13.111  12.548  0.1733  0.0578 -0.4249
10340W        W26414   4.581  14.681   3.299  0.3362 -0.1485 -0.3494
10341W        W26415   6.291  15.074   0.088 -0.3470  0.0284  0.1037
10342W        W26416   9.795   5.074  15.457 -0.0631 -0.0180  0.2195
10343W        W26417  10.531   8.385  15.382  0.0723 -0.0825  0.1830
10344W        W26418   3.397   4.554  12.344 -0.1635 -0.1720 -0.0237
10345W        W26419   4.371   9.735   0.017 -0.0738  0.2173 -0.0841
10346W        W26420   4.948  16.228   4.255  0.2054 -0.0241  0.0885
10347W        W26421   4.888   5.345  14.929  0.0194  0.2929 -0.1101
10348W        W26422   7.027   6.700   1.306 -0.3403 -0.1460 -0.0648
10349W        W26423  17.513   9.705   0.661 -0.2371  0.3303 -0.1636
10350W        W26424   4.973  15.225   2.646  0.0538  0.1603 -0.2235
10351W        W26425  11.066   3.793  14.505 -0.0998 -0.0528  0.0554
10352W        W26426   9.791   8.143  15.875  0.2638  0.0997 -0.1846
10353W        W26427   7.025   3.626   1.424  0.0332 -0.1727  0.1946
10354W        W26428   6.160   8.535   5.580 -0.2031 -0.4514  0.0684
10355W        W26429  13.267   7.226  14.633  0.3997  0.2251 -0.0146
10356W        W26430  10.299   2.791   6.070  0.2112 -0.2415 -0.0042
10357W        W26431  10.374   8.324   4.349 -0.1425 -0.0697 -0.0341
10358W        W26432  15.736   1.425   3.386  0.1960 -0.2680  0.0242
10359W        W26433  10.743   3.220  16.003  0.1560  0.1527 -0.1125
10360W        W26434  15.713  14.776   4.019  0.0479  0.1265 -0.0728
10361W        W26435  10.001   8.000   0.405 -0.1464  0.0262  0.2608
10362W        W26436   3.574  13.582   1.844 -0.0025  0.1613 -0.2352
10363W        W26437   1.012   2.557   0.681 -0.0536  0.1950 -0.0822
10364W        W26438   4.753  12.928   1.702  0.0956 -0.0857  0.0181
10365W        W26439  17.006  12.070   0.304  0.1149  0.2305  0.0117
10366W        W26440  13.323  12.103   2.171  0.1690 -0.1164 -0.0547
10367W        W26441   6.529   3.857   1.605 -0.0989 -0.0539 -0.1861
10368W        W26442   9.050   0.113  14.900  0.0622 -0.2385  0.0124
10369W        W26443   0.126   1.853  13.523 -0.1266 -0.1884 -0.3087
10370W        W26444   4.731   6.963   5.555  0.1609 -0.0548 -0.1653
10371W        W26445  13.863   4.652   3.569  0.0388  0.0301 -0.0679
10372W        W26446   6.687  13.035  12.813 -0.3041 -0.2071 -0.1655
10373W        W26447   3.179   9.231   6.069  0.1299 -0.0481 -0.0246
10374W        W26448  13.841  17.659   2.232 -0.4015  0.4544 -0.0702
10375W        W26449   5.255   4.692   3.832 -0.1538  0.0845  0.3707
10376W        W26450   9.663  14.035  14.759 -0.1387 -0.1114 -0.3367
10377W        W26451   6.811   9.663   4.321 -0.0400 -0.1879 -0.4555
10378W        W26452   7.924  13.869  11.376  0.0725  0.3643  0.2184
10379W        W26453  13.264  11.869  10.744 -0.1688 -0.1399 -0.1644
10380W        W26454   1.510  11.978  16.235  0.0191  0.1863  0.0838
10381W        W26455  15.959  10.229   1.543 -0.1821  0.2508 -0.0537
10382W        W26456   9.980  17.173   3.577  0.2316  0.0135  0.2724
10383W        W26457   7.344  14.042   2.313 -0.2182  0.2380  0.1860
10384W        W26458   3.753   3.007  12.563 -0.0984  0.2454 -0.0934
10385W        W26459   6.608   9.802   0.349  0.0652  0.1471 -0.2220
10386W        W26460   8.530  10.085  12.001  0.0255 -0.0279  0.1395
10387W        W26461  10.916   9.526  14.324  0.1477 -0.4123  0.1882
10388W        W26462   0.444   7.788  16.743  0.0007  0.1015 -0.0744
10389W        W26463  10.496   0.092   2.661 -0.2364  0.1008 -0.2545
10390W        W26464  10.451   4.222  12.824  0.1469 -0.0327 -0.1153
10391W        W26465   9.430   0.277  16.543 -0.0758  0.1583 -0.0581
10392W        W26466  12.419   8.829  11.837  0.0031  0.1433  0.4266
10393W        W26467   8.942   2.950   4.218  0.0616 -0.0721  0.1531
10394W        W26468  13.036  12.997   2.471  0.0354  0.1918 -0.1792
10395W        W26469   9.491  13.871   5.674 -0.1919 -0.1600 -0.1553
10396W        W26470   1.223  12.292   0.090 -0.0331 -0.0563  0.0494
10397W        W26471  11.233  15.510  16.871 -0.3245  0.0747  0.2055
10398W        W26472   7.025   0.974  12.115  0.3614 -0.0538 -0.1812
10399W        W26473   6.608   5.651  12.502  0.0489 -0.0689 -0.1703
10400W        W26474  15.420   5.263   0.374  0.0701  0.0309  0.0669
10401W        W26475   3.937   2.443  12.247 -0.3464  0.0996 -0.0523
10402W        W26476   3.776   5.953  15.402 -0.0896 -0.0265  0.0696
10403W        W26477  16.902   9.295   3.477 -0.1763  0.0286  0.0855
10404W        W26478  14.331   8.721  16.357  0.1692 -0.1390 -0.1450
10405W        W26479  12.230   6.718  10.582 -0.1022 -0.0900  0.3194
10406W        W26480   6.314   3.823   5.180 -0.0134 -0.0798 -0.0608
10407W        W26481   1.618  12.261   3.828 -0.1418  0.2634  0.2326
10408W        W26482   2.253  17.194   4.404  0.3252 -0.1038  0.0068
10409W        W26483  13.112  14.622   2.258 -0.0555  0.1926 -0.0311
10410W        W26484  13.391   8.439   5.274 -0.2677  0.0406  0.0377
10411W        W26485  16.438   2.503  12.966  0.0605 -0.3559 -0.2821
10412W        W26486  12.331   2.325  15.726 -0.1271 -0.0386  0.0718
10413W        W26487   1.349   5.376  15.052  0.1104 -0.0031 -0.0938
10414W        W26488   4.627  17.474  16.315  0.1730  0.2048 -0.2519
10415W        W26489  14.062  13.487  16.497  0.0495  0.0653 -0.0598
10416W        W26490   6.072   0.930   3.468 -0.1210  0.1030 -0.1563
10417W        W26491   8.852  12.092   2.414  0.1759 -0.0630 -0.0286
10418W        W26492   0.978  15.145  16.753  0.1097 -0.4169 -0.4595
10419W        W26493  14.232  17.192   1.149  0.0572  0.0946 -0.0421
10420W        W26494   4.153   8.243   3.212 -0.0075 -0.1432 -0.2381
10421W        W26495  13.814   3.392  13.278  0.1568 -0.0160  0.1346
10422W        W26496   8.101  15.116   2.735  0.1913  0.0826  0.0730
10423W        W26497   0.159   2.782   2.600  0.1810 -0.0733  0.0009
10424W        W26498  16.286  15.219   4.511  0.3487 -0.2434 -0.2477
10425W        W26499  12.391   4.689  15.670 -0.2233 -0.1944  0.2452
10426W        W26500  12.626   1.662  15.055  0.0811  0.2076 -0.0958
10427W        W26501   2.497  17.579   2.401  0.0716 -0.0860  0.1034
10428W        W26502   7.591   9.962   4.811 -0.0106 -0.0856 -0.1589
10429W        W26503   8.544   0.778  15.243 -0.5200 -0.2520 -0.0781
10430W        W26504   7.014   9.464  14.135  0.2432  0.4399 -0.0800
10431W        W26505   4.945   7.274   1.017 -0.1422 -0.1744 -0.0460
10432W        W26506   0.790  10.939  14.786 -0.3211  0.1623 -0.2420
10433W        W26507   0.407   3.954  13.722  0.0389  0.0084  0.1586
10434W        W26508  10.952  16.560  15.263  0.0640 -0.4020 -0.1448
10435W        W26509  13.996   4.042   6.384  0.1164  0.1935  0.0926
10436W        W26510   7.209   5.266   2.192 -0.4580  0.0337  0.0602
10437W        W26511  12.060   9.486   4.940 -0.0806  0.0386 -0.4991
10438W        W26512   0.983   6.181   5.534 -0.0620 -0.1456 -0.0970
10439W        W26513   3.418  10.034   5.271 -0.0005  0.0210 -0.2853
10440W        W26514   4.366  13.473  12.099  0.0526  0.0386 -0.1206
10441W        W26515  16.330  17.011  14.425  0.0903  0.0075  0.1543
10442W        W26516  14.369   1.936   3.834  0.3839 -0.0995 -0.4335
10443W        W26517   6.294   9.428   4.807 -0.2003 -0.0463 -0.0237
10444W        W26518  10.451   6.617   4.036 -0.2783 -0.2151  0.0561
10445W        W26519   1.726   3.421  13.654 -0.0540  0.0477  0.1091
10446W        W26520  11.847  16.062   5.889 -0.2518 -0.1803  0.3036
10447W        W26521   0.588  11.020  12.857 -0.1131 -0.1145 -0.0618
10448W        W26522  14.546  13.247   2.479 -0.0052  0.1896  0.0354
10449W        W26523  13.855  17.194  14.942 -0.1131 -0.1389 -0.0442
10450W        W26524   5.271   0.966  15.337 -0.2138  0.2468 -0.2561
10451W        W26525  13.001   2.668   1.343  0.0520  0.2981  0.0772
10452W        W26526  15.438   3.008   3.126  0.2285  0.3719  0.0486
10453W        W26527   2.192   7.740  12.481  0.0853 -0.0850 -0.3955
10454W        W26528   5.716  15.207   3.087 -0.2281 -0.0420  0.0507
10455W        W26529  16.325  16.288  15.224  0.0710 -0.0327 -0.0954
10456W        W26530   6.536  13.944   0.627  0.2273  0.1002 -0.0941
10457W        W26531  14.060  14.116   3.412 -0.1164  0.0015 -0.1736
10458W        W26532   3.660  17.531  16.562 -0.0588  0.2940  0.1865
10459W        W26533   2.130   5.521  16.256  0.0679 -0.0566  0.0659
10460W        W26534  17.012   7.673   5.878 -0.0634  0.1323  0.2739
10461W        W26535  15.714   8.342   0.597 -0.1233  0.0137 -0.1749
10462W        W26536   4.806   1.621   3.321 -0.1859 -0.0942 -0.2858
10463W        W26537  15.381  16.789   5.535  0.1107 -0.1908 -0.0160
10464W        W26538  13.616   1.061  16.153 -0.4523  0.1224 -0.2172
10465W        W26539   4.640  14.504  13.828 -0.1010 -0.0516 -0.0527
10466W        W26540  14.969  11.307  12.007 -0.0466 -0.2310 -0.0033
10467W        W26541  14.535  15.497  14.428  0.2047 -0.0146 -0.0834
10468W        W26542   0.679   9.115   2.717  0.1719 -0.0962 -0.0660
10469W        W26543   5.967   6.553   5.504 -0.0525  0.0978 -0.1029
10470W        W26544   1.844   0.126   4.143  0.1509  0.1573 -0.1313
10471W        W26545   5.850  12.634  15.761 -0.0389  0.0018 -0.1449
10472W        W26546   9.820   4.525   2.890 -0.0036 -0.0031  0.0865
10473W        W26547  12.013   5.625   4.113  0.1451  0.0827  0.0193
10474W        W26548  11.361   7.398  13.619  0.0860  0.0355 -0.2643
10475W        W26549  14.575  15.187  12.406  0.0658 -0.1952  0.0264
10476W        W26550   9.547   4.357  16.088  0.0728 -0.1620  0.2028
10477W        W26551   1.056   1.355   0.455 -0.1255  0.1454 -0.0520
10478W        W26552   0.910   3.357   2.833 -0.0639  0.0289  0.1648
10479W        W26553   1.943   3.471   4.128 -0.0264  0.3612  0.1206
10480W        W26554   5.565  12.475  14.005  0.2117  0.0212  0.1505
10481W        W26555   2.611  11.319  14.227  0.2915 -0.1510 -0.3230
10482W        W26556   8.220   0.026   2.214 -0.1921 -0.0348  0.1984
10483W        W26557   4.015   9.830  13.066  0.1160  0.0034 -0.1983
10484W        W26558   1.676  11.150   1.651  0.1369  0.0147 -0.1691
10485W        W26559   8.148   8.720   5.139 -0.0392  0.0387 -0.0715
10486W        W26560  14.591   9.855  15.389 -0.3142  0.2523  0.0594
10487W        W26561   0.162   8.795  11.581  0.3610  0.0211  0.0587
10488W        W26562   5.478  16.742  15.763  0.2490 -0.0925 -0.2503
10489W        W26563   9.418   1.042  14.057  0.2206  0.0851  0.0965
10490W        W26564   4.416   9.248   4.860  0.0090 -0.0353  0.0720
10491W        W26565   2.599  14.768  15.887 -0.0643 -0.1368  0.0809
10492W        W26566   8.755   0.445  15.716 -0.2928  0.1012  0.0599
10493W        W26567   2.245   8.552  12.073 -0.0067 -0.1967 -0.0726
10494W        W26568   7.899  16.052   2.538 -0.1510 -0.1539  0.1216
10495W        W26569  17.665   3.836  12.001  0.2871  0.1419  0.2410
10496W        W26570  11.605  17.318   6.123  0.0852 -0.1688  0.0129
10497W        W26571  13.848   9.846  14.469  0.4665  0.1615 -0.0858
10498W        W26572   5.332  16.094   4.995  0.1304  0.0285 -0.2355
10499W        W26573   2.210  14.046  16.302 -0.1401 -0.1855 -0.2655
10500W        W26574   6.951   6.649  13.387 -0.2087 -0.1552  0.0195
10501W        W26575  14.680   1.739  16.219 -0.1241 -0.2334 -0.0172
10502W        W26576   0.985   9.801   4.993  0.4920 -0.3073 -0.3444
10503W        W26577  15.962   6.906   3.090  0.2868 -0.0691  0.3104
10504W        W26578  13.267   8.362  11.906 -0.0504 -0.0591  0.0686
10505W        W26579  10.724   2.056   2.359  0.2504  0.3397  0.0420
10506W        W26580   3.802  12.728   4.448  0.5421  0.1926  0.0432
10507W        W26581   6.169  15.509   1.389  0.2966  0.1073  0.0645
10508W        W26582   7.877   9.483  12.726 -0.1359 -0.1818  0.2157
10509W        W26583  13.296   3.476   0.750 -0.1512  0.1696 -0.3205
10510W        W26584  11.241   5.928  13.331  0.1804 -0.0111  0.0392
10511W        W26585  10.231  11.398   3.472 -0.2345 -0.0989  0.2450
10512W        W26586  11.832   1.921  13.710  0.0247 -0.1116 -0.0737
10513W        W26587   8.767   6.975  13.284  0.4024  0.0277 -0.2766
10514W        W26588   4.478  16.036   4.931  0.0543  0.0899 -0.1557
10515W        W26589   0.740   1.196  14.191  0.1802  0.2183 -0.0333
10516W        W26590  11.376   6.293   5.652  0.0836  0.0821 -0.0466
10517W        W26591  11.690  12.322  11.872  0.0620 -0.0481  0.0233
10518W        W26592  12.079   2.917   2.525 -0.0586 -0.0406  0.1375
10519W        W26593  16.729  15.964   3.241 -0.0227  0.0293  0.0830
10520W        W26594  15.418  13.089  12.031 -0.0638  0.0967 -0.4841
10521W        W26595   9.884   3.359  14.581 -0.0604 -0.3852  0.1005
10522W        W26596   6.710  15.528   1.063  0.1665  0.0509  0.2237
10523W        W26597   8.749   5.658   1.355  0.0325 -0.3004 -0.0175
10524W        W26598   3.176   7.886  12.847  0.1658 -0.4106 -0.0926
10525W        W26599   1.828  10.530   4.552 -0.0753 -0.1487 -0.0081
10526W        W26600  17.289  10.866   5.502 -0.0070 -0.0564  0.0022
10527W        W26601   7.750   0.897  14.559 -0.2887  0.0469  0.1430
10528W        W26602   5.379   5.804   3.518 -0.1250 -0.1952  0.2961
10529W        W26603  15.518   7.617   1.186 -0.2142 -0.0168 -0.0704
10530W        W26604  13.549   3.977   4.312 -0.0100 -0.1380 -0.1585
10531W        W26605   7.083   4.082  15.752  0.0308 -0.2262  0.1628
10532W        W26606   8.961  10.726  15.788  0.1668  0.1230  0.1224
10533W        W26607  16.526   7.097   2.324  0.2568  0.0091 -0.0781
10534W        W26608  14.614  14.555  15.998 -0.0781  0.0015  0.0950
10535W        W26609  15.921   8.441   2.352  0.1026  0.0155  0.3207
10536W        W26610  14.476   8.028   4.759  0.1740  0.0008  0.1459
10537W        W26611  13.224   8.053  14.929  0.0451  0.4852 -0.2246
10538W        W26612   1.716  12.463  16.963 -0.4840  0.2287  0.0290
10539W        W26613  11.281  15.127   5.662 -0.2042  0.0663 -0.0677
10540W        W26614   2.155  15.313  11.982  0.0808 -0.2345 -0.0865
10541W        W26615   2.098  10.420  16.570 -0.2100  0.1160  0.2087
10542W        W26616  12.706  16.025  14.559  0.1383 -0.2305 -0.1062
10543W        W26617   3.247   1.948   0.813  0.1155 -0.4755 -0.4324
10544W        W26618   4.448   8.375  15.186  0.2258 -0.0015  0.1273
10545W        W26619   6.342  15.411  15.296 -0.0555 -0.1451  0.0178
10546W        W26620  14.245  13.727   1.635 -0.1745 -0.1145  0.0662
10547W        W26621  16.659   2.085   2.304 -0.0614  0.1253  0.0644
10548W        W26622   5.793   5.470   3.669 -0.0515  0.1025 -0.2467
10549W        W26623   8.499   1.342   3.084  0.1255 -0.0512 -0.1209
10550W        W26624   0.678   0.910  16.576 -0.0987  0.1204 -0.1320
10551W        W26625  11.175  11.962  12.769  0.1933 -0.3118  0.1016
10552W        W26626   0.814  15.441  11.850 -0.2847 -0.0076 -0.1254
10553W        W26627   2.175   9.967  14.102 -0.1202  0.3987  0.1193
10554W        W26628   2.697  14.559  12.275  0.2616  0.2762 -0.0253
10555W        W26629  15.012  16.737   5.143  0.0597  0.0944 -0.2200
10556W        W26630   7.732  12.113   4.167 -0.1336 -0.1067  0.4225
10557W        W26631  16.025   0.027  14.342  0.1396 -0.2870 -0.1704
10558W        W26632   4.496  17.701  15.125  0.1036  0.4405  0.1913
10559W        W26633  17.661   0.252  14.806 -0.0429 -0.1703 -0.5463
10560W        W26634  14.078   6.290   0.764 -0.0793  0.0458  0.0824
10561W        W26635  10.893   5.022   2.107  0.3409  0.1481 -0.0740
10562W        W26636  14.334   7.085   1.655 -0.0091  0.4814  0.1776
10563W        W26637  11.951   4.876   0.715 -0.1107 -0.2336  0.1737
10564W        W26638  11.349   6.128  15.231  0.2364 -0.1590 -0.0801
10565W        W26639  16.688  12.292   1.889 -0.1725  0.2666 -0.1940
10566W        W26640  12.056   4.713  14.049  0.0252 -0.0797  0.2467
10567W        W26641   3.682   2.673   5.418  0.4764  0.0436 -0.1533
10568W        W26642  10.350   4.933   5.690  0.1759  0.1273 -0.1039
10569W        W26643   4.209   5.662   1.479 -0.3002 -0.2451  0.0603
10570W        W26644   2.575  12.699   1.800 -0.0296  0.0824  0.2241
10571W        W26645  16.670  11.162   2.037  0.3704  0.1053  0.1804
10572W        W26646   5.383   6.259  11.907 -0.1726  0.2562 -0.2146
10573W        W26647  10.426  11.907  14.301  0.3648 -0.4946 -0.0334
10574W        W26648   4.573  11.281  15.610  0.5499  0.1493  0.0407
10575W        W26649   2.165  12.719  11.954 -0.1216  0.0735 -0.1773
10576W        W26650  11.993  15.259   1.859 -0.1000 -0.3943 -0.0358
10577W        W26651   3.012  10.084   3.625 -0.0163 -0.1307 -0.1206
10578W        W26652  11.957  12.608   1.952  0.3442  0.1876  0.1524
10579W        W26653  15.728  13.598  15.026  0.1393  0.0595 -0.1776
10580W        W26654   4.968  11.936  16.205  0.0899  0.0730  0.0137
10581W        W26655   0.453   4.380  15.218 -0.0261 -0.0675  0.3632
10582W        W26656   9.571  17.609  11.957 -0.2646 -0.1980 -0.1108
10583W        W26657   8.555  16.419  13.661 -0.0816  0.2616  0.0575
10584W        W26658   5.819  14.957  14.317  0.1622  0.0679 -0.3498
10585W        W26659   3.208   3.734   0.344 -0.1636  0.0627 -0.1288
10586W        W26660  10.335  16.781   3.559  0.0836  0.0468 -0.0369
10587W        W26661  11.997   7.978   3.309  0.1344  0.0380 -0.0408
10588W        W26662  13.819   3.656   2.416 -0.0158  0.0212 -0.0757
10589W        W26663   0.297   0.073   3.107 -0.3208  0.2987  0.0128
10590W        W26664   0.601   9.640  15.591  0.0700 -0.1555 -0.1255
10591W        W26665   4.713   7.094   0.609 -0.3952  0.0428 -0.1468
10592W        W26666  14.981   7.559  14.800  0.0087  0.0827 -0.5273
10593W        W26667  15.591  15.918  14.861  0.1486 -0.0324  0.1295
10594W        W26668   0.214  11.379   3.737 -0.0064 -0.2075  0.0249
10595W        W26669   4.316  12.165  16.754  0.0724 -0.0102 -0.0965
10596W        W26670   5.366  17.625   1.062  0.0940  0.0977 -0.1959
10597W        W26671   6.199  14.211   5.107  0.0167  0.0989  0.0358
10598W        W26672  11.440  15.765  13.343 -0.1364 -0.1006  0.0357
10599W        W26673   1.318  17.397  13.556  0.1404  0.0517 -0.3416
10600W        W26674   3.805   2.744  15.287  0.1538  0.0338  0.0861
10601W        W26675  16.641   8.606   4.039 -0.0204 -0.0893  0.1118
10602W        W26676  10.735   1.167  13.436 -0.1861 -0.2235 -0.3566
10603W        W26677  14.044   1.123   5.921 -0.0059  0.1966 -0.0071
10604W        W26678   3.165   5.903  15.382 -0.0555  0.1664  0.0208
10605W        W26679   4.411  10.248  14.966 -0.1690 -0.1785  0.5040
10606W        W26680  12.839  13.252  15.563 -0.1670 -0.1496 -0.1403
10607W        W26681   9.688   5.021   0.758 -0.2643  0.4037  0.0949
10608W        W26682   7.035   6.205   5.783 -0.1693  0.2546 -0.1344
10609W        W26683   5.520   4.316  16.227  0.1505  0.2163  0.0810
10610W        W26684   6.628  12.820  15.410 -0.0322  0.2881  0.0373
10611W        W26685  14.363   1.799   3.357  0.1049  0.2685 -0.0274
10612W        W26686  17.232  12.675   2.737  0.2711  0.1712 -0.1086
10613W        W26687   5.092   2.559  11.859  0.0406  0.0376  0.0495
10614W        W26688  12.496  12.808   6.214  0.2143  0.0130 -0.0375
10615W        W26689   9.420  10.630  12.525 -0.1079 -0.2478 -0.0795
10616W        W26690  10.495   7.085  13.509  0.3314 -0.0106 -0.0623
10617W        W26691  10.657  13.992   3.110 -0.1144 -0.0504 -0.2215
10618W        W26692   8.581   3.071  12.885 -0.0132 -0.0586 -0.1911
10619W        W26693   2.558   9.493   0.170 -0.0950 -0.0926  0.0840
10620W        W26694  11.649  10.707  15.468  0.1412 -0.1395  0.1624
10621W        W26695   8.883  12.286  14.549  0.3020  0.1999  0.0628
10622W        W26696   9.204  10.027   3.119 -0.1784  0.1645 -0.1507
10623W        W26697   0.808  14.089   0.971  0.0078  0.2341 -0.0487
10624W        W26698   1.441   1.658  12.629 -0.2270 -0.0736 -0.0142
10625W        W26699  15.557   7.203   2.980 -0.0811 -0.0874  0.2126
10626W        W26700   0.512   4.472  13.829 -0.0578 -0.1110 -0.1519
10627W        W26701  15.466   9.665   2.890 -0.2459  0.2046  0.1297
10628W        W26702   8.408  11.829  16.367 -0.0886  0.0014  0.0534
10629W        W26703   9.290  11.824   4.357 -0.0941  0.2318 -0.0238
10630W        W26704  13.041   6.729  15.653 -0.1074  0.0270  0.2109
10631W        W26705   6.914   3.074  15.146  0.1348  0.0187 -0.1387
10632W        W26706   8.143  14.709  13.552  0.2132  0.0912  0.0706
10633W        W26707  11.531   4.785  16.243 -0.0807 -0.2630 -0.3088
10634W        W26708   5.525   2.628   0.300 -0.1741  0.1877  0.0333
10635W        W26709   9.900  12.448   1.159 -0.0344 -0.2558  0.1161
10636W        W26710   8.131   8.373   1.720 -0.1851  0.0513 -0.0968
10637W        W26711   3.507  12.585  12.009 -0.1613  0.0230  0.2633
10638W        W26712  13.278  13.598  12.445 -0.0798  0.1292  0.0436
10639W        W26713   3.595   4.911   0.947 -0.1906 -0.0493  0.1758
10640W        W26714   9.244   0.084  15.831  0.0443 -0.0685 -0.2131
10641W        W26715  11.196  16.512   3.205  0.2647  0.0950 -0.2153
10642W        W26716   2.784   5.149  14.137 -0.2479  0.2986 -0.0571
10643W        W26717  10.048   4.466  11.911  0.1512 -0.0429 -0.1443
10644W        W26718  11.750   3.566   5.076  0.2975 -0.0030  0.0346
10645W        W26719   6.758   9.309   4.746  0.0596  0.0495 -0.0367
10646W        W26720  12.158  16.590   1.101  0.0325  0.0127  0.0400
10647W        W26721  17.096   1.951   3.087  0.0651 -0.0559 -0.0858
10648W        W26722  14.001   1.711   2.293 -0.2170 -0.2548  0.0312
10649W        W26723   7.762   7.884  15.416  0.2013 -0.4288  0.3621
10650W        W26724  15.732   5.569  16.152  0.0357  0.4316 -0.1467
10651W        W26725   5.483   9.867  14.988  0.2102 -0.1933  0.2747
10652W        W26726  14.486  14.919  11.953 -0.0295 -0.0728 -0.1321
10653W        W26727  14.274   7.146   6.126 -0.0042 -0.0727 -0.0680
10654W        W26728  11.649   5.593  13.516  0.0432  0.1906  0.2307
10655W        W26729  16.163  15.580   3.557 -0.2432  0.1876 -0.2312
10656W        W26730   3.914  12.282  12.198  0.0027 -0.0678 -0.1944
10657W        W26731  13.778   9.596  16.851  0.1159 -0.0299  0.2520
10658W        W26732  12.876   5.908   1.776  0.1921  0.2547 -0.0449
10659W        W26733  13.089  11.481   3.393 -0.0680  0.4847  0.1072
10660W        W26734   5.098  13.102   4.084  0.0993  0.0065 -0.1279
10661W        W26735   0.587   3.652  14.455 -0.0983 -0.0580  0.0378
10662W        W26736   8.703   5.671  15.279 -0.1125  0.1284 -0.2841
10663W        W26737   6.920   8.761   3.145  0.1957 -0.0992  0.2950
10664W        W26738   7.221  15.481  15.428 -0.1695  0.0776 -0.2759
10665W        W26739  10.196  10.681   5.852 -0.0319 -0.0888 -0.1623
10666W        W26740   2.149  10.072   6.283  0.1134 -0.1313 -0.2383
10667W        W26741  11.906  16.247  11.324 -0.1368 -0.1314 -0.0927
10668W        W26742   7.424   8.996   3.887  0.2020  0.3545 -0.1977
10669W        W26743  16.479  17.106  16.151 -0.1160  0.3134 -0.2377
10670W        W26744   6.978   1.732  15.144 -0.1379  0.1491 -0.1000
10671W        W26745   6.948   6.078   0.821 -0.1801 -0.0604  0.1101
10672W        W26746   7.105   4.833   4.466  0.0068  0.3857  0.4742
10673W        W26747  13.124   7.799  13.184  0.1672  0.0035 -0.0252
10674W        W26748   6.107  16.758   5.740  0.3131  0.0305  0.0944
10675W        W26749   4.964   3.586   6.738  0.0420  0.1305  0.2486
10676W        W26750   6.133   0.792  11.832 -0.1627  0.2207 -0.1427
10677W        W26751  12.377   4.089  14.991 -0.2277 -0.0569  0.4556
10678W        W26752   1.733  13.259  13.850  0.3388  0.2349 -0.1190
10679W        W26753  14.092   1.645   1.299  0.3500  0.0685  0.1733
10680W        W26754   2.965  13.019  12.487 -0.0278  0.0950  0.1358
10681W        W26755  12.926  11.724  14.708  0.2380  0.1371 -0.1173
10682W        W26756   2.235  11.066   3.822  0.1375  0.1926  0.1692
10683W        W26757  12.255   9.532  14.673  0.1301 -0.0040 -0.2270
10684W        W26758   2.039   5.758   4.078 -0.2598  0.0653  0.0648
10685W        W26759   9.344   8.551   0.073  0.1851  0.1583  0.0335
10686W        W26760   4.093   3.571   5.527  0.0378 -0.2220 -0.0611
10687W        W26761   6.808  14.172   3.092 -0.0984  0.0012  0.0008
10688W        W26762   9.620  17.627  13.063 -0.0911  0.2738  0.3980
10689W        W26763  12.240   5.985  16.926  0.0280 -0.0956 -0.0158
10690W        W26764  10.001   6.944  14.742  0.1518  0.1725  0.1313
10691W        W26765  13.221  17.105   0.201 -0.0379  0.1384 -0.0779
10692W        W26766   1.715  13.694  13.222  0.0492 -0.1914 -0.3138
10693W        W26767  11.908   8.131   4.681  0.0004 -0.2369 -0.3526
10694W        W26768  10.381  14.074  14.220  0.2410  0.0402 -0.0936
10695W        W26769   8.792   2.598   3.803  0.1916  0.0708 -0.2007
10696W        W26770   5.647   5.816   0.468 -0.1856  0.0957 -0.0842
10697W        W26771   0.591   1.143   0.761 -0.2622  0.1856  0.0631
10698W        W26772  11.975   4.475   5.008  0.3001 -0.1593 -0.0678
10699W        W26773   5.478  10.338  14.427 -0.0231 -0.3369 -0.2583
10700W        W26774   6.543   3.403  16.609  0.1809  0.2786 -0.2539
10701W        W26775   3.559   5.508   3.260 -0.1882 -0.0020 -0.1024
10702W        W26776   7.101  12.188  14.661 -0.3483 -0.1970 -0.0984
10703W        W26777   7.500   0.424  15.306  0.2742  0.1446 -0.1108
10704W        W26778  11.848  17.420  15.173  0.0841  0.0503  0.0616
10705W        W26779  13.243   3.029  12.165  0.0746  0.2243  0.3843
10706W        W26780   7.441   2.373  10.748  0.1499 -0.1757  0.1576
10707W        W26781   2.060   4.580  15.334 -0.2555 -0.2923  0.1901
10708W        W26782   1.395   5.361  11.715 -0.0702 -0.2818 -0.1075
10709W        W26783   9.074   2.058  12.068 -0.0104 -0.2031  0.1990
10710W        W26784   9.728   1.043   2.988 -0.1563  0.3088  0.1833
10711W        W26785   0.571   1.693   1.882  0.1876 -0.1682  0.0325
10712W        W26786   7.691   7.610   2.066  0.2623 -0.0250 -0.1169
10713W        W26787  11.994  17.632  13.102  0.2367 -0.0652 -0.3559
10714W        W26788   1.067  15.295   4.227  0.0266  0.0399 -0.1228
10715W        W26789   1.033   9.431   5.312 -0.1806 -0.0324  0.0162
10716W        W26790  16.763  13.777  15.100  0.1222 -0.1655 -0.1762
10717W        W26791  10.538  12.319   3.534 -0.1388  0.1991 -0.1712
10718W        W26792   1.747  12.042   0.259 -0.0283 -0.0887  0.1589
10719W        W26793  16.972  13.223   5.701  0.1012 -0.0329 -0.1321
10720W        W26794  16.290   8.354   1.871  0.2390  0.1609 -0.1407
10721W        W26795   9.384   5.543  16.092 -0.1661  0.1394  0.0484
10722W        W26796   1.375  11.530   2.885 -0.1274 -0.2327  0.0801
10723W        W26797  10.816   7.026  11.897 -0.0761 -0.1814  0.0627
10724W        W26798  16.056   5.463  12.588 -0.1487  0.1468  0.1040
10725W        W26799  10.619   2.794  12.820 -0.0210  0.0169  0.3340
10726W        W26800   3.039  16.469   5.153 -0.2281  0.0292 -0.3200
10727W        W26801   3.652  11.587  16.594  0.1455  0.2010 -0.2472
10728W        W26802   1.485  16.558   4.136  0.0753  0.0105  0.1708
10729W        W26803  17.443   6.937  14.054 -0.2682 -0.1673  0.0960
10730W        W26804   7.466  15.172  14.198 -0.0030  0.0866 -0.0182
10731W        W26805   7.711   6.510   4.759 -0.1036 -0.1672 -0.1041
10732W        W26806  12.444  13.221  15.871 -0.2621  0.3993  0.0822
10733W        W26807  11.810  15.428   0.269 -0.1863  0.0273 -0.0464
10734W        W26808   2.311  15.758  11.861 -0.0468  0.0836  0.0469
10735W        W26809  10.843  11.069   0.660 -0.2096 -0.0181  0.0468
10736W        W26810  17.309   2.901   6.103  0.0243  0.1445  0.1099
10737W        W26811  10.417  16.596   0.647  0.1617 -0.1557 -0.0005
10738W        W26812   0.667   0.828   3.554  0.2395  0.2851  0.3313
10739W        W26813  14.579   3.713  15.242  0.0467 -0.0982 -0.1364
10740W        W26814   2.661  12.676  12.694  0.0700  0.0929 -0.2561
10741W        W26815   8.508   8.611   2.747 -0.0086 -0.1013 -0.3350
10742W        W26816  16.120  14.387  13.462 -0.2660  0.1069 -0.1892
10743W        W26817   8.248   8.370  14.501  0.1304 -0.0648  0.1746
10744W        W26818   1.264  12.286   1.083  0.2713  0.0520  0.2182
10745W        W26819   5.611  15.820   2.168  0.0049 -0.0432 -0.1458
10746W        W26820   7.220  12.204  15.159 -0.0421 -0.1579  0.0500
10747W        W26821   3.996   5.998  13.014  0.2497  0.2524  0.0875
10748W        W26822   2.341  11.143   0.512 -0.0409 -0.0240  0.5084
10749W        W26823  13.235  12.257   3.735 -0.1144 -0.0751  0.0705
10750W        W26824   4.492   4.735   0.731  0.2153 -0.0653 -0.1468
10751W        W26825   2.390   8.095   2.672 -0.2093  0.0464  0.1855
10752W        W26826   8.979   7.138   1.542 -0.0071 -0.0601 -0.0779
10753W        W26827   0.284   6.849   3.902  0.0082 -0.1636  0.2484
10754W        W26828  10.903  15.942   2.299 -0.0651  0.0606 -0.0696
10755W        W26829   1.846   6.770  14.437 -0.2634 -0.3008  0.1217
10756W        W26830  10.768  15.246   2.606 -0.0902  0.1432 -0.3279
10757W        W26831   3.543  12.353  12.551 -0.0975  0.0563  0.0383
10758W        W26832  14.523  14.015  14.264  0.0767 -0.0158  0.0903
10759W        W26833   8.763   1.693  14.221  0.0802  0.2666  0.2209
10760W        W26834  11.983  12.701  13.487 -0.3055 -0.1882  0.1093
10761W        W26835   4.344   8.254   2.607  0.0387 -0.0860  0.1122
10762W        W26836   3.132  16.096  14.377  0.0963  0.0242 -0.2662
10763W        W26837  13.528   0.830   4.697  0.1518  0.0679  0.1859
10764W        W26838   2.910   8.257   2.735 -0.0194 -0.0795  0.0463
10765W        W26839   7.191  14.965   2.559 -0.2475  0.0548 -0.1586
10766W        W26840  12.674   7.550  13.207 -0.1485  0.1880  0.1888
10767W        W26841   4.595   6.336   4.420  0.0933  0.3008 -0.0438
10768W        W26842  13.111   8.039  12.684  0.1742  0.1182 -0.1189
10769W        W26843  10.257   4.524   0.814 -0.2087  0.0770  0.1393
10770W        W26844  11.170   6.356  15.794  0.0041 -0.0570 -0.1586
10771W        W26845   8.942   8.603  12.107  0.0345  0.4114 -0.0445
10772W        W26846  16.155  12.758   5.588  0.1723  0.0507  0.0618
10773W        W26847  10.662  15.136  16.592 -0.0334  0.2398 -0.0409
10774W        W26848   4.831   7.207  11.488 -0.1523 -0.1732  0.1508
10775W        W26849   6.083   8.057   0.691  0.0840 -0.1302 -0.0349
10776W        W26850  13.392  10.446  11.843 -0.1831 -0.1446 -0.2507
10777W        W26851   7.908  11.890   1.197 -0.0580 -0.0966  0.0423
10778W        W26852  13.268   7.241   1.793  0.0592  0.1578  0.0419
10779W        W26853  14.375   3.781  14.475 -0.0370 -0.1683 -0.1387
10780W        W26854   6.637   0.462   4.227 -0.2653 -0.1209  0.0633
10781W        W26855   0.652   3.148  16.095 -0.1065 -0.3081 -0.2703
10782W        W26856  10.098   6.045   1.282  0.1836  0.0385  0.2313
10783W        W26857  11.222   9.916  16.098  0.0886 -0.0301  0.1039
10784W        W26858   4.582  12.043   2.287  0.4350 -0.0658 -0.0291
10785W        W26859  11.264   0.252  13.292 -0.1423 -0.1021 -0.4241
10786W        W26860  12.319  16.549  14.714 -0.0479  0.1090  0.0588
10787W        W26861   3.059  16.302  12.461  0.0012 -0.1556 -0.1077
10788W        W26862   1.559   9.596  11.529  0.0439  0.0966 -0.0173
10789W        W26863   9.057   7.015   3.667  0.3256 -0.2799  0.1179
10790W        W26864  14.658  16.989   5.446 -0.2845 -0.2612 -0.1457
10791W        W26865  12.858   6.459   1.895 -0.1477 -0.1336 -0.1209
10792W        W26866  12.263   6.786  12.939 -0.3367 -0.0279 -0.2398
10793W        W26867  15.495   8.992   4.879 -0.0503  0.1746  0.0059
10794W        W26868   5.105   9.066   1.117  0.0109 -0.2957 -0.0917
10795W        W26869  14.713  10.418  16.266 -0.2145  0.0790 -0.1005
10796W        W26870  16.125  12.524   0.127  0.3178  0.0568 -0.1291
10797W        W26871  13.579   5.318   4.672 -0.2685  0.1214  0.3106
10798W        W26872   3.495   3.265  12.126  0.3316  0.1876 -0.0092
10799W        W26873   0.859   6.932   3.922  0.3062  0.0520 -0.2414
10800W        W26874   3.626   4.633  11.580  0.0051 -0.1860 -0.0237
10801W        W26875  11.316   1.738  12.034  0.0485  0.0900 -0.0036
10802W        W26876  11.622   0.098  15.810  0.0055  0.0084  0.0449
10803W        W26877  15.461  11.624  16.182  0.0578  0.1383  0.0996
10804W        W26878  15.517  13.010   4.564  0.0184  0.0092 -0.2406
10805W        W26879   4.776   2.121   3.520  0.0434 -0.1052 -0.2739
10806W        W26880  13.470   1.848  14.947  0.0299  0.1195 -0.3023
10807W        W26881  14.280  17.281  15.497  0.2514  0.2693 -0.2526
10808W        W26882  12.788   5.553   1.239  0.0178 -0.0883  0.5004
10809W        W26883  12.798  11.043  12.749 -0.2079  0.0990  0.0284
10810W        W26884  10.193   5.491   5.807  0.3620  0.0717  0.0267
10811W        W26885   5.515  15.028   0.915  0.2239 -0.1611  0.0217
10812W        W26886  17.785   5.187  15.070 -0.1105 -0.2938  0.1439
10813W        W26887   8.512  17.725  16.814 -0.1698  0.2568 -0.1286
10814W        W26888  12.607   4.450  14.254  0.1741  0.0027  0.0177
10815W        W26889   1.599   3.633  14.952 -0.0939 -0.3810 -0.1369
10816W        W26890   6.679   7.729   2.083 -0.0803 -0.0711 -0.0415
10817W        W26891   0.250   2.016   2.131 -0.1316 -0.3324  0.0597
10818W        W26892  13.098  16.056  12.219 -0.3232  0.0381  0.2966
10819W        W26893  12.675   5.741  14.774 -0.0159 -0.1938 -0.3703
10820W        W26894   7.903   2.050   1.487 -0.2274  0.0370 -0.1117
10821W        W26895  15.969   9.248  11.704  0.4493  0.0543 -0.3047
10822W        W26896  15.445   3.818  14.287 -0.2937 -0.2242  0.0297
10823W        W26897   2.961  12.454   1.925  0.0461 -0.2048 -0.0632
10824W        W26898   1.864  11.590   3.060  0.1633  0.1466  0.2214
10825W        W26899   9.625   1.339   3.849 -0.0945  0.0502  0.0511
10826W        W26900   9.197  14.019  13.172 -0.1387 -0.2432  0.1010
10827W        W26901  16.706   6.950  15.188 -0.0417  0.0400 -0.0302
10828W        W26902   8.475  14.331  16.445 -0.1093  0.1550  0.1882
10829W        W26903   4.396   0.572  13.754  0.0232 -0.1343  0.3754
10830W        W26904  13.429   7.659  12.548  0.1447 -0.2827 -0.1247
10831W        W26905   2.982   0.312  16.422 -0.2608  0.0601  0.2476
10832W        W26906  11.982   6.487   5.026  0.0912  0.0540 -0.1432
10833W        W26907   2.979   8.495   5.143 -0.0731 -0.1816 -0.1407
10834W        W26908   4.724  15.499   1.669  0.0846  0.1868 -0.0845
10835W        W26909   6.799   0.566  12.305  0.0891 -0.1630 -0.3419
10836W        W26910  12.323  15.491  15.257 -0.1775  0.0295 -0.0802
10837W        W26911  14.463  11.981  15.167  0.2120 -0.1985  0.1254
10838W        W26912   9.253   4.566  13.367  0.2728 -0.4241  0.1811
10839W        W26913   8.175  14.191   3.908  0.1874  0.1665  0.1390
10840W        W26914   2.952  11.045  12.248  0.0028  0.0301 -0.0984
10841W        W26915  14.234   0.464  14.814  0.1175 -0.0367  0.3374
10842W        W26916   8.375  13.929  13.532 -0.3068 -0.3808  0.0313
10843W        W26917  11.286   2.326  16.395  0.1491 -0.1313 -0.0773
10844W        W26918  14.991   9.364   5.259 -0.0769 -0.0565  0.1850
10845W        W26919   5.317  14.446   0.196 -0.2392  0.0247  0.1249
10846W        W26920  10.524  10.887  12.329  0.2438  0.1739  0.2175
10847W        W26921  17.097   4.176   1.514 -0.1137  0.1037  0.0226
10848W        W26922   2.294   0.373  15.673 -0.2681 -0.1421  0.2461
10849W        W26923  13.047   8.479   4.175 -0.3106 -0.0927  0.2245
10850W        W26924   2.936   1.968  13.491 -0.4822  0.0673 -0.0880
10851W        W26925  15.478   3.617  12.643 -0.0134  0.0155  0.0147
10852W        W26926  11.385   2.782  13.595  0.0142 -0.0501 -0.0651
10853W        W26927  15.483   7.368   4.926  0.2397  0.5626 -0.0161
10854W        W26928   0.471   5.941  12.800 -0.3482 -0.1243  0.0604
10855W        W26929   5.973  12.003  14.533 -0.0535  0.1971 -0.3239
10856W        W26930   7.925   2.005   5.212 -0.1391 -0.0641 -0.4193
10857W        W26931   5.102   4.497   0.637 -0.2641 -0.1394  0.0382
10858W        W26932   4.295  14.229   0.920  0.0129 -0.1621 -0.1097
10859W        W26933   8.391  10.792   1.982 -0.1035  0.0056  0.0955
10860W        W26934  15.109   6.218   2.942  0.0192 -0.1360 -0.1120
10861W        W26935  11.803   5.810  16.162 -0.3127  0.4461  0.0971
10862W        W26936   0.162   2.246   0.743 -0.0715  0.2586  0.0522
10863W        W26937  12.956   4.985   3.811  0.1604 -0.4885  0.2015
10864W        W26938  11.756   4.707   2.473  0.0960  0.0334  0.1361
10865W        W26939  10.827  16.917   3.122 -0.2433 -0.2275 -0.0909
10866W        W26940  17.726   4.324   4.721  0.1460  0.1696  0.2890
10867W        W26941  11.132  11.563   3.160  0.0073  0.1359 -0.1312
10868W        W26942   8.410   9.386  15.877 -0.1053 -0.0548 -0.0388
10869W        W26943  12.409  12.680  12.526  0.0099  0.0409  0.0116
10870W        W26944  12.158  11.240  14.613 -0.0475 -0.1994  0.0962
10871W        W26945  14.602   6.131  15.065  0.2191 -0.0084  0.1429
10872W        W26946   5.641   4.489   3.601 -0.1257 -0.0667 -0.0938
10873W        W26947  10.233  14.571  15.026 -0.1103 -0.0867 -0.1639
10874W        W26948   4.796  13.327   2.079 -0.0903 -0.1105  0.2246
10875W        W26949  12.866   9.269   3.595  0.0185 -0.0132 -0.1324
10876W        W26950  15.767  16.691  15.764 -0.0051  0.0665  0.2133
10877W        W26951   1.944  17.298   5.045 -0.1598 -0.1814 -0.1545
10878W        W26952   9.730  11.018  13.376  0.1718  0.1876 -0.0859
10879W        W26953   0.684   0.057   0.136  0.1125  0.6220 -0.2654
10880W        W26954  14.051   4.394  15.206 -0.2176  0.2646 -0.0606
10881W        W26955  11.988   0.992  14.191  0.2476  0.0742  0.1253
10882W        W26956   7.342   1.770  12.433  0.1145 -0.0322 -0.0738
10883W        W26957   3.871   3.467   3.700  0.0844 -0.2895 -0.1632
10884W        W26958   4.720  11.610   4.234 -0.2839  0.1493 -0.3297
10885W        W26959  17.132   7.929   4.419 -0.0443 -0.0492 -0.1733
10886W        W26960   4.470   4.753  13.549 -0.1563 -0.1128  0.0922
10887W        W26961   1.778   9.943  15.234 -0.1028  0.0491  0.1726
10888W        W26962  11.272  12.376  15.624 -0.0903 -0.0443  0.0784
10889W        W26963   5.816   3.745   5.106  0.1530  0.0603 -0.0692
10890W        W26964  16.026  17.219   6.042 -0.1697 -0.0844 -0.0583
10891W        W26965   9.015  15.862   0.878 -0.0746  0.1820 -0.2049
10892W        W26966   5.406  10.265  15.452 -0.0684  0.3001  0.1673
10893W        W26967   1.876   9.549  13.946 -0.3229 -0.3437  0.5300
10894W        W26968  16.517  15.980   6.888 -0.0149 -0.0400  0.3468
10895W        W26969   1.834   6.613   5.972  0.0006  0.0012 -0.0369
10896W        W26970   4.953   8.852  11.936 -0.2080  0.0672 -0.1424
10897W        W26971  16.080   9.610  13.476 -0.0436  0.1668  0.2654
10898W        W26972   3.833   3.081  16.258  0.1654 -0.4655 -0.0344
10899W        W26973   2.448   2.496  13.892  0.2705  0.2852 -0.0122
10900W        W26974   7.339   4.301   2.440 -0.1337  0.1913  0.0177
10901W        W26975   3.250  15.126   3.255 -0.0812 -0.3128  0.1120
10902W        W26976   6.783   4.097  12.687 -0.0692  0.1531 -0.0531
10903W        W26977  15.519   8.935   4.054  0.0761 -0.1016  0.0276
10904W        W26978  16.047   3.797  13.619 -0.1979  0.0091  0.0528
10905W        W26979  12.110  14.542   5.648  0.0446 -0.0601 -0.0071
10906W        W26980   8.877   0.834   3.052 -0.0138 -0.1382 -0.3500
10907W        W26981  14.802   4.044  16.833  0.2290 -0.3422  0.1027
10908W        W26982  10.991  12.095  15.981 -0.3124  0.2321 -0.0450
10909W        W26983  12.792  10.279   1.081  0.2442 -0.1844 -0.0398
10910W        W26984  14.028   4.987   4.396 -0.0082  0.2578 -0.2374
10911W        W26985   3.683   1.502   4.067 -0.1885 -0.0130  0.0364
10912W        W26986  11.128  11.229   3.600 -0.4200 -0.2523  0.2143
10913W        W26987   8.372   5.484   3.205  0.0289  0.0879 -0.1961
10914W        W26988   7.424   6.978  13.061 -0.3442  0.0688 -0.1345
10915W        W26989  14.397  12.236  16.652 -0.2107  0.0545 -0.1227
10916W        W26990   6.643  15.792  11.391  0.2208 -0.0288 -0.0508
10917W        W26991  15.069  15.745  16.746  0.2365 -0.2005  0.0315
10918W        W26992  10.687  10.884   5.228 -0.0278  0.3254  0.3307
10919W        W26993  12.992   3.459   2.505 -0.6120 -0.1355  0.1763
10920W        W26994  12.612  17.596   2.322 -0.0693 -0.3599 -0.1453
10921W        W26995   5.894   0.914  12.271 -0.0411 -0.0890  0.1002
10922W        W26996  16.466   2.376   0.780 -0.1229  0.1096  0.0306
10923W        W26997  16.504   9.217   4.845  0.2336 -0.1359  0.1146
10924W        W26998   4.383   2.613  14.495 -0.2416 -0.0728 -0.2136
10925W        W26999   8.942  10.229  13.059  0.2874  0.0598 -0.0432
10926W        W27000  11.157   9.720   5.996  0.1109 -0.0730  0.1222
10927W        W27001   9.405  12.737  11.884  0.1518  0.0434 -0.1986
10928W        W27002   3.177   5.856  11.328  0.0912 -0.2780  0.0925
10929W        W27003   8.171   6.201  15.798  0.0733 -0.0805 -0.0417
10930W        W27004  10.056  12.614  16.288 -0.2789  0.0304 -0.1534
10931W        W27005  15.934  17.031   0.897 -0.0287 -0.2273  0.0872
10932W        W27006   0.745  13.587   0.347 -0.0706  0.4210  0.1320
10933W        W27007   5.244   0.335   3.859  0.0587 -0.3031  0.2220
10934W        W27008   3.874   6.567   3.891 -0.0662 -0.3254 -0.1008
10935W        W27009  12.372   6.294   1.680 -0.2794  0.1416 -0.0094
10936W        W27010  15.760   6.948  12.306 -0.3063  0.3726  0.1218
10937W        W27011   3.892   0.495  14.969  0.1601  0.0758 -0.1193
10938W        W27012   3.944   5.173  15.395 -0.0624  0.0971  0.0434
10939W        W27013  14.394  13.332   5.316  0.0688 -0.2156 -0.3734
10940W        W27014   2.349   4.984   4.019  0.0971  0.3718 -0.0912
10941W        W27015   2.391   0.467   2.468  0.0208 -0.0831 -0.2763
10942W        W27016   4.545   8.675   4.121 -0.3229  0.0921  0.0236
10943W        W27017   4.327   5.219  15.026 -0.0947 -0.1206  0.1969
10944W        W27018   0.591   8.287   0.056 -0.0604  0.0123  0.1033
10945W        W27019  11.415   9.684   3.406  0.1903  0.0021  0.1227
10946W        W27020   0.517   2.498   2.402 -0.0371 -0.2640 -0.0244
10947W        W27021   6.507  15.793   3.781  0.0409 -0.0803  0.1396
10948W        W27022  13.589  17.230   5.071 -0.2331  0.0926 -0.1399
10949W        W27023  14.678   0.868  13.699  0.3024  0.0866 -0.1191
10950W        W27024   4.679  15.554   3.094  0.0385 -0.0771  0.2921
10951W        W27025  14.724   0.796   2.907  0.0535  0.1992  0.0945
10952W        W27026  12.260   9.714   0.465 -0.0179  0.0961 -0.1019
10953W        W27027   9.729  14.229  13.403  0.2050 -0.2188 -0.0410
10954W        W27028  17.355   0.298  16.398 -0.3203  0.0925  0.3128
10955W        W27029   7.893   6.060   0.923  0.0350 -0.0722  0.1716
10956W        W27030   4.176  10.023   2.326  0.1062  0.0270  0.1166
10957W        W27031   9.352   7.490   1.333 -0.0230  0.0326 -0.0560
10958W        W27032  16.315  13.774  16.867 -0.2054 -0.0421  0.0718
10959W        W27033   0.629   8.123   2.684  0.1154 -0.0287 -0.0418
10960W        W27034   8.251   2.358   2.723  0.0596  0.1860 -0.1199
10961W        W27035   8.084  12.072  12.301  0.0058 -0.1017  0.0509
10962W        W27036   4.900   1.154  13.569 -0.1801 -0.2238  0.0070
10963W        W27037  16.565   9.530   4.413 -0.0970  0.0976 -0.1213
10964W        W27038   2.624   2.831   4.009  0.0545  0.2250 -0.1842
10965W        W27039   4.350   6.712  15.184  0.0856 -0.0925  0.1181
10966W        W27040  16.066  16.477  14.315 -0.0909  0.0923  0.3627
10967W        W27041  10.630  15.617  13.166  0.3298  0.4028  0.2778
10968W        W27042   6.938   6.468   3.984  0.0545  0.2819  0.0464
10969W        W27043  16.406  12.487   5.935 -0.0584  0.0377 -0.0601
10970W        W27044   7.922   2.816  12.365  0.6754 -0.0513 -0.2900
10971W        W27045   4.345  10.439   0.790  0.0680 -0.1585  0.4233
10972W        W27046   5.948  10.836   0.311  0.3223 -0.0976  0.1030
10973W        W27047   2.921   9.172   2.648 -0.2809  0.2013  0.1931
10974W        W27048   2.888  16.597  15.872 -0.0962 -0.0994 -0.0914
10975W        W27049   3.905   8.046  13.495 -0.1279  0.0909 -0.2329
10976W        W27050  10.582  12.209   2.385 -0.1225 -0.1631  0.0777
10977W        W27051   9.932   2.202   3.454  0.0796  0.2436  0.2039
10978W        W27052  10.151   2.681  12.465  0.0109  0.1278  0.1292
10979W        W27053   7.375  17.380  13.759 -0.2310 -0.1768  0.1939
10980W        W27054   0.022  11.757  16.359  0.1269 -0.1968 -0.2344
10981W        W27055   7.811   4.183   1.746 -0.0027  0.1388  0.3626
10982W        W27056   0.790  16.311  16.762  0.0221 -0.2169  0.3890
10983W        W27057  13.534   9.894   5.383 -0.1233  0.1741 -0.2589
10984W        W27058  12.785   4.804   0.442  0.2336  0.2805 -0.5121
10985W        W27059  10.646   3.295   4.127  0.1150 -0.0747 -0.1384
10986W        W27060   2.498  12.785  13.224 -0.0280 -0.0756 -0.0682
10987W        W27061   4.919   3.524  16.095  0.0961  0.5248  0.1119
10988W        W27062  17.584  13.374  16.835 -0.1737 -0.2083 -0.1771
10989W        W27063  17.041   3.971  15.799 -0.4405  0.0022 -0.3423
10990W        W27064  14.410  13.915   3.084 -0.1258 -0.0263  0.0199
10991W        W27065  10.888   1.290   4.745 -0.1225  0.0658 -0.1431
10992W        W27066   5.507   5.830   5.272  0.2477 -0.0437 -0.1124
10993W        W27067  13.710  10.381  13.349  0.1292  0.1081  0.3006
10994W        W27068  11.251  10.047   5.523 -0.1296 -0.1543  0.2792
10995W        W27069  15.788   2.796  13.645 -0.1303 -0.0158  0.0027
10996W        W27070  16.424  15.306   1.763  0.1936  0.0251 -0.0380
10997W        W27071   9.504   0.378   5.174 -0.3790 -0.0174 -0.1205
10998W        W27072   3.557  13.116  13.404  0.1620  0.2562 -0.1745
10999W        W27073   8.871   0.893  16.122 -0.2000 -0.1982  0.1436
11000W        W27074   3.439   7.274  11.770  0.0866 -0.0602  0.2256
11001W        W27075  15.817   0.399  15.848  0.0631  0.0088 -0.2612
11002W        W27076   3.458  12.912   3.461  0.1372 -0.2457  0.1197
11003W        W27077   3.233  11.097   3.978 -0.0804 -0.0239  0.3458
11004W        W27078  12.646   1.989  15.599 -0.0739 -0.0246 -0.0989
11005W        W27079   7.734  13.590   2.068 -0.0732  0.0286  0.0787
11006W        W27080   8.128  14.125  15.268 -0.0908  0.0085 -0.2695
11007W        W27081   0.053   1.720  15.425  0.2304 -0.1218  0.2449
11008W        W27082  16.953  10.855  11.000  0.0144 -0.0195 -0.1202
11009W        W27083   3.461   2.331  11.785 -0.1087  0.0489  0.1118
11010W        W27084   1.441   7.982  13.649  0.0288 -0.3334  0.0812
11011W        W27085   1.672  13.629  12.719 -0.1968  0.1533 -0.0385
11012W        W27086   9.897   5.878  16.211  0.1328 -0.2007  0.2779
11013W        W27087   4.704   9.164  15.570  0.1821 -0.1645  0.2837
11014W        W27088  17.132   2.228  16.595  0.2480  0.2363 -0.2492
11015W        W27089  16.079  11.492  14.136 -0.0416  0.1961 -0.0055
11016W        W27090   0.250   8.966  14.306 -0.0540  0.2576 -0.0815
11017W        W27091   8.257   2.003   5.627  0.1224  0.0544 -0.0685
11018W        W27092   7.655   3.231   0.967 -0.3066 -0.1441 -0.0814
11019W        W27093   6.611   7.804   3.369 -0.2397  0.1217 -0.0350
11020W        W27094  13.706   8.875  16.657  0.1088 -0.3073 -0.0115
11021W        W27095  17.029  15.402  12.509  0.1008  0.2921  0.1838
11022W        W27096   0.326   1.992   1.124 -0.0311 -0.1241 -0.0433
11023W        W27097   4.518   5.479  12.882  0.1631  0.0521 -0.1704
11024W        W27098   7.900   2.947  14.497 -0.1695  0.1725 -0.1436
11025W        W27099   4.980  15.748  15.943  0.1873  0.4445  0.0837
11026W        W27100  12.907   2.088  14.218  0.0735 -0.1086 -0.2110
11027W        W27101  11.209   0.213   3.654  0.2112 -0.2717 -0.0716
11028W        W27102  11.827  16.023  13.794 -0.1291  0.1384 -0.2729
11029W        W27103   3.386   8.220  15.888 -0.2445  0.2819 -0.1529
11030W        W27104   0.648   9.284  15.224 -0.2362  0.2393 -0.0294
11031W        W27105   7.220   7.836  13.916  0.0927  0.0061  0.0305
11032W        W27106  11.276   9.488   1.820  0.1748 -0.0540 -0.1181
11033W        W27107  10.738   6.564  13.888  0.2019 -0.1233  0.3014
11034W        W27108  11.970  10.624  15.982 -0.0440  0.1916 -0.2518
11035W        W27109  16.577   9.072   3.812  0.0826 -0.0217 -0.0347
11036W        W27110   0.172   4.572   2.032 -0.0531 -0.2709 -0.1281
11037W        W27111  10.030  15.231  15.708 -0.0289  0.0714  0.1643
11038W        W27112  16.060   0.584   3.790  0.1999  0.3226  0.0746
11039W        W27113   9.642   7.335   0.869 -0.1651  0.0160  0.0674
11040W        W27114   9.382   8.565  14.781  0.1124 -0.0165  0.1175
11041W        W27115  10.395   6.532  15.179  0.1149 -0.1684  0.1745
11042W        W27116   7.951   1.963  15.084  0.2103  0.1582 -0.2176
11043W        W27117  16.236   4.507   2.116  0.0913  0.0942 -0.1595
11044W        W27118   8.821   4.014   1.776  0.2171 -0.3190 -0.3102
11045W        W27119  14.165   6.419  12.872 -0.1467  0.3258  0.1875
11046W        W27120   0.415  16.944   1.784 -0.3332  0.0470  0.4247
11047W        W27121  12.391  17.689   0.797 -0.1349 -0.2582 -0.3174
11048W        W27122  11.951   6.578  13.364  0.0020  0.1425  0.2559
11049W        W27123   9.409   8.196   5.733  0.1205  0.0014  0.0959
11050W        W27124  17.591   6.292   4.365  0.1789 -0.0234  0.0256
11051W        W27125  17.824  16.163  11.329  0.2033  0.1345  0.2315
11052W        W27126   9.080  13.960  14.664 -0.1905  0.2262  0.2492
11053W        W27127   7.100   0.930   0.082 -0.0889 -0.1080 -0.0245
11054W        W27128  10.653   0.041  12.511 -0.0538 -0.4015  0.0489
11055W        W27129  16.532   3.719   3.725  0.2359 -0.0279 -0.0732
11056W        W27130   3.043   6.272  14.662  0.2670  0.2411  0.1503
11057W        W27131   3.293   7.795  13.817  0.2060  0.1039  0.2319
11058W        W27132   8.125  11.866   0.768  0.1554  0.2878 -0.2322
11059W        W27133   6.359  12.371   4.127 -0.1709  0.0978 -0.2184
11060W        W27134   9.730   6.472   5.079  0.2841  0.1965 -0.2478
11061W        W27135  13.394   9.242  16.949 -0.2448  0.4648  0.3818
11062W        W27136   5.836   3.021  11.835 -0.0060 -0.0071  0.1160
11063W        W27137  13.382   5.425   3.164  0.0420 -0.4734 -0.2037
11064W        W27138   1.320  16.086   5.420 -0.1019 -0.0039  0.0367
11065W        W27139   3.952   7.667  15.084 -0.0944  0.0724  0.2229
11066W        W27140   0.722  17.100  16.144  0.0848  0.2533 -0.0169
11067W        W27141   6.670  17.741   4.199 -0.1507 -0.1652 -0.0826
11068W        W27142   7.421   3.509   3.079 -0.0322 -0.0388 -0.1536
11069W        W27143  16.801   3.021   0.181  0.0668 -0.0949 -0.0583
11070W        W27144  10.635   1.379   4.020 -0.1594  0.2064  0.2381
11071W        W27145   5.421  15.010  13.998  0.0276 -0.1474 -0.0346
11072W        W27146   5.036  13.687   5.734  0.0180 -0.0530  0.1922
11073W        W27147  13.148  10.773  13.975  0.1419 -0.0979 -0.0976
11074W        W27148  10.694  13.413  15.861  0.0433 -0.0093  0.0742
11075W        W27149   8.394   6.581  13.438 -0.5890 -0.1040  0.1777
11076W        W27150   0.688  14.191  13.612  0.2547  0.2351  0.1540
11077W        W27151  12.809   1.650   0.005 -0.0343 -0.3122 -0.1816
11078W        W27152   3.765   9.358   1.112  0.1346 -0.1603  0.1061
11079W        W27153  15.862  12.649   4.544  0.2076  0.2694 -0.1670
11080W        W27154   5.406  13.755  14.036  0.1522 -0.0568  0.1232
11081W        W27155  13.184   0.683  16.367 -0.1482  0.1054  0.0804
11082W        W27156   6.053   7.971   4.223 -0.2274 -0.0428 -0.1837
11083W        W27157   5.845   0.502   2.622  0.0528 -0.0660  0.1822
11084W        W27158   1.979  15.639  12.318  0.0051 -0.2066  0.0445
11085W        W27159  11.368   8.890  13.043 -0.1291  0.0255 -0.0504
11086W        W27160  16.414   6.301  14.431  0.4349  0.2931 -0.1257
11087W        W27161   9.828   0.542   2.698  0.2002 -0.0918 -0.0162
11088W        W27162  14.285   8.748   5.538 -0.1173  0.1343 -0.1739
11089W        W27163   9.232   6.551   3.507 -0.2663  0.4856  0.0915
11090W        W27164   4.377   2.061   1.695  0.0452  0.0214  0.1548
11091W        W27165  14.508  12.057  15.832  0.0340  0.0112 -0.2064
11092W        W27166   1.744   1.265  12.803  0.0099 -0.0652 -0.2582
11093W        W27167   2.097  10.462   3.750 -0.0718 -0.1067 -0.1356
11094W        W27168   3.256   0.222   3.515 -0.1496  0.3314 -0.2392
11095W        W27169   1.710   5.084  16.896 -0.0480  0.1161 -0.1406
11096W        W27170  14.547   7.671   1.646 -0.0002 -0.1509  0.4444
11097W        W27171  16.015  10.697   4.500  0.1094  0.3532 -0.0715
11098W        W27172   4.791   0.980  16.344 -0.3112 -0.0313 -0.3746
11099W        W27173  13.840  15.620   0.476 -0.0023 -0.2126 -0.1954
11100W        W27174  15.862   0.844  15.670 -0.2094  0.0390 -0.2920
11101W        W27175   1.767  15.381   2.551  0.0554  0.0009 -0.1991
11102W        W27176   6.352   0.908   4.414  0.1192  0.0607 -0.0036
11103W        W27177   8.621   3.504   5.087  0.1366  0.2503  0.1919
11104W        W27178   8.036  13.844  14.387  0.1164  0.0087 -0.0561
11105W        W27179   3.941   5.521   4.742 -0.1031  0.0025 -0.3097
11106W        W27180  16.038  17.528  14.978 -0.0283 -0.0559 -0.4502
11107W        W27181   7.586   9.068   1.210  0.0034  0.4448 -0.1334
11108W        W27182  11.473   2.850   4.385 -0.1948 -0.3260  0.1614
11109W        W27183  14.544   0.435   0.494  0.3781  0.0308  0.0195
11110W        W27184  10.566   0.052  13.429 -0.3955  0.0236  0.1720
11111W        W27185   1.629  16.357  14.040 -0.0350 -0.2496 -0.1775
11112W        W27186  13.708  12.816   5.562  0.2629 -0.0545  0.0809
11113W        W27187  13.491  14.280  11.788  0.1019  0.0598 -0.0755
11114W        W27188  16.599   3.118   5.592  0.0342 -0.0769  0.2028
11115W        W27189  14.671   1.458   0.690 -0.2025  0.2238 -0.1774
11116W        W27190   4.837  16.667   3.845 -0.1060 -0.0658  0.2980
11117W        W27191   4.122  11.120   1.163  0.2568 -0.0124  0.0496
11118W        W27192   4.063  13.809   0.791  0.0955 -0.3838 -0.0859
11119W        W27193   9.720   5.183   0.253 -0.1715 -0.0385 -0.0941
11120W        W27194   1.798   6.257  13.081  0.0201 -0.1582  0.3664
11121W        W27195   6.556  12.270   4.736 -0.0731 -0.2789  0.1951
11122W        W27196  16.425   0.290  14.516  0.0991 -0.2793 -0.2107
11123W        W27197   6.007   5.144   6.384  0.1822  0.0077 -0.0911
11124W        W27198   8.645  12.480   2.078  0.2034 -0.1331  0.2606
11125W        W27199   5.737  16.534  13.367  0.1311 -0.0704  0.3438
11126W        W27200   9.789   6.232  12.529  0.0211  0.0848  0.0098
11127W        W27201   3.494  13.803  16.831 -0.0289  0.1442 -0.1116
11128W        W27202   2.121   8.604  15.629 -0.0595 -0.1119  0.2794
11129W        W27203   7.796   8.926   0.146  0.0547 -0.0573  0.0584
11130W        W27204  14.885  14.297   1.701 -0.3439  0.2472  0.1427
11131W        W27205  16.998   5.513   1.811 -0.0899  0.2595  0.3209
11132W        W27206   9.813   4.442   0.164 -0.0197 -0.0765  0.0424
11133W        W27207   4.055  11.213   0.196 -0.0643  0.1109  0.0025
11134W        W27208   2.820   3.712   0.059 -0.0234 -0.2199 -0.1203
11135W        W27209   0.392   1.054   1.269 -0.1243  0.3364  0.1477
11136W        W27210  17.172  11.985  12.212 -0.1813 -0.1917 -0.4292
11137W        W27211  12.680   3.978   1.327 -0.0011 -0.0366  0.1784
11138W        W27212  11.656   3.969   1.808  0.1214 -0.1263 -0.2940
11139W        W27213  15.515   4.016   1.042 -0.0210 -0.5071  0.1487
11140W        W27214  15.803   1.935   2.089  0.0393 -0.2285  0.0240
11141W        W27215   1.346   8.412   5.346  0.3697 -0.0422  0.0878
11142W        W27216   7.577   3.747  13.365 -0.1183 -0.0838  0.0210
11143W        W27217   4.518  15.847  15.024  0.2687  0.3224  0.0344
11144W        W27218   3.079   7.421   6.689 -0.3950  0.1564 -0.1819
11145W        W27219   0.582   2.771  13.599 -0.0273 -0.0779  0.1554
11146W        W27220   1.633  11.283   1.165 -0.1403 -0.1375  0.1330
11147W        W27221   7.600  16.596  13.621  0.0645 -0.1212  0.1822
11148W        W27222   5.654   1.900   5.844 -0.3021 -0.0517 -0.1081
11149W        W27223  17.032   5.381   5.129 -0.1472 -0.2314 -0.2326
11150W        W27224   1.419   9.453  13.942  0.0363  0.4849  0.2615
11151W        W27225   8.141  17.286   6.357  0.1118 -0.1461  0.3486
11152W        W27226   2.701  15.239   3.795  0.0889 -0.0213  0.1555
11153W        W27227   1.496   3.341   0.589  0.0919 -0.0821  0.3763
11154W        W27228  11.475   5.750   1.395  0.0766  0.2899 -0.1498
11155W        W27229  16.495  17.352   6.238 -0.1050 -0.1385 -0.4475
11156W        W27230   1.997  16.033   1.787 -0.0285 -0.0600 -0.1849
11157W        W27231   2.700   5.311   6.323 -0.0593  0.2141  0.0738
11158W        W27232   3.340   6.308   2.960  0.0713  0.1957  0.0449
11159W        W27233  15.614   4.899  12.923 -0.0260 -0.2187  0.0195
11160W        W27234  17.522   6.618   6.536  0.1958 -0.3646 -0.0997
11161W        W27235  13.823  16.575  13.703 -0.0354 -0.0118 -0.0343
11162W        W27236   5.479  16.985  16.262  0.2054 -0.0209  0.1480
11163W        W27237  17.685  11.980   0.517 -0.0962 -0.0513  0.2731
11164W        W27238   4.026   5.090   4.983  0.1229 -0.0641 -0.0258
11165W        W27239  13.843  13.885   2.508  0.1198 -0.2800 -0.1002
11166W        W27240   8.172   5.433  12.580  0.0627 -0.0336  0.1023
11167W        W27241  15.438  15.541  13.527  0.1087 -0.0748  0.2871
11168W        W27242   7.586  16.475   1.301 -0.1007 -0.1558 -0.3572
11169W        W27243   7.320   4.718  14.654 -0.1020 -0.1564  0.0543
11170W        W27244   2.024   4.120  13.239 -0.1508 -0.0637 -0.2556
11171W        W27245  15.232  13.550  13.655 -0.5774  0.0404 -0.1399
11172W        W27246   8.788   4.026   1.279  0.0937 -0.2099 -0.0031
11173W        W27247   0.370   5.179   1.746  0.0338 -0.0251  0.1012
11174W        W27248  17.743   6.029   1.695  0.1458  0.1357  0.0089
11175W        W27249   7.178   2.475   3.040 -0.1995  0.1225  0.0925
11176W        W27250  13.480   9.112   2.466 -0.2618  0.0141 -0.0280
11177W        W27251   8.808  17.264  16.878 -0.1092  0.0927 -0.0215
11178W        W27252  12.803  17.640   4.113  0.1073 -0.1788 -0.0582
11179W        W27253   8.624  11.563   5.590  0.0452  0.0162  0.2926
11180W        W27254  12.845   7.532  14.815  0.0899 -0.2734 -0.2365
11181W        W27255   1.015   4.008  16.566 -0.0439 -0.2120  0.2358
11182W        W27256   5.569  14.245  12.243 -0.0368  0.1620 -0.0023
11183W        W27257  10.743   7.859   0.290  0.0480 -0.2559  0.0560
11184W        W27258   7.715  15.042   2.392  0.1441 -0.1269  0.0925
11185W        W27259  12.931  12.127   2.546  0.0584  0.1096 -0.0120
11186W        W27260   0.722   4.359   0.741 -0.2494  0.1927 -0.0695
11187W        W27261   3.758  14.503  13.770 -0.1843  0.0797 -0.1834
11188W        W27262   9.563  17.427  12.618  0.2512  0.1251 -0.1048
11189W        W27263  11.147   6.246   2.462 -0.0793 -0.0892 -0.0465
11190W        W27264  17.637  13.247  15.069  0.1925  0.0809 -0.2096
11191W        W27265  12.888   8.798  12.117  0.0898 -0.0169 -0.0190
11192W        W27266   9.073   4.433   6.119  0.2056 -0.1411  0.0911
11193W        W27267   2.606   3.211   4.577  0.2059  0.2382 -0.3435
11194W        W27268  14.691   2.461  12.104 -0.0513  0.2565  0.0221
11195W        W27269  17.269   0.402   5.116 -0.0728  0.0931  0.1296
11196W        W27270  12.456  10.864  14.506 -0.1284 -0.3253 -0.0449
11197W        W27271  16.840  10.835  14.438  0.1122  0.1460 -0.0632
11198W        W27272  15.204   9.313   0.933  0.1816 -0.1102 -0.1469
11199W        W27273  16.373   0.859  15.668 -0.0548 -0.0036  0.0798
11200W        W27274   6.613   8.089  16.817 -0.0028  0.2034  0.3391
11201W        W27275  12.341   6.820  16.175  0.0156  0.0149 -0.1603
11202W        W27276  16.430  12.536  13.528 -0.2697  0.1610 -0.2194
11203W        W27277   9.893   7.583  12.760 -0.2591 -0.2630 -0.1085
11204W        W27278  16.909  11.433  14.059  0.1684 -0.0378 -0.1612
11205W        W27279  10.614  13.337  13.721 -0.0773 -0.2221  0.0526
11206W        W27280   8.643   9.901   5.804 -0.1993  0.2272 -0.1838
11207W        W27281  13.357  15.234  12.973 -0.0849 -0.0315 -0.0488
11208W        W27282   8.869   5.093   1.140  0.0857 -0.0707 -0.1755
11209W        W27283  10.807   8.619   0.529 -0.0275  0.0510  0.0638
11210W        W27284   1.338   4.232  15.617 -0.2628 -0.0958 -0.1948
11211W        W27285   2.380  14.845   0.973 -0.0616 -0.0557 -0.1173
11212W        W27286  15.700   0.903   1.092 -0.2392  0.0458  0.3721
11213W        W27287  10.798   3.644   2.079 -0.2335  0.0407 -0.0696
11214W        W27288   0.258  12.404  16.048  0.1135  0.2286  0.1004
11215W        W27289  13.829   3.148   4.899  0.3862 -0.0940 -0.2457
11216W        W27290   3.159   5.540  16.000 -0.2241  0.1037 -0.0703
11217W        W27291   5.717   4.779  12.178 -0.0883 -0.1988  0.5060
11218W        W27292  14.223   1.610   0.812  0.1375  0.1660  0.1922
11219W        W27293   0.919  13.564   2.656 -0.0889  0.1178  0.0422
11220W        W27294  12.871  11.816   1.379 -0.1517 -0.0940 -0.1556
11221W        W27295  15.124  14.891   4.381 -0.0238  0.0615  0.0460
11222W        W27296   9.854  16.000   1.050  0.0691  0.2218  0.0859
11223W        W27297   2.761   4.658  13.950 -0.1559 -0.0768 -0.0570
11224W        W27298   6.496  17.605   2.697  0.0842 -0.2559 -0.2271
11225W        W27299  14.139   5.028  13.186 -0.2416  0.1955 -0.1185
11226W        W27300   1.594   0.267   5.048  0.0336  0.0939  0.0950
11227W        W27301  11.196   5.207   0.006 -0.1931  0.0218 -0.1974
11228W        W27302  14.425   2.639  15.923 -0.1345  0.1516  0.0358
11229W        W27303   7.295   7.539   0.971  0.1726 -0.3798 -0.3387
11230W        W27304   2.305   4.950   5.615  0.1030  0.3771  0.2129
11231W        W27305  14.268  17.146  14.527  0.3087 -0.1318  0.0777
11232W        W27306   8.242   4.515   1.603  0.0087  0.0902 -0.3805
11233W        W27307   0.510  13.357  16.895 -0.0112 -0.2245 -0.3238
11234W        W27308  17.160   8.829   6.349  0.1825  0.3372 -0.0039
11235W        W27309   3.517  12.370  14.101 -0.0850 -0.0457  0.1713
11236W        W27310  13.302   3.398  15.907 -0.0633  0.1345  0.3823
11237W        W27311   8.057  10.260  15.343 -0.1743 -0.0242 -0.2516
11238W        W27312   1.062   6.422   1.798  0.3243  0.1328 -0.5066
11239W        W27313  12.289   5.091  16.758  0.2803  0.3309  0.0084
11240W        W27314  15.663  10.089   1.184  0.1965 -0.0327  0.2298
11241W        W27315   0.710  17.375  12.760 -0.0650 -0.2354  0.2388
11242W        W27316   2.475   5.721  13.627 -0.1576  0.1482 -0.0967
11243W        W27317  13.475   5.531   0.305 -0.0841 -0.2471 -0.2507
11244W        W27318  12.365   9.781  14.185 -0.0184  0.2562  0.0765
11245W        W27319   6.828  10.630  12.971  0.0279  0.0379 -0.1146
11246W        W27320  13.186  11.485  16.516 -0.0258 -0.0226 -0.1320
11247W        W27321   3.191   5.073   1.243  0.1782 -0.2609 -0.2036
11248W        W27322  10.700   3.291   1.714 -0.0557 -0.2374  0.1933
11249W        W27323   7.161   1.283  13.876 -0.0880  0.1044 -0.2633
11250W        W27324  16.757   1.089   3.751  0.1249  0.0591 -0.2105
11251W        W27325   6.177  17.670  12.115 -0.0997 -0.1991  0.1997
11252W        W27326   2.409  10.305   1.966 -0.1797 -0.1472 -0.1983
11253W        W27327   7.651  11.540  13.657 -0.1260 -0.2410  0.0234
11254W        W27328  14.321   6.146  15.658 -0.3088  0.1045 -0.1772
11255W        W27329   7.047   0.631   1.635  0.2093 -0.2195 -0.3172
11256W        W27330  13.848   7.967   0.948 -0.1516  0.0665  0.2351
11257W        W27331   3.654  16.428   2.715 -0.3222 -0.2278  0.2182
11258W        W27332   0.265   7.844   0.659 -0.3342  0.0608  0.2765
11259W        W27333  14.814   0.781  14.199  0.0461 -0.1033 -0.0313
11260W        W27334  13.958  14.226  11.582 -0.0418  0.2017 -0.1399
11261W        W27335  13.549  12.131  13.332 -0.0095 -0.0071 -0.0066
11262W        W27336  14.672  11.348  14.259 -0.0301  0.0690 -0.0859
11263W        W27337   2.134  12.612  10.866 -0.1767 -0.1520  0.1913
11264W        W27338   8.899  14.697   5.331 -0.0492 -0.2631  0.1761
11265W        W27339  17.478   9.748  13.197 -0.3244 -0.4002 -0.0491
11266W        W27340   3.058  14.489   5.440  0.1051  0.1073 -0.0459
11267W        W27341   2.204   8.434  13.331  0.1516 -0.0080  0.0519
11268W        W27342   9.733  15.508  12.838  0.1160 -0.0097  0.0881
11269W        W27343   9.472  10.521  13.880  0.0264  0.2823 -0.2330
11270W        W27344   8.223   9.608   5.565  0.1475 -0.0849 -0.0386
11271W        W27345  17.714   3.352  16.396  0.2220 -0.2158 -0.0078
11272W        W27346  12.204  11.057   2.501  0.0812  0.3142 -0.1066
11273W        W27347  10.792   4.539  13.702 -0.0579  0.3024 -0.1530
11274W        W27348  13.953   1.749  16.349 -0.2124  0.0430 -0.1155
11275W        W27349  14.795  14.192  12.886  0.1924  0.2469  0.1082
11276W        W27350  10.193  16.043   1.378 -0.0992 -0.0675 -0.0724
11277W        W27351  15.492   0.859  12.151  0.1167 -0.0097 -0.0384
11278W        W27352  16.563   6.600   3.822  0.0288  0.1304 -0.0825
11279W        W27353  17.433  17.293  10.793  0.2820  0.1265  0.1068
11280W        W27354   2.610   7.403  13.556 -0.0498  0.0032 -0.0280
11281W        W27355  17.808   0.706   0.321 -0.1021 -0.1202 -0.0264
11282W        W27356   5.376   2.255  16.891  0.2653 -0.1069  0.0694
11283W        W27357   4.156   8.147  16.686 -0.0745 -0.1129  0.0405
11284W        W27358  15.502   9.022  11.587 -0.1971 -0.1431  0.0338
11285W        W27359  15.859   5.210  14.233 -0.1756 -0.0528 -0.1487
11286W        W27360   1.445   4.846   1.265  0.1111 -0.1435  0.1868
11287W        W27361  10.366  16.118  14.204  0.1770  0.0002  0.0272
11288W        W27362  16.357  10.730   1.358 -0.3108 -0.3339  0.0281
11289W        W27363   6.411   5.335  11.657  0.1642  0.0022  0.2110
11290W        W27364  17.680   4.551   0.534  0.1080 -0.1958  0.1820
11291W        W27365  12.801  10.477   1.532  0.0655 -0.0366  0.0431
11292W        W27366  15.706   3.551   0.672 -0.1707 -0.1139  0.2317
11293W        W27367   6.264   0.649  16.355  0.0405 -0.0753 -0.1773
11294W        W27368  12.081   9.305  15.397  0.1874 -0.2045  0.0653
11295W        W27369  11.551  12.800  15.808  0.1732 -0.0738  0.2112
11296W        W27370   9.965   1.168   4.914  0.0483  0.2933 -0.1653
11297W        W27371  16.952  12.310   1.348 -0.2304  0.0324  0.0672
11298W        W27372   9.683   3.213   3.640 -0.0559  0.0466  0.0998
11299W        W27373   4.883   5.111  13.069 -0.0206  0.1216 -0.1759
11300W        W27374  11.532   7.570   2.575 -0.0490  0.0617 -0.0800
11301W        W27375   8.367  14.478   3.423 -0.1458  0.3056 -0.1734
11302W        W27376  12.005  11.942   0.598 -0.2074 -0.3217  0.0660
11303W        W27377   8.505  11.331  13.469  0.0028 -0.0751  0.2719
11304W        W27378   3.284   5.239   4.032  0.1419  0.0416  0.0705
11305W        W27379   9.766   7.666   4.192  0.3166 -0.2479 -0.1212
11306W        W27380  16.312   3.125  15.644  0.0801 -0.2273  0.1545
11307W        W27381  17.106   1.223   6.614 -0.0074  0.2234  0.0448
11308W        W27382  10.510   3.907   5.391  0.1544  0.1198 -0.0969
11309W        W27383  15.369   6.918  13.241  0.3813  0.5108 -0.3080
11310W        W27384   8.063  11.482  13.990 -0.1446 -0.2755  0.0254
11311W        W27385  13.361   0.901   2.403 -0.1202 -0.1860 -0.0657
11312W        W27386   4.927   5.548   3.619 -0.1282 -0.0952  0.1204
11313W        W27387   7.775  14.760  14.449  0.0342  0.1143  0.0308
11314W        W27388   8.214   5.559  13.161  0.2839  0.2906  0.1069
11315W        W27389  17.394  15.101  12.358  0.2513  0.1771 -0.0593
11316W        W27390  10.276  14.587  11.972 -0.1561 -0.2976  0.1237
11317W        W27391   9.457   4.384  12.854  0.0439  0.1646  0.3619
11318W        W27392   1.273  12.055   4.793  0.3172  0.0403 -0.0074
11319W        W27393  11.596   8.073  13.552  0.3010  0.1992  0.0268
11320W        W27394  12.302  15.361   6.179  0.4812 -0.0941  0.0364
11321W        W27395   0.559  14.863   3.871  0.0014  0.0583  0.1145
11322W        W27396   4.885   8.050   1.762 -0.2174 -0.0678 -0.2952
11323W        W27397   3.967   0.944   1.417  0.0156 -0.0354  0.1175
11324W        W27398   2.238  14.287   2.168 -0.0337  0.0412 -0.1689
11325W        W27399  11.371   7.340  11.585 -0.0248 -0.0520  0.0028
11326W        W27400  15.795   1.266   0.697  0.0682  0.2120  0.1881
11327W        W27401   3.523  16.463  13.246  0.3207  0.1161 -0.2484
11328W        W27402  13.911   0.161  14.065 -0.1414  0.1473  0.0901
11329W        W27403   4.577  16.532  13.870 -0.2224  0.1206  0.1550
11330W        W27404  12.211   9.412  13.186  0.1850  0.1486 -0.4215
11331W        W27405   6.339   8.469   2.993 -0.1038  0.4466  0.3460
11332W        W27406   1.089   7.223   0.568  0.0155 -0.0308  0.3471
11333W        W27407  17.543  11.812  14.864  0.0260 -0.3729  0.0655
11334W        W27408  13.483   3.005  13.281 -0.4590 -0.2111  0.1512
11335W        W27409   8.353   3.971   1.732  0.1141 -0.0287  0.0758
11336W        W27410  13.826  11.129   2.955 -0.0927  0.2438  0.2637
11337W        W27411   7.062   9.804  16.081 -0.0749  0.0521  0.1726
11338W        W27412  11.603  11.326   1.975  0.0572  0.2585  0.0525
11339W        W27413  13.857   0.340   2.302  0.1898 -0.0881  0.0278
11340W        W27414   5.215  17.252  13.594 -0.2224 -0.0658  0.1857
11341W        W27415  10.733  14.239  13.845 -0.0784 -0.0510  0.0258
11342W        W27416   3.711   5.855  13.530  0.1813 -0.0441 -0.0490
11343W        W27417  10.460  16.006   3.080 -0.0285  0.2918  0.2158
11344W        W27418   3.680   9.168   1.914  0.0126  0.1971 -0.0653
11345W        W27419  10.189  15.340  12.426  0.2271 -0.0266  0.1777
11346W        W27420  11.833  13.507   0.672 -0.1515 -0.1310 -0.3228
11347W        W27421   6.092   5.879   0.795  0.1680 -0.0577 -0.0467
11348W        W27422   0.739  14.419   3.664  0.0196 -0.0457  0.1768
11349W        W27423   0.767   0.564  12.947  0.1270 -0.2665 -0.1592
11350W        W27424  10.140   6.774   1.214  0.1295 -0.0907 -0.1754
11351W        W27425   9.438  15.525   3.847 -0.1002  0.1963  0.0371
11352W        W27426   5.767   5.582   2.035 -0.2138 -0.1838  0.1341
11353W        W27427  11.920  12.415  14.364 -0.0403  0.0649  0.0234
11354W        W27428  16.743  10.054   4.975 -0.0288 -0.2339 -0.3179
11355W        W27429  17.053   1.395  12.432 -0.0243 -0.0964 -0.0392
11356W        W27430  11.496   9.562  15.675 -0.0397  0.1557 -0.0088
11357W        W27431  11.934  16.489  15.238 -0.2073 -0.1158  0.2442
11358W        W27432  17.807  15.078   1.087 -0.2654  0.0188 -0.0295
11359W        W27433   9.383   4.069  14.242  0.1933 -0.2644 -0.1054
11360W        W27434  17.008   4.809   0.175 -0.1716  0.0866  0.0319
11361W        W27435  14.377  10.478   3.683 -0.0365  0.1991  0.1871
11362W        W27436  10.094  10.782  11.754  0.1347 -0.3222  0.1475
11363W        W27437   5.422   9.887  13.518 -0.1522 -0.3588 -0.0861
11364W        W27438   4.965   2.937  14.649  0.0687 -0.0482 -0.0848
11365W        W27439  14.266  13.310   0.784 -0.2162  0.0746 -0.1333
11366W        W27440  13.670   6.230   4.745 -0.2520 -0.0466 -0.1092
11367W        W27441   4.171  12.953   6.142 -0.0186 -0.0904  0.0846
11368W        W27442  15.848  14.260  13.046 -0.0867 -0.1912  0.0991
11369W        W27443   9.346   8.977  15.693 -0.1474  0.1167 -0.0076
11370W        W27444   5.532  16.256   1.178  0.1165  0.1835 -0.2933
11371W        W27445   2.996  12.515   3.340 -0.1251 -0.1870  0.0394
11372W        W27446  15.663  12.907   5.894 -0.2273  0.1831  0.0065
11373W        W27447  12.942   5.435  15.123 -0.2222  0.0951 -0.2321
11374W        W27448  17.193  16.556   5.564  0.2771 -0.0785 -0.1907
11375W        W27449  10.080   8.977  16.434  0.0217  0.1283  0.3774
11376W        W27450   1.234   2.124   0.863  0.0743 -0.1028 -0.2003
11377W        W27451   9.945  14.361   2.180  0.0786 -0.0730  0.3090
11378W        W27452   3.949  17.723  11.410  0.1547  0.4430 -0.0703
11379W        W27453  12.601  12.763   3.159 -0.1331  0.0519 -0.0113
11380W        W27454   1.815   8.144   0.990  0.0182  0.0873 -0.4364
11381W        W27455   6.475   2.958  11.779  0.1026  0.0231  0.0282
11382W        W27456   4.769  11.003  16.682 -0.0023  0.0256  0.0991
11383W        W27457   2.085  15.205   6.218  0.1249  0.2924  0.2232
11384W        W27458   5.000  15.918  16.962 -0.0064 -0.1434  0.0026
11385W        W27459  13.924  14.555  11.972  0.1698  0.0992 -0.3276
11386W        W27460   9.807   0.250   1.709 -0.1628  0.1403 -0.2765
11387W        W27461   6.772   9.412   3.815  0.2989  0.0230 -0.0039
11388W        W27462   2.413  16.346   0.815  0.1177 -0.2421 -0.0812
11389W        W27463  11.836  13.179  12.262  0.1470 -0.1755  0.2381
11390W        W27464   8.343   9.129  11.847 -0.0488  0.0557 -0.0638
11391W        W27465   8.919  15.633  11.256 -0.3703 -0.2126  0.1447
11392W        W27466  14.009   6.100  16.124 -0.0173  0.0553 -0.0110
11393W        W27467  16.111  13.304   2.123  0.1100  0.1226  0.1639
11394W        W27468   0.612   5.741   2.591  0.0578 -0.0636  0.0101
11395W        W27469  11.925   7.392   3.738  0.0508 -0.1362  0.0947
11396W        W27470   8.188   8.698  15.106  0.0007  0.0934 -0.1794
11397W        W27471   8.917  12.152   0.132  0.0327 -0.0872 -0.1429
11398W        W27472  14.224  11.366   1.230 -0.2631 -0.0207  0.0722
11399W        W27473  14.787   6.675  16.430 -0.4166 -0.1692 -0.1021
11400W        W27474  17.547   7.476  13.187  0.1035 -0.1988 -0.0469
11401W        W27475   6.802  14.521  14.253 -0.0215  0.0025  0.0387
11402W        W27476  12.683   1.722  13.849  0.1243 -0.4317  0.2135
11403W        W27477  17.445  12.899   0.006 -0.1959  0.1959  0.1613
11404W        W27478   8.038  16.509  13.881  0.3217 -0.1440 -0.2597
11405W        W27479  12.721  17.010   0.383 -0.1323 -0.0420  0.0288
11406W        W27480  10.489   0.968  14.712  0.4112 -0.0995 -0.0869
11407W        W27481   5.548   7.888  12.896  0.0962 -0.1578 -0.3501
11408W        W27482   8.712  14.585  15.449  0.3529 -0.0847 -0.0849
11409W        W27483  14.192   1.700  12.129 -0.1455 -0.0988 -0.3105
11410W        W27484  17.397  11.893   4.499  0.1292 -0.1098 -0.0324
11411W        W27485   1.586   6.953   0.576 -0.2007 -0.0446  0.1624
11412W        W27486  14.733   5.082  16.247  0.4094  0.0168  0.3006
11413W        W27487   0.080  14.067  15.480 -0.0721  0.1559  0.1007
11414W        W27488   7.578   3.703  12.422 -0.1654  0.0156  0.0469
11415W        W27489  16.868   3.901   1.894 -0.1514 -0.2459 -0.3574
11416W        W27490   2.467   6.275  13.567  0.1751  0.1565  0.0742
11417W        W27491   6.415  12.184   3.606 -0.2622 -0.0319 -0.3213
11418W        W27492  10.635   7.016   3.450  0.1192 -0.3147 -0.0649
11419W        W27493  14.440  15.000   5.689 -0.1719  0.0946 -0.2631
11420W        W27494   7.245   2.623  13.764 -0.2449  0.1641 -0.1863
11421W        W27495   8.970  11.284   1.478  0.1343 -0.2224  0.0852
11422W        W27496   5.413   9.517   4.591  0.1977  0.1279  0.1840
11423W        W27497   9.496  13.111  12.204 -0.0901 -0.0321 -0.0068
11424W        W27498  11.417  10.826  14.538 -0.2217  0.0790  0.1824
11425W        W27499   3.041  10.046  14.892 -0.2414 -0.0849 -0.1772
11426W        W27500   4.624  14.933   3.788  0.0752  0.3216 -0.1957
11427W        W27501   4.316   3.325  16.464  0.0240 -0.2213 -0.0744
11428W        W27502   6.684  13.795  14.745  0.0616 -0.2435  0.2128
11429W        W27503  16.302   2.992  15.170  0.1279  0.0693 -0.1394
11430W        W27504   5.582   5.285  15.417 -0.0940 -0.2671 -0.0939
11431W        W27505   3.010   3.516  13.164  0.0707 -0.1598 -0.0068
11432W        W27506  17.685   3.122  15.850  0.1449  0.4141  0.0106
11433W        W27507   1.374  14.074   1.807 -0.0466 -0.1933 -0.0625
11434W        W27508  11.907   5.251   2.858  0.2191 -0.0921 -0.0265
11435W        W27509   4.917   4.019  16.367 -0.0053 -0.1022  0.3200
11436W        W27510  15.946   6.334   2.421  0.0370 -0.0847  0.2351
11437W        W27511  11.265   5.431  12.516  0.0286 -0.1290  0.0842
11438W        W27512   0.393  15.828  12.549 -0.0247  0.0920 -0.1649
11439W        W27513   4.882   4.116  13.025  0.0391  0.0877  0.2013
11440W        W27514  12.525   9.111  13.637 -0.1432  0.0424  0.2536
11441W        W27515   4.493   8.664   2.301  0.1470 -0.1028 -0.0265
11442W        W27516  11.731   1.247   5.878 -0.1891  0.0241 -0.1169
11443W        W27517   4.368   7.908  14.900 -0.0668 -0.1932 -0.0606
11444W        W27518  12.502   7.313   2.186 -0.0473 -0.2519 -0.1561
11445W        W27519   9.528  12.538   0.095  0.0038 -0.2623 -0.3376
11446W        W27520   0.058  13.524  12.294  0.1783 -0.2407 -0.0236
11447W        W27521   1.889   1.134  15.355  0.0702  0.0959  0.1360
11448W        W27522   1.310   2.255   1.409 -0.0706  0.2068  0.1944
11449W        W27523   5.141   7.724  13.230 -0.1508 -0.0048 -0.0024
11450W        W27524  13.014   3.558   0.341 -0.1381 -0.2056  0.3272
11451W        W27525   2.076   1.920  13.806 -0.1623  0.2189  0.0039
11452W        W27526  10.951  10.898  14.761  0.0966 -0.0021 -0.1252
11453W        W27527   1.915  14.095   0.023 -0.1778 -0.2019 -0.0396
11454W        W27528  14.395   8.787  13.534 -0.3372  0.2306  0.1073
11455W        W27529   0.762  12.698   2.199 -0.0452  0.0283 -0.3927
11456W        W27530   2.658  13.444   3.296  0.1490  0.0797  0.0844
11457W        W27531   4.848  17.525  11.428 -0.1546 -0.1930 -0.1049
11458W        W27532  11.667  10.849   0.315 -0.1449 -0.1143 -0.0905
11459W        W27533   3.666   0.271   4.329  0.2203  0.1341 -0.0662
11460W        W27534   5.810  14.621   2.766 -0.3546 -0.0699 -0.1778
11461W        W27535  11.967  14.574  12.706  0.0255  0.2989  0.0074
11462W        W27536   7.462  14.085  15.859 -0.1995 -0.2760 -0.1517
11463W        W27537   6.344  16.529  15.356 -0.0260  0.0200 -0.2635
11464W        W27538   8.360   6.885   0.851 -0.1856  0.1751  0.0697
11465W        W27539  16.781  12.848  15.380  0.2121  0.0563 -0.3247
11466W        W27540  16.114   7.807   3.343  0.1965  0.0217 -0.0646
11467W        W27541  10.443   4.876  14.046 -0.0641  0.1276 -0.3456
11468W        W27542   4.995  12.393   1.767 -0.0909 -0.0602 -0.1282
11469W        W27543   2.316   7.037  16.392 -0.3999  0.1747 -0.0189
11470W        W27544  17.510   5.507  13.742  0.2237 -0.0587  0.0123
11471W        W27545   2.349  10.125  11.854  0.1014  0.3274 -0.3884
11472W        W27546   6.207  15.544  16.114 -0.1895 -0.3845  0.2043
11473W        W27547   6.632   2.049  14.946  0.1187 -0.0786 -0.0121
11474W        W27548  11.084   5.000   4.717  0.2032 -0.0094 -0.1850
11475W        W27549  11.518   7.585   5.844  0.1824 -0.3090  0.3198
11476W        W27550   5.437   2.664   2.314 -0.4196 -0.1847  0.0435
11477W        W27551   7.577   1.474  14.486 -0.1519 -0.2458 -0.1704
11478W        W27552  13.468  16.820  16.788 -0.0234  0.0249 -0.2352
11479W        W27553  14.226   7.097   1.154 -0.0684  0.0249 -0.1345
11480W        W27554   4.970   3.629   5.324 -0.2201  0.2201 -0.0701
11481W        W27555  17.470   6.764  16.545 -0.0475  0.4398  0.1180
11482W        W27556   7.064   6.239   1.843  0.0743 -0.1965 -0.0704
11483W        W27557   3.828  11.375   5.110 -0.1503  0.1615 -0.0733
11484W        W27558  10.218  13.120  16.403  0.1043 -0.1353 -0.2355
11485W        W27559  15.375   5.827  14.880  0.1396  0.1252 -0.4011
11486W        W27560   5.725  13.177   5.955  0.0100 -0.0307 -0.0620
11487W        W27561   1.878   6.893   0.993 -0.0942  0.1243 -0.1133
11488W        W27562   3.194  15.300  12.666 -0.0401  0.0387  0.2834
11489W        W27563   0.557  17.691  11.389  0.1146  0.0467 -0.2587
11490W        W27564  13.067  12.499   3.000 -0.2357 -0.1861  0.0340
11491W        W27565  13.847  10.749   1.734  0.0948 -0.0687  0.3641
11492W        W27566   3.591   1.386  16.710  0.2647  0.1843  0.0829
11493W        W27567   0.803  14.738   3.246  0.0867 -0.2404 -0.0027
11494W        W27568   2.511  13.910   4.165 -0.1650 -0.1511  0.1646
11495W        W27569   7.139  16.800   1.325  0.1470 -0.0578  0.1477
11496W        W27570  10.989   3.435   1.337 -0.2713 -0.0774  0.0794
11497W        W27571  11.530  17.149   0.671 -0.1371  0.1027 -0.2062
11498W        W27572  10.257  14.467   3.544  0.2111  0.1637  0.0560
11499W        W27573   2.862   8.597   1.924 -0.1544  0.0447  0.1033
11500W        W27574   9.589  13.083   4.223  0.1055 -0.0102  0.0603
11501W        W27575  11.357   4.864   2.261 -0.0247  0.0930 -0.1540
11502W        W27576   1.791  15.031   0.110 -0.1408  0.0135  0.1131
11503W        W27577   9.057   3.025   0.799  0.0302  0.0130  0.0453
11504W        W27578   0.026   2.266  13.912  0.1186  0.0113  0.0957
11505W        W27579  10.098  12.473   3.448 -0.0671 -0.0573 -0.0747
11506W        W27580  14.096   9.000  13.872 -0.0406  0.1796  0.1523
11507W        W27581   6.097  17.014   3.957 -0.0230  0.1027  0.1145
11508W        W27582  12.928  10.497  12.029 -0.2225 -0.1729  0.0536
11509W        W27583  13.649   6.857   1.630 -0.1453 -0.0758 -0.2026
11510W        W27584  17.658   6.348  16.272  0.4330  0.0260 -0.0785
11511W        W27585   6.199   0.001  15.564 -0.0294 -0.0596  0.0064
11512W        W27586  10.805   4.336   0.513 -0.2785 -0.1718  0.0176
11513W        W27587   9.281   7.083  13.234  0.0409  0.1400 -0.1921
11514W        W27588   0.542   0.343   3.454 -0.2368  0.2277 -0.0533
11515W        W27589  11.113   5.412   1.772 -0.4322 -0.1618  0.1982
11516W        W27590   8.042  12.931  12.455  0.0437  0.2412 -0.1170
11517W        W27591   2.652  12.805  11.732 -0.3377 -0.1008 -0.0675
11518W        W27592   6.841   0.916   2.064  0.1833  0.1816  0.0545
11519W        W27593  13.332  10.668   3.329  0.0854 -0.1302  0.0346
11520W        W27594   9.185   0.889   1.464  0.0362  0.1760 -0.1533
11521W        W27595   6.834  10.187  15.196 -0.0905  0.0091  0.2916
11522W        W27596  10.612   9.571   3.038 -0.0022 -0.3438  0.1159
11523W        W27597   0.507  11.060   3.970  0.3118 -0.0558 -0.2862
11524W        W27598   3.154   5.522  10.889 -0.3685  0.3480  0.2293
11525W        W27599   7.303  13.098   0.700 -0.0096 -0.3219  0.0297
11526W        W27600  17.828   9.541  13.592  0.2125  0.2023 -0.0184
11527W        W27601   8.419   2.738   2.367  0.0603  0.0582  0.2047
11528W        W27602  15.071  16.075  15.592  0.1581  0.1541 -0.1317
11529W        W27603  12.117   0.598   2.033 -0.0413 -0.2227  0.0542
11530W        W27604   0.050  12.064  13.577 -0.0656  0.2405  0.0504
11531W        W27605   5.859  13.510  11.813  0.2239  0.4132  0.0820
11532W        W27606   5.611   8.175   1.459 -0.2958 -0.2205  0.1598
11533W        W27607  14.051  16.072   3.785  0.2212 -0.0213 -0.1727
11534W        W27608   9.148  16.981   0.333  0.1859  0.4469 -0.1568
11535W        W27609  13.038  13.603   2.237  0.0226 -0.1974  0.1035
11536W        W27610  15.274   4.431  16.933 -0.0171 -0.2058  0.0211
11537W        W27611  14.630  17.106   4.329  0.0186  0.2547  0.0263
11538W        W27612   5.235   0.772   3.541 -0.1158 -0.0346 -0.2537
11539W        W27613  11.709   1.548  15.519 -0.0589 -0.1013 -0.0830
11540W        W27614   7.882   9.410   0.373 -0.2881 -0.1294  0.2081
11541W        W27615  13.607   1.457   6.474 -0.1180  0.0937  0.1037
11542W        W27616  10.205   0.983   4.376 -0.1321  0.0683 -0.0798
11543W        W27617  17.075   3.034   1.120  0.0123  0.0765 -0.0137
11544W        W27618   7.708   2.724   0.878  0.0963  0.0748  0.0170
11545W        W27619   0.541   6.488   5.498  0.2140  0.1198 -0.0497
11546W        W27620   6.913   8.258   4.995  0.2455 -0.1456 -0.1501
11547W        W27621   0.456   8.706  14.709 -0.1474 -0.1902  0.2274
11548W        W27622  15.275   1.698  13.992  0.1827 -0.1325  0.1039
11549W        W27623  11.903   2.590   4.289  0.0506 -0.1835 -0.2135
11550W        W27624   2.687  10.278  14.473  0.1038 -0.0539 -0.1362
11551W        W27625   0.080   6.826  13.930  0.4059  0.2596  0.0374
11552W        W27626   9.199  15.111  12.265 -0.0926  0.1156  0.2952
11553W        W27627  15.742   4.350   2.248  0.4701 -0.3867 -0.2449
11554W        W27628  11.243   1.003  13.548  0.1430 -0.1931  0.0737
11555W        W27629   4.839  17.831   3.972  0.0790 -0.0470  0.0754
11556W        W27630  14.626   5.095  14.823  0.0080 -0.0329 -0.2660
11557W        W27631  17.728   5.166  11.940 -0.0641  0.3683  0.2075
11558W        W27632   7.811   9.132  16.362  0.1814 -0.0251  0.0465
11559W        W27633  15.316   9.140  15.732  0.0185 -0.0995  0.0142
11560W        W27634   3.948   1.326  15.914  0.5542  0.1382  0.0504
11561W        W27635   8.107  10.124  11.721  0.1481  0.0176  0.1414
11562W        W27636   9.881  13.490  16.272 -0.0328 -0.1087 -0.5749
11563W        W27637  10.171   3.039   1.940 -0.0867 -0.0758  0.1128
11564W        W27638   9.911   8.402   5.686 -0.0082 -0.1558  0.2260
11565W        W27639   9.683   1.520   5.809 -0.0317  0.1917 -0.1924
11566W        W27640  10.725  17.231  14.799  0.0232 -0.0412 -0.3245
11567W        W27641   8.545  16.154   0.950  0.1047 -0.1288  0.1406
11568W        W27642  14.347  16.361   3.451 -0.1915 -0.0911  0.0952
11569W        W27643   6.730   5.077   5.391 -0.0131 -0.0684 -0.1360
11570W        W27644   2.154  14.478   4.579  0.1083 -0.1210 -0.1065
11571W        W27645   9.697   3.019  14.246  0.1819  0.0754 -0.2554
11572W        W27646   8.696  11.273   3.627  0.0134  0.3720 -0.2112
11573W        W27647  12.124   3.951   2.629  0.3208  0.1486 -0.0593
11574W        W27648   4.331  16.221   2.113  0.0264 -0.2497 -0.1103
11575W        W27649  15.394  13.993  13.944 -0.1789 -0.0426  0.2597
11576W        W27650   8.534   6.080   4.206  0.0040  0.2783  0.4351
11577W        W27651  14.671  17.033   2.801 -0.1580  0.1982  0.1600
11578W        W27652  10.132   1.064   0.241 -0.0824 -0.1657  0.0198
11579W        W27653   2.554  17.761  15.683 -0.2681 -0.1072 -0.4912
11580W        W27654  15.826   7.903   0.270  0.1809 -0.1625  0.3720
11581W        W27655   8.094   6.489   5.239 -0.0328 -0.1543  0.0748
11582W        W27656   0.151  15.596  14.443  0.1644 -0.1402 -0.1577
11583W        W27657   4.540   6.965  12.420  0.0732 -0.4974  0.3419
11584W        W27658  16.990   8.130   3.629  0.1366  0.0503 -0.0328
11585W        W27659   7.650  12.015   5.848  0.0268 -0.1071 -0.1578
11586W        W27660   8.367  13.865  12.606  0.2479  0.0002  0.0459
11587W        W27661   6.816   1.891  11.526  0.2032 -0.0439 -0.0026
11588W        W27662   8.063   5.569   6.490  0.2693 -0.1866 -0.2222
11589W        W27663   4.783  17.719   0.176  0.4056 -0.2141 -0.3071
11590W        W27664   7.515   3.209  13.187 -0.0237  0.2602  0.1001
11591W        W27665   2.332  16.783   5.488 -0.0344  0.0189 -0.0337
11592W        W27666  13.158  15.056   4.824 -0.0576  0.1202  0.0242
11593W        W27667  14.695  10.281   4.825  0.0968  0.1001  0.1350
11594W        W27668   1.060   3.454  16.567 -0.1279 -0.2470 -0.4436
11595W        W27669   4.267   5.038   1.596  0.0895  0.1345 -0.0640
11596W        W27670   8.315   7.768   2.891  0.1981 -0.2964  0.2173
11597W        W27671  13.133  13.099   1.045 -0.2350  0.0317 -0.2973
11598W        W27672   1.768  15.087  14.752  0.1865 -0.0122 -0.2196
11599W        W27673   5.015   7.306   4.173 -0.1665  0.2486 -0.1422
11600W        W27674   4.104  16.615  16.540 -0.1379  0.0455  0.4426
11601W        W27675  16.228  15.338   0.590 -0.0736 -0.1551 -0.0124
11602W        W27676   8.723  14.624   1.418  0.0044  0.3307  0.2209
11603W        W27677   2.392   9.434   4.602 -0.0099  0.0196 -0.1726
11604W        W27678  17.245  10.948   3.937 -0.2261 -0.2903 -0.1601
11605W        W27679  10.976   1.650  14.650 -0.0205 -0.1431 -0.5484
11606W        W27680  11.276   9.204   5.381  0.0707  0.1132  0.1077
11607W        W27681  16.394   3.036   6.033  0.0337  0.0867 -0.1247
11608W        W27682  10.994  17.418   1.438 -0.0411 -0.1151 -0.0150
11609W        W27683   7.007   2.278  15.349 -0.2311 -0.0687 -0.0365
11610W        W27684   1.482   4.108   3.522  0.2450 -0.1428 -0.2566
11611W        W27685  12.011   2.317  14.020  0.1925 -0.1661 -0.3319
11612W        W27686   0.004   9.606   5.755 -0.1149 -0.3382  0.0526
11613W        W27687  12.403   5.448   2.975  0.4300 -0.3150 -0.1398
11614W        W27688   1.285  10.332  16.945  0.3667  0.2211  0.0311
11615W        W27689  14.509  11.070   0.982  0.0774 -0.2423  0.3285
11616W        W27690   9.426   2.876   3.135  0.1547  0.2809  0.1691
11617W        W27691  15.422  16.699  15.405  0.1135  0.0005 -0.0843
11618W        W27692  12.254   0.774   2.609  0.0761 -0.0784  0.1751
11619W        W27693   9.233   7.505  12.905  0.1263 -0.0159 -0.1732
11620W        W27694   7.077  10.184   4.275  0.1128 -0.0475  0.2553
11621W        W27695   8.390   6.047  15.214  0.0354 -0.1619 -0.3051
11622W        W27696  10.875   8.601  13.598 -0.1203  0.1619 -0.0135
11623W        W27697   8.919  17.565  13.884 -0.1119  0.3587  0.0491
11624W        W27698   4.437   3.317  12.135  0.1030 -0.0049  0.0986
11625W        W27699   4.450   5.350  15.551  0.0767  0.1290  0.3880
11626W        W27700   9.423   2.563  14.337 -0.3712 -0.1083 -0.0239
11627W        W27701  11.977  14.623  11.758  0.4810 -0.0984  0.0303
11628W        W27702   3.957  17.645  15.544  0.0524 -0.3460 -0.0514
11629W        W27703   5.413  13.882   5.454  0.1764 -0.0599  0.1337
11630W        W27704  13.269   2.064   5.930 -0.1303  0.1527 -0.0123
11631W        W27705  15.321   6.786  14.822  0.4278  0.0659  0.3453
11632W        W27706   5.758  14.863  15.806  0.3607  0.0849 -0.1437
11633W        W27707   6.664  16.992  15.518  0.0891 -0.2866  0.2465
11634W        W27708  17.585  11.720   5.315 -0.2702  0.0348 -0.0490
11635W        W27709   5.206  11.891  16.692  0.0288  0.4495 -0.1518
11636W        W27710   3.283  16.773  14.495  0.0644  0.0192  0.2713
11637W        W27711  12.996  10.998  14.375  0.0899 -0.0619 -0.1378
11638W        W27712   9.264  10.257   4.222  0.0977 -0.0143  0.1767
11639W        W27713   2.981   3.304   0.230 -0.0640 -0.1477  0.0696
11640W        W27714   3.449  12.853  12.412 -0.1063  0.1204 -0.3544
11641W        W27715   4.148  15.471  13.747 -0.1129  0.1938 -0.0582
11642W        W27716   0.047  14.233  11.867  0.2723  0.0037 -0.0698
11643W        W27717  16.274   0.709  16.931 -0.1328  0.1184 -0.0406
11644W        W27718  14.871   7.054   0.860  0.5439  0.2352  0.0866
11645W        W27719  17.532  16.211   0.348  0.2848 -0.2395  0.0014
11646W        W27720   9.322  16.456   5.189  0.1348 -0.3244 -0.1483
11647W        W27721   7.384  14.020   4.804  0.0126 -0.0883 -0.2252
11648W        W27722  10.550   9.005   1.425  0.2297 -0.3080 -0.0964
11649W        W27723   6.681  16.154  13.920  0.0441  0.0287  0.1441
11650W        W27724   3.188  12.259   6.314 -0.0321  0.1469  0.1607
11651W        W27725   6.567  13.351  15.542 -0.4216  0.2456  0.0370
11652W        W27726   9.644   0.264  11.967 -0.0670  0.1596 -0.2169
11653W        W27727  14.938  14.340   2.227 -0.0590  0.0495  0.1545
11654W        W27728   7.854  10.051   5.756  0.0669 -0.0645 -0.0927
11655W        W27729   9.048  15.864   5.947  0.0585  0.1448 -0.0643
11656W        W27730   1.046   6.128   4.365  0.1260 -0.0922  0.0624
11657W        W27731   7.977   0.166  15.137 -0.1433 -0.3346 -0.2921
11658W        W27732  10.137  17.488   0.487 -0.0299 -0.1240 -0.1862
11659W        W27733  14.476   8.287  12.675 -0.2599 -0.2150 -0.2559
11660W        W27734  11.088   0.639   5.537 -0.0102  0.0255  0.2012
11661W        W27735  10.731  12.085   1.096  0.2396 -0.3941 -0.0588
11662W        W27736   5.794  13.649   5.691 -0.1095  0.2076 -0.1354
11663W        W27737   8.436  10.334   2.956 -0.1758  0.5472  0.2854
11664W        W27738   5.642   1.836   0.030  0.1077  0.0791  0.1627
11665W        W27739  14.539   0.941   3.960  0.0779 -0.1188 -0.0904
11666W        W27740   8.516   0.857  15.779  0.0142  0.0056 -0.0530
11667W        W27741  17.628  12.316  15.253  0.0057 -0.0087  0.0850
11668W        W27742  15.685  12.360  13.960  0.0258  0.1024  0.0408
11669W        W27743  10.682  15.202  11.999 -0.0944 -0.0802 -0.3608
11670W        W27744   3.409   6.652  13.322  0.3366  0.0135  0.2110
11671W        W27745   2.830  11.460   2.358  0.0252 -0.3545  0.0336
11672W        W27746  14.908   0.793  15.596  0.0500  0.0133  0.1795
11673W        W27747  12.197   8.364  13.191  0.0673 -0.2870  0.0471
11674W        W27748   8.465  14.598  12.142  0.0581 -0.2582  0.0619
11675W        W27749  14.549   2.857  16.685 -0.1984  0.0541  0.0305
11676W        W27750   4.210   9.143   1.111 -0.1327 -0.0775  0.0847
11677W        W27751   7.147  16.133   3.196 -0.1830  0.1450  0.1372
11678W        W27752   2.042   4.056   4.704 -0.0033  0.2960 -0.1759
11679W        W27753  17.388   4.492   3.752  0.2693  0.0280  0.1922
11680W        W27754   2.404  13.857  16.896  0.0353  0.1118  0.0030
11681W        W27755   8.523   4.992   5.991  0.2317  0.1189 -0.4349
11682W        W27756   8.215  16.794  14.736 -0.1274 -0.0040 -0.1718
11683W        W27757  15.384  14.877   6.409 -0.1947  0.0027 -0.0169
11684W        W27758  17.084  14.468   4.681 -0.2659 -0.0249  0.1025
11685W        W27759   9.892   9.048   0.363 -0.0221 -0.1444 -0.3295
11686W        W27760   5.577  14.574  16.691 -0.1321  0.0493  0.1227
11687W        W27761   4.171   0.594   4.443  0.1764  0.1199 -0.1837
11688W        W27762   5.414  14.471  15.491  0.0210  0.1553  0.3223
11689W        W27763   7.541   6.534   3.487 -0.3776 -0.0678  0.2698
11690W        W27764   4.457   7.541  15.248 -0.0412 -0.0869  0.2006
11691W        W27765  16.754  16.909  16.876  0.0718  0.0041  0.1998
11692W        W27766  16.690  17.228   0.839 -0.0252  0.0594  0.1419
11693W        W27767   3.647   3.209  11.659 -0.0486  0.3033  0.1860
11694W        W27768  16.264  13.430  11.745  0.0747  0.0744 -0.0932
11695W        W27769   5.689   1.638  13.296 -0.1666 -0.2220  0.0838
11696W        W27770   0.545   3.106  14.272  0.0841 -0.1763  0.4125
11697W        W27771  11.727   3.278  15.884 -0.2784 -0.0059 -0.0589
11698W        W27772  13.823  16.155  14.987 -0.4035  0.2839 -0.2490
11699W        W27773   6.096   3.100  16.622  0.0468  0.0748  0.1802
11700W        W27774  16.865   8.462  15.740 -0.1753 -0.0925 -0.0948
11701W        W27775   0.907   7.544   3.770 -0.0733  0.1518  0.0503
11702W        W27776  12.780   0.502   4.423  0.2580  0.1357 -0.0078
11703W        W27777   5.003  11.173  13.177  0.0741 -0.0561  0.0836
11704W        W27778  16.742   1.824  14.473 -0.1701  0.1847  0.2330
11705W        W27779   9.523   7.877   3.656  0.0691  0.1112 -0.2509
11706W        W27780  12.555   2.817   4.272  0.2050 -0.2272  0.4171
11707W        W27781  13.128   1.544   0.926 -0.2148 -0.2063  0.0873
11708W        W27782  14.490   7.414  16.830  0.1000 -0.2567 -0.0210
11709W        W27783  14.732   6.197   3.316  0.0585  0.0829 -0.1012
11710W        W27784   8.833   4.893  13.245 -0.0746 -0.2156  0.0202
11711W        W27785   9.125  14.894   3.976  0.2111  0.2254 -0.0490
11712W        W27786  11.894  16.051  12.836 -0.2248  0.1652  0.0218
11713W        W27787  14.794   3.163  13.564  0.2361 -0.2648 -0.0061
11714W        W27788  13.403   3.702  14.651  0.1696 -0.1896  0.1393
11715W        W27789   9.024   8.697   3.657 -0.0669  0.1536 -0.1430
11716W        W27790   5.443   6.690   4.892 -0.0262 -0.1571 -0.0863
11717W        W27791   5.261  10.090   2.374 -0.0043  0.1254  0.0209
11718W        W27792   5.204   8.451  13.223  0.0928  0.1600  0.0810
11719W        W27793   7.284  15.805   5.123 -0.0936  0.0242 -0.1842
11720W        W27794   1.964   1.200   4.083  0.2836 -0.0807  0.0263
11721W        W27795   4.282   6.901   0.337  0.0439 -0.0441  0.0903
11722W        W27796   2.988   6.421   1.241  0.2189  0.0061 -0.0203
11723W        W27797   5.792   7.253  11.653 -0.0761 -0.0041  0.0844
11724W        W27798   8.121   1.253   3.401 -0.0769 -0.0324 -0.0024
11725W        W27799   4.260  15.236   3.379 -0.0291 -0.0397 -0.1175
11726W        W27800  16.333   6.191  15.714  0.0876 -0.4024  0.1078
11727W        W27801   0.778  13.236   4.313  0.3711  0.1176 -0.0279
11728W        W27802   3.175  16.985  13.175 -0.1889 -0.0062 -0.2730
11729W        W27803   7.000   9.374  15.776  0.0086 -0.1913  0.1154
11730W        W27804   2.573  10.050  14.945 -0.0201  0.0380  0.0236
11731W        W27805  11.281   5.069  12.923  0.0615  0.0382  0.4497
11732W        W27806  13.130  13.890   4.348  0.1575 -0.0399  0.1110
11733W        W27807  15.197  12.716   2.275  0.0615 -0.0898  0.0594
11734W        W27808  16.924   2.234   4.990 -0.0382 -0.1155  0.0417
11735W        W27809   7.563  10.349  15.116 -0.1549  0.2780  0.1417
11736W        W27810  12.361   9.892  16.584 -0.0048 -0.4034 -0.1060
11737W        W27811   2.571  16.357  14.239  0.0141 -0.0212  0.1490
11738W        W27812  15.540   4.570  14.779  0.1520 -0.1365 -0.3844
11739W        W27813   9.143   9.556   3.989 -0.0980 -0.0491  0.0363
11740W        W27814  16.994  14.509   3.360 -0.1656  0.0072  0.0263
11741W        W27815   6.124   1.196  11.537 -0.0142 -0.0095 -0.2023
11742W        W27816  16.547   1.994  15.369  0.2885 -0.1338 -0.3402
11743W        W27817   8.778  15.823  11.680 -0.2360 -0.0837  0.1337
11744W        W27818   6.910   3.953  14.702  0.0031  0.2848 -0.0839
11745W        W27819   2.993  16.722  16.912  0.1417  0.0725 -0.2445
11746W        W27820  10.331  17.203   3.203 -0.3590 -0.1348 -0.0891
11747W        W27821   8.400   0.701   4.710 -0.1076 -0.4700 -0.2052
11748W        W27822  14.794  14.304   2.887  0.1968  0.0321  0.3556
11749W        W27823   0.447   2.696   0.622 -0.1990 -0.2446  0.1089
11750W        W27824  12.084   7.075   0.975  0.2069 -0.0732  0.1899
11751W        W27825  12.319   2.521  16.164  0.3714 -0.1346 -0.0356
11752W        W27826  16.703   3.439  15.756  0.0201 -0.0691  0.0006
11753W        W27827   1.171   1.210   3.714 -0.3341 -0.2838  0.2716
11754W        W27828  10.553   4.455   5.565  0.0248  0.1735 -0.0685
11755W        W27829  15.132   6.421  16.074 -0.4011  0.0387  0.3007
11756W        W27830  11.031  13.422   1.686 -0.0842  0.3862  0.1414
11757W        W27831   6.576   4.243   0.815 -0.0650  0.3231 -0.3150
11758W        W27832  10.550   5.507   1.792 -0.0301 -0.1670  0.2929
11759W        W27833   1.984  12.214  15.311 -0.3169  0.0068 -0.0617
11760W        W27834  13.276   8.522  13.905  0.2121  0.1457 -0.0717
11761W        W27835   8.165  17.838  13.820  0.2029  0.3498 -0.1675
11762W        W27836   9.563  14.283   3.204  0.0023 -0.1809 -0.4382
11763W        W27837  14.035   3.902   2.858  0.2022 -0.1178 -0.2848
11764W        W27838  15.507  11.089  14.442 -0.1151 -0.1794  0.0246
11765W        W27839   8.141  15.705   2.851 -0.2038  0.1456 -0.3108
11766W        W27840   8.142   6.281   4.478 -0.3271  0.2593  0.0647
11767W        W27841  10.383  14.691   1.634 -0.1450  0.1426  0.3500
11768W        W27842   6.504  13.344  16.933 -0.0024  0.3072 -0.2961
11769W        W27843   0.838   4.728   4.273 -0.0356  0.1061  0.2936
11770W        W27844  11.593   8.757  16.763 -0.0592 -0.0820 -0.0927
11771W        W27845   9.888   3.965  16.087  0.0805 -0.2068 -0.1861
11772W        W27846  15.927  11.504  11.783 -0.1153  0.0177  0.4656
11773W        W27847  14.806   7.559   3.928  0.0406  0.2797 -0.1397
11774W        W27848   5.220   8.912   3.671  0.0797  0.0995  0.0834
11775W        W27849  14.894  10.859   3.858  0.2796  0.0496 -0.2405
11776W        W27850   7.827   0.494  13.809  0.0535  0.2709  0.1273
11777W        W27851   4.711   5.543   0.324 -0.0397 -0.2165  0.1493
11778W        W27852   8.929   1.450  16.423 -0.0536 -0.1788  0.0654
11779W        W27853  12.187   2.626   5.598  0.2147 -0.1515  0.1184
11780W        W27854   7.355   9.580  14.443  0.0358  0.0510  0.1916
11781W        W27855   7.327   5.316   5.850 -0.3236  0.0467  0.0457
11782W        W27856   4.242  10.826  15.457 -0.1518 -0.3074 -0.0038
11783W        W27857   4.648  10.822  15.208  0.1500  0.4212  0.0553
11784W        W27858  16.929  10.586  13.108  0.2125  0.0394  0.0283
11785W        W27859  12.930   8.458   0.838  0.0912  0.0697  0.1798
11786W        W27860   6.968  11.087  14.980  0.2745 -0.0126 -0.2801
11787W        W27861  12.117   0.186  16.250  0.0038  0.4035 -0.2805
11788W        W27862  15.034   6.261  14.186  0.0994  0.2940  0.1239
11789W        W27863  17.406  14.720   3.082 -0.0809 -0.2173 -0.1984
11790W        W27864   4.794  12.568  15.562  0.2254  0.3973 -0.2716
11791W        W27865  16.762   4.221  13.099  0.2332 -0.2976  0.0606
11792W        W27866  16.637   9.964   2.911  0.0759  0.1852  0.1267
11793W        W27867  17.529   2.571   2.369 -0.0104  0.5458 -0.0709
11794W        W27868   2.464  14.678  11.837 -0.0252  0.2088  0.0642
11795W        W27869  16.161   8.580   0.236  0.2571  0.3642 -0.0759
11796W        W27870  12.385  10.267   3.425  0.1474  0.0630 -0.0364
11797W        W27871   8.158   2.540  11.586  0.2870 -0.2855  0.0972
11798W        W27872  14.238  12.007   3.940 -0.2240 -0.0433  0.0634
11799W        W27873  16.235  17.718   5.941  0.2842 -0.0014  0.1134
11800W        W27874   4.805   6.054   3.594 -0.4472 -0.3497  0.2370
11801W        W27875   9.873  12.522  11.807  0.0333 -0.1244  0.0956
11802W        W27876   9.596   3.436   3.090  0.3350 -0.2817 -0.0886
11803W        W27877  13.869   6.321  12.463 -0.0000  0.0662 -0.1913
11804W        W27878   0.786   5.139   0.152  0.1535 -0.1710  0.0339
11805W        W27879  10.134   2.318  14.785  0.2686  0.0913  0.3223
11806W        W27880  11.152  13.675  15.898  0.0045 -0.0877  0.0676
11807W        W27881   1.374  16.094   1.000 -0.1252 -0.1086  0.0142
11808W        W27882  12.590   7.683  16.388 -0.0633  0.4082 -0.1860
11809W        W27883   3.016   0.022  15.402 -0.0142  0.1726  0.0128
11810W        W27884   5.830   8.384   2.690  0.2485 -0.2210 -0.5150
11811W        W27885   2.056   8.964   1.256 -0.1169 -0.2480  0.0502
11812W        W27886   6.288   0.910  15.470  0.0261  0.0504 -0.0130
11813W        W27887  11.405  10.809   1.936 -0.0331 -0.0297  0.0230
11814W        W27888  10.939  14.341   4.629 -0.0202  0.0197 -0.0656
11815W        W27889  16.409  11.371   2.417  0.0237  0.0015 -0.0102
11816W        W27890   3.856   8.259   2.743 -0.0223  0.2248  0.0532
11817W        W27891   7.591   6.954   0.023  0.1336  0.1486 -0.0347
11818W        W27892   0.695   5.614   4.385  0.0202 -0.0160  0.1811
11819W        W27893   9.482  16.638   1.802 -0.3144 -0.2282  0.1165
11820W        W27894  11.381  14.152  13.538  0.0080  0.1175 -0.1174
11821W        W27895   0.716  14.568   1.163 -0.0731  0.0247 -0.0273
11822W        W27896   6.289   7.814   1.840 -0.0530  0.0946 -0.1881
11823W        W27897   4.013   0.554  11.993 -0.1148 -0.0022  0.1322
11824W        W27898  14.271  14.563   3.200  0.1312  0.1515  0.2303
11825W        W27899   4.842   3.750  14.307 -0.1181  0.0010 -0.1111
11826W        W27900   9.339   5.853   2.292  0.3012  0.0348  0.2291
11827W        W27901  10.919   4.308   6.044  0.1980  0.0088  0.0101
11828W        W27902   6.665  12.585   1.976 -0.1033 -0.4583 -0.1856
11829W        W27903  12.435  13.686   2.733 -0.1433  0.1395  0.0797
11830W        W27904   1.662   4.598   2.310 -0.0787  0.4563 -0.2337
11831W        W27905  11.415  10.969   3.904 -0.0564  0.3994  0.1551
11832W        W27906  17.275   0.431   5.938  0.2278  0.0871 -0.0726
11833W        W27907  14.162  15.458   5.653 -0.2743  0.1009 -0.0975
11834W        W27908   2.964  12.175   0.536 -0.2706  0.0779  0.1185
11835W        W27909  13.545   1.436  15.319 -0.2404 -0.0384 -0.0560
11836W        W27910  15.113  10.754   0.135 -0.1159  0.1916  0.0424
11837W        W27911   1.332  10.762   0.264  0.1892  0.0893 -0.0723
11838W        W27912   9.335   2.180  16.456  0.1148 -0.1574 -0.0630
11839W        W27913  11.800  10.419   4.119 -0.0198 -0.0385 -0.2131
11840W        W27914  14.458  17.758   0.579 -0.0298 -0.1782 -0.2954
11841W        W27915   7.967  10.381   2.559  0.2788  0.0214 -0.3701
11842W        W27916   7.603  16.576  16.837 -0.1333  0.0638  0.2498
11843W        W27917   4.604   6.250   0.791 -0.0336  0.1470  0.1150
11844W        W27918  14.404  12.008  13.734 -0.0179  0.2644 -0.0639
11845W        W27919  11.457  16.651  15.432 -0.0629  0.2602 -0.1210
11846W        W27920  13.948  17.461  14.313  0.0494  0.0609 -0.1895
11847W        W27921  16.141  10.131   5.090  0.2744  0.0324 -0.0964
11848W        W27922  12.559   9.321   0.250 -0.0055 -0.4475 -0.1973
11849W        W27923  11.097   2.139   2.084  0.0434  0.0693  0.1375
11850W        W27924   9.858   8.923   2.922  0.1026  0.1161  0.2050
11851W        W27925   5.495  11.352  15.623 -0.1708  0.1039  0.1688
11852W        W27926  12.186  17.477  12.170  0.1314 -0.3683  0.4047
11853W        W27927   0.977  17.121   5.238 -0.0207  0.2426  0.1248
11854W        W27928   9.959  14.376  14.379 -0.0324 -0.1099 -0.0420
11855W        W27929  11.501   3.023  16.810  0.3063 -0.0640 -0.1986
11856W        W27930  15.206   7.137   3.294  0.2798  0.0010 -0.1739
11857W        W27931  17.651   6.710   3.697 -0.1363 -0.0482  0.0012
11858W        W27932   0.546   7.786  15.407 -0.2242  0.1424  0.3418
11859W        W27933   5.326   3.719  14.172  0.1438  0.1912 -0.0592
11860W        W27934  15.983   9.321   5.084  0.1420  0.0179 -0.0198
11861W        W27935  16.954   3.306  14.187 -0.1667 -0.0735 -0.0212
11862W        W27936   0.088  16.045   4.791  0.3003  0.3192 -0.2604
11863W        W27937  12.678  15.172  15.150  0.0673  0.1570 -0.1234
11864W        W27938   4.805  12.770   3.747 -0.0892  0.3818  0.0136
11865W        W27939   1.139  16.630   5.170  0.0359 -0.0442  0.0263
11866W        W27940  13.496   8.354   3.952 -0.0118 -0.0919  0.1831
11867W        W27941  13.194   5.590   4.914 -0.0358 -0.0709  0.0146
11868W        W27942   1.033   1.611   3.341 -0.0698 -0.0413 -0.3481
11869W        W27943  10.393   2.452   4.999  0.2986  0.1748 -0.1502
11870W        W27944  10.415   9.938  16.243  0.0512  0.0776 -0.0268
11871W        W27945   6.792   6.197   5.383  0.2818  0.2325 -0.0195
11872W        W27946   1.668   4.290   2.782 -0.1673  0.1374 -0.0782
11873W        W27947  14.911   8.590   1.943 -0.0366  0.0715 -0.1073
11874W        W27948   9.043  16.355  11.707 -0.2019  0.0013 -0.1464
11875W        W27949  15.331   4.780  12.049 -0.3598 -0.1276  0.0670
11876W        W27950  11.181   7.933   4.122 -0.2682  0.0091 -0.2135
11877W        W27951  14.575   5.881   5.375  0.0853 -0.1230  0.3613
11878W        W27952   4.617   7.021  14.869 -0.1275  0.2266  0.0911
11879W        W27953   5.358   5.165   3.464 -0.0932  0.1651 -0.1138
11880W        W27954  15.210  15.613   1.649 -0.1435 -0.0931 -0.0043
11881W        W27955  10.674   4.636  15.983  0.1572  0.0317  0.1582
11882W        W27956   9.316  17.703  11.478  0.0356 -0.2722 -0.0722
11883W        W27957   0.992   5.516  16.051  0.2593 -0.1822 -0.0189
11884W        W27958   4.687   9.472   2.701 -0.0315 -0.1305 -0.0919
11885W        W27959  12.375  16.123  14.943 -0.1041 -0.1227  0.0298
11886W        W27960  16.035   7.454  15.608  0.2173  0.2013  0.0347
11887W        W27961   2.368  16.120   0.355 -0.0671  0.4041 -0.2105
11888W        W27962   8.055  15.183   4.916 -0.4349 -0.1975 -0.0569
11889W        W27963  13.572   4.093  16.932 -0.0061  0.3713  0.1062
11890W        W27964   8.849   0.631  14.877  0.0855 -0.2123  0.0078
11891W        W27965   9.384   9.585   5.544 -0.1510  0.2116 -0.1336
11892W        W27966   5.745   5.731  15.566  0.3712  0.0215  0.1169
11893W        W27967   7.005  17.438  15.327  0.2196 -0.0404  0.3497
11894W        W27968   5.022   5.985   1.013 -0.0248  0.0487  0.3055
11895W        W27969   9.121  11.348  13.756  0.0875 -0.2040 -0.0672
11896W        W27970   4.016  14.625   1.110  0.2963  0.3878  0.0883
11897W        W27971  11.089   2.603   4.638 -0.1288  0.1046 -0.4017
11898W        W27972   3.594  16.903   4.701 -0.0808  0.0366  0.0452
11899W        W27973  17.723   2.897  12.361 -0.0586 -0.2874 -0.3607
11900W        W27974   1.343   3.892   1.884  0.0081 -0.3209 -0.0644
11901W        W27975   4.199  10.785   2.567  0.2636 -0.0102  0.0119
11902W        W27976   7.008  13.844  12.987 -0.1055  0.0875 -0.1736
11903W        W27977  10.300   4.195  15.230 -0.1294  0.1848  0.2242
11904W        W27978  13.139   7.390   4.491 -0.2628 -0.2139 -0.1427
11905W        W27979  16.510  12.793  16.479 -0.0867 -0.2082 -0.0727
11906W        W27980   4.192  13.330   4.126  0.3446 -0.0193  0.2578
11907W        W27981  17.293   4.174   4.335  0.0252  0.1081 -0.0777
11908W        W27982   0.715  16.876   1.138 -0.0012 -0.2210  0.0694
11909W        W27983  15.927  17.276  11.807 -0.0171 -0.1875  0.2189
11910W        W27984  11.308  11.804   4.654  0.1383  0.0125  0.1613
11911W        W27985  15.142   0.549   3.120 -0.2225 -0.2003  0.0183
11912W        W27986   9.607  13.709   1.308 -0.0175  0.1721  0.0003
11913W        W27987   4.682   9.698  12.456 -0.1658 -0.0379  0.2127
11914W        W27988  14.072   2.974   1.726 -0.0891 -0.2489 -0.1318
11915W        W27989   0.049  12.736   3.084  0.0687 -0.3211 -0.1609
11916W        W27990   2.928  14.904   1.729  0.4772  0.1956  0.0025
11917W        W27991   6.442  12.814  13.357 -0.1621 -0.1534  0.3029
11918W        W27992   6.302  16.606  11.598 -0.1725 -0.0746 -0.1618
11919W        W27993  10.881   6.340   4.229 -0.0355 -0.1375 -0.3026
11920W        W27994  14.686   8.734  15.129 -0.1003 -0.2021  0.3505
11921W        W27995   1.244   7.087  12.553 -0.2700 -0.0897 -0.0099
11922W        W27996  10.080   6.340   0.431 -0.0427  0.0411  0.1441
11923W        W27997  16.834   1.692   2.651 -0.1480  0.0503 -0.4274
11924W        W27998   6.648  10.642  14.875 -0.1512 -0.1332 -0.0157
11925W        W27999  15.758  14.676   0.261  0.0773  0.0363  0.3537
11926W        W28000   0.278   8.227  16.629 -0.2343 -0.0520  0.0541
11927W        W28001   8.254  12.603   5.001  0.0097  0.1428 -0.0881
11928W        W28002   0.889  17.538  13.335  0.1528  0.3420  0.2921
11929W        W28003  10.246   1.227  13.633 -0.2495 -0.1360 -0.1829
11930W        W28004   8.790   2.186   0.187  0.2249 -0.2478  0.0549
11931W        W28005  11.059   6.747   1.411 -0.1310  0.2213  0.1345
11932W        W28006  17.365  11.273   2.619  0.1904  0.1066  0.1939
11933W        W28007  12.800  15.209   5.724  0.0405  0.0705 -0.2315
11934W        W28008  15.963   4.692   3.051 -0.2587  0.0201  0.0645
11935W        W28009   0.735  15.470  12.356  0.2891  0.0741  0.1482
11936W        W28010  14.639   3.921   4.107 -0.0174 -0.1285 -0.1419
11937W        W28011   8.178  13.429  13.682 -0.0964  0.1835  0.0124
11938W        W28012  16.133  14.416   3.164 -0.0939 -0.1386  0.2570
11939W        W28013   5.049  13.459  15.999  0.3582  0.5231  0.3301
11940W        W28014   4.004   0.997  13.241  0.1585  0.1450  0.3529
11941W        W28015   3.842  16.209   1.825  0.0253  0.1586 -0.1195
11942W        W28016   4.581  15.952  14.459  0.2752 -0.2771 -0.0640
11943W        W28017  13.704   9.613  15.504  0.1396  0.3957  0.0365
11944W        W28018  16.106  17.770   2.295 -0.1663 -0.0169 -0.0009
11945W        W28019  10.596  15.036  14.886  0.3336 -0.3099  0.0044
11946W        W28020  15.007  16.219  12.645  0.1623 -0.1452 -0.3320
11947W        W28021   7.819  17.562   2.209  0.1372 -0.0507  0.1918
11948W        W28022  15.295   9.341  13.927  0.2516  0.0843  0.1577
11949W        W28023   9.222  16.028   1.762  0.1722  0.0122 -0.3167
11950W        W28024  16.520   3.887   2.362 -0.2369 -0.2930  0.2222
11951W        W28025   7.100   1.509   2.561  0.2128  0.1454 -0.0451
11952W        W28026  13.703   3.842  12.384 -0.3085 -0.0700 -0.2480
11953W        W28027  12.804   9.250  15.484 -0.1159 -0.1276 -0.4220
11954W        W28028   4.909  12.675  12.229  0.3556  0.1608  0.1788
11955W        W28029   3.131   0.300  12.623 -0.1454  0.3215 -0.0989
11956W        W28030   9.192   5.630  12.998  0.1241  0.3329 -0.0901
11957W        W28031   7.501   2.661  12.017 -0.0268  0.1735  0.1279
11958W        W28032   6.867   2.968   2.639 -0.0645 -0.0880 -0.0976
11959W        W28033   6.545  10.096   3.955  0.2004  0.2284  0.0625
11960W        W28034  15.960   4.798  13.318  0.1092 -0.2275  0.1724
11961W        W28035   4.428   1.970  16.435  0.2719  0.0619 -0.0218
11962W        W28036   0.491   8.716  13.440 -0.0732 -0.3417 -0.1103
11963W        W28037   7.789   4.856  14.508 -0.2460  0.1921 -0.0790
11964W        W28038   5.793   9.296   2.150  0.1824  0.0175 -0.0372
11965W        W28039   0.003  11.954  11.455  0.0025  0.1314  0.1686
11966W        W28040  14.196   4.273   0.976  0.1035  0.2372  0.1293
11967W        W28041   5.723  11.538   2.854  0.1202  0.1922  0.1686
11968W        W28042   3.443  10.099  14.564 -0.0646  0.3602  0.1587
11969W        W28043   6.950   4.400  14.921 -0.2472  0.0402 -0.0853
11970W        W28044   3.776   5.492   5.228  0.1523  0.0405  0.1436
11971W        W28045   0.308   4.072  12.433 -0.4743  0.0570 -0.2577
11972W        W28046   8.296   1.342  12.075  0.1148  0.2079  0.1599
11973W        W28047   5.870   9.243   5.337  0.0006  0.0832 -0.1396
11974W        W28048   9.205  14.790   3.140 -0.2507  0.0408  0.0283
11975W        W28049  12.720   9.707  16.873 -0.1147 -0.1799 -0.0870
11976W        W28050   4.766   8.056   0.490 -0.1398  0.0928  0.3851
11977W        W28051  13.104   0.195  16.370  0.1363 -0.3620 -0.1176
11978W        W28052   9.485  12.006  12.902 -0.1847  0.0993  0.1447
11979W        W28053  11.930  14.334  12.262 -0.0637  0.1209  0.0831
11980W        W28054   8.829   2.587  12.819 -0.1584 -0.1853 -0.0740
11981W        W28055   2.611   8.107   4.108 -0.1620 -0.0587 -0.2810
11982W        W28056  14.297  15.186  15.669 -0.0182 -0.0433 -0.1838
11983W        W28057  10.232   0.180   4.978  0.2867 -0.1811  0.0613
11984W        W28058   3.590   3.486  12.566 -0.1728 -0.0429 -0.2151
11985W        W28059   8.023  13.198  13.251  0.0915 -0.1137 -0.3319
11986W        W28060  15.263  17.737   0.233  0.0167  0.1672  0.0760
11987W        W28061  16.322  15.365   3.959 -0.2475  0.0462 -0.0184
11988W        W28062   1.327  10.900   2.138  0.0072  0.0390  0.2570
11989W        W28063   9.439   9.622   3.537  0.2139 -0.2025  0.1836
11990W        W28064  12.198  17.470  14.322  0.0525 -0.1209 -0.0517
11991W        W28065   7.250   9.715   2.368  0.1185  0.0982  0.4133
11992W        W28066   7.109   9.089   3.537  0.1840 -0.0560  0.4181
11993W        W28067   0.303  13.927   3.843 -0.0861  0.0215  0.2585
11994W        W28068  10.705  11.998   0.617 -0.3226  0.1269 -0.0749
11995W        W28069  11.087   5.594  16.263  0.1803 -0.1879  0.0129
11996W        W28070  16.752   6.455  11.972  0.4512 -0.0183  0.1180
11997W        W28071   5.640  12.290   1.586 -0.0031  0.2108  0.0435
11998W        W28072   2.661   7.279   2.347  0.0227  0.0446 -0.0765
11999W        W28073  17.333  16.435   1.577 -0.0497 -0.2609 -0.2544
12000W        W28074  10.440   8.302   0.413  0.0348  0.1713  0.2051
12001W        W28075   6.958   0.045  16.628 -0.1128 -0.2337 -0.0563
12002W        W28076  13.428   4.601  14.602 -0.0756 -0.0028  0.0071
12003W        W28077   4.694  13.791   2.263  0.2038 -0.0609 -0.0596
12004W        W28078   7.938  11.248  14.463  0.0288  0.0716  0.1525
12005W        W28079   0.232  13.148   3.388 -0.2099  0.0760 -0.0966
12006W        W28080  13.393  17.231   2.417  0.1168 -0.2820 -0.1639
12007W        W28081  10.744   9.385   2.548 -0.2592  0.0140  0.5126
12008W        W28082   7.992   1.542  14.225  0.0922  0.2174 -0.3140
12009W        W28083   4.282  11.827  13.792  0.0455 -0.2231  0.2186
12010W        W28084   8.862  15.571  13.872 -0.2850  0.2376  0.1176
12011W        W28085   5.443   5.327   4.693 -0.1939  0.3622 -0.0304
12012W        W28086  14.736  14.950  16.207  0.0083 -0.1832 -0.1650
12013W        W28087  13.129   8.362  13.093 -0.3422 -0.0996 -0.1855
12014W        W28088  16.004  13.634   5.719  0.1152 -0.2228 -0.1758
12015W        W28089   3.565   3.628   3.203 -0.0120 -0.2000 -0.1205
12016W        W28090   7.322   4.538  14.180 -0.1286  0.1754 -0.1927
12017W        W28091   3.020  12.141  14.525 -0.1770 -0.1289  0.2558
12018W        W28092   4.390  17.650  12.646 -0.1307 -0.0564 -0.4837
12019W        W28093  14.861   1.041   4.344  0.1441  0.1318  0.0226
12020W        W28094  15.301  12.912   3.662 -0.1331  0.1528  0.1381
12021W        W28095  12.466  11.766  12.906 -0.5090 -0.2641  0.3627
12022W        W28096  11.431   2.809  15.937 -0.0672  0.0380 -0.1787
12023W        W28097   5.225  15.106   4.865  0.1224 -0.0426  0.2889
12024W        W28098  13.133   1.975  16.807 -0.3049 -0.0393  0.2858
12025W        W28099   0.326  17.802   1.314  0.1531 -0.0460  0.1932
12026W        W28100  12.582  15.067  15.608 -0.1541  0.1275  0.0890
12027W        W28101   8.558   4.328  13.810 -0.1241  0.2053 -0.1779
12028W        W28102   2.115  13.594  15.773 -0.2287 -0.4095  0.0720
12029W        W28103  14.286   3.704  16.818 -0.1444 -0.0351 -0.0211
12030W        W28104   0.058   7.241  14.152 -0.0189 -0.3133 -0.0012
12031W        W28105   5.505  16.237   0.521 -0.1047  0.0883  0.0782
12032W        W28106  10.038   8.036   4.957 -0.1162 -0.1358  0.1775
12033W        W28107  11.782   0.837   2.461 -0.1202 -0.0786  0.1028
12034W        W28108  12.141   6.965  11.856  0.0094 -0.1031 -0.1594
12035W        W28109   3.528   7.831  12.468  0.2756  0.0210 -0.2308
12036W        W28110  17.029  14.202   5.061  0.1623 -0.0614 -0.3647
12037W        W28111   9.118  11.273   4.487 -0.2094 -0.1261 -0.3748
12038W        W28112  10.183  13.280  15.944 -0.1487 -0.1540  0.3818
12039W        W28113  17.188  10.456   3.600  0.0271  0.3045  0.2118
12040W        W28114  16.120   0.970   0.475 -0.0704 -0.0483  0.0046
12041W        W28115  17.225  16.752   0.331 -0.0237  0.2701 -0.2211
12042W        W28116  15.804   6.719  11.857 -0.2245  0.0366 -0.1109
12043W        W28117   3.569  16.556  11.121 -0.2299 -0.0961  0.1752
12044W        W28118  14.921  15.066  15.240 -0.1378  0.1499 -0.0197
12045W        W28119   0.657   6.596   1.561 -0.2868  0.0816 -0.0903
12046W        W28120  12.370   6.834  12.379  0.1195 -0.0404  0.1849
12047W        W28121   0.087   0.235  13.415  0.1026 -0.0235 -0.0455
12048W        W28122   0.947   8.664  14.463 -0.0103 -0.1024  0.2564
12049W        W28123   2.423  11.312   2.696 -0.0744 -0.4072 -0.1115
12050W        W28124  12.285   6.337  13.625 -0.3445 -0.1430 -0.0184
12051W        W28125  14.968  11.643   3.464  0.1906  0.2428  0.0742
12052W        W28126  17.071  15.695   0.272 -0.2158  0.1176  0.0874
12053W        W28127   4.141   4.041   4.355  0.0477 -0.0916 -0.1657
12054W        W28128   2.568  12.700   3.668 -0.1964 -0.0560  0.0584
12055W        W28129  17.297   4.026   0.057  0.2568  0.1994 -0.2906
12056W        W28130  11.147   9.080   0.691 -0.0682  0.1123  0.2509
12057W        W28131   2.248   3.633  11.908  0.0598 -0.0577  0.4383
12058W        W28132  16.464   7.183  15.540 -0.3652 -0.0042 -0.0889
12059W        W28133  16.832  10.183  16.376  0.1240 -0.1257 -0.0694
12060W        W28134  17.032   9.075   0.959 -0.2157 -0.1072 -0.1099
12061W        W28135  11.953   2.927  12.793  0.0415  0.1752  0.0085
12062W        W28136   8.587   6.136   3.173 -0.0546 -0.2507 -0.0594
12063W        W28137   6.914  11.912   0.903  0.0753 -0.3222  0.0369
12064W        W28138   4.463   5.690   2.759 -0.0711 -0.1459 -0.5808
12065W        W28139   3.223  17.729  12.255 -0.2599 -0.0974  0.1229
12066W        W28140  12.310  13.171  14.848  0.0201  0.1602  0.1012
12067W        W28141  10.160   1.351   0.656  0.0307  0.2168 -0.2269
12068W        W28142   1.835  12.027  15.810 -0.4530  0.0677 -0.2975
12069W        W28143  16.658  11.691  16.908  0.1331 -0.0928 -0.3195
12070W        W28144  17.431   5.418   5.618  0.1087  0.2129 -0.2297
12071W        W28145  16.878  16.046  11.645 -0.0832 -0.4066  0.1407
12072W        W28146   2.347   4.467   4.870 -0.1388 -0.1152 -0.0397
12073W        W28147   8.100   0.660   2.566  0.2059 -0.2441 -0.1950
12074W        W28148  12.481   6.259   5.050  0.0218 -0.3368  0.1274
12075W        W28149  12.240   1.331   5.292  0.2765  0.1612 -0.1126
12076W        W28150  12.506   8.365   2.029  0.3135  0.0565 -0.1659
12077W        W28151   0.599  10.024   4.262  0.0759  0.2244 -0.1378
12078W        W28152  16.057  11.668   2.226  0.0836 -0.2533  0.0870
12079W        W28153  10.955   9.418   3.397 -0.2845 -0.0386  0.3449
12080W        W28154   1.818   2.816   2.497  0.0062  0.0371 -0.2279
12081W        W28155   5.725  11.110   4.455 -0.1074 -0.3001  0.0275
12082W        W28156  15.923  11.417  16.303  0.3653 -0.3049  0.0834
12083W        W28157  13.535  13.711   5.151  0.1808 -0.1238 -0.1649
12084W        W28158  13.592   5.197   2.374 -0.1464  0.3040  0.1906
12085W        W28159   6.758   7.120   3.498  0.0618  0.0288  0.0976
12086W        W28160   4.250  13.987  11.894  0.3125 -0.0805 -0.0342
12087W        W28161   8.610  15.625   5.990 -0.4445  0.2729  0.0779
12088W        W28162   8.240   6.426  12.997 -0.0928 -0.3499  0.0033
12089W        W28163  16.204  14.833  13.198 -0.1120  0.1486  0.2882
12090W        W28164   3.702   7.965  16.631  0.0515  0.3216 -0.0259
12091W        W28165  15.284  11.624  13.778 -0.0441 -0.1734 -0.1658
12092W        W28166   5.325   8.171  12.442  0.2351 -0.0707  0.0895
12093W        W28167  15.157   2.221  14.607  0.3487 -0.2924 -0.2259
12094W        W28168   4.173  16.846   0.408  0.0508  0.1255 -0.2213
12095W        W28169   1.102   0.548  15.408  0.0799 -0.0099 -0.1454
12096W        W28170   6.119   7.090  13.502 -0.1205  0.0313 -0.1622
12097W        W28171   1.003  15.328   5.471  0.2648  0.3067  0.1621
12098W        W28172  13.105   2.650   5.434  0.0182 -0.1208 -0.1850
12099W        W28173   5.901  17.646  12.877  0.0434 -0.0200  0.1880
12100W        W28174   2.826   7.650   3.964 -0.1015 -0.0808 -0.0154
12101W        W28175   0.987  15.881   2.092 -0.1359 -0.0983 -0.0773
12102W        W28176   4.671   0.730  14.445 -0.0503  0.1434  0.0897
12103W        W28177   2.079  10.227   0.607 -0.0552 -0.1971  0.0752
12104W        W28178   4.578  14.157  15.082 -0.0488 -0.0245  0.0224
12105W        W28179   2.633  17.023  15.852 -0.4476 -0.1492  0.1793
12106W        W28180  17.310  13.813   4.871  0.0849  0.3263  0.2309
12107W        W28181   0.753   6.331  16.513  0.1298 -0.0859  0.0543
12108W        W28182  13.379   6.433  16.663  0.2095  0.2436 -0.3575
12109W        W28183   6.595  17.124  16.519  0.1302 -0.1609 -0.2604
12110W        W28184   2.098  17.194  13.131 -0.2756 -0.0896 -0.2129
12111W        W28185  13.545  16.044   2.466  0.2766 -0.1839  0.1342
12112W        W28186   2.774   3.088  12.817 -0.0369  0.0845 -0.0305
12113W        W28187  16.016   2.138  12.889  0.0605  0.2561  0.1293
12114W        W28188   4.501  17.303   5.535  0.1318 -0.1220 -0.1414
12115W        W28189  14.665   7.731   4.363  0.2414 -0.1566 -0.1366
12116W        W28190   1.979   1.630  11.934  0.0875  0.4225 -0.1240
12117W        W28191  11.075  11.253   1.906 -0.2562  0.0242 -0.0144
12118W        W28192   2.844   3.045   1.666  0.0980  0.0803 -0.0813
12119W        W28193  11.567  15.430  14.117 -0.1123  0.1414  0.0441
12120W        W28194  12.894  14.336   0.241  0.4061  0.0990  0.0032
12121W        W28195   6.212  10.129  16.321  0.1374 -0.3580  0.2894
12122W        W28196   1.320   2.881   0.405 -0.0988 -0.3417 -0.1521
12123W        W28197   9.050   9.114   2.318  0.1512  0.1031 -0.2905
12124W        W28198   2.493   3.525   0.999 -0.1038  0.0367 -0.0877
12125W        W28199   2.413  11.819   1.609  0.2985  0.3810 -0.0234
12126W        W28200  10.429   2.563  14.450 -0.0954  0.2824  0.1767
12127W        W28201   1.929  16.059  11.956  0.0332 -0.2493 -0.0621
12128W        W28202   3.727   0.246   2.245 -0.1608 -0.0138 -0.2258
12129W        W28203  15.588  13.727  15.591  0.1060 -0.3100 -0.1364
12130W        W28204  14.097  15.288   4.801  0.1365  0.1403  0.3257
12131W        W28205  12.474  15.194   0.050  0.0855  0.1879 -0.0798
12132W        W28206  16.864  15.676   1.941 -0.3565  0.1721 -0.2036
12133W        W28207  12.145   1.830  15.534 -0.1428 -0.2538 -0.0152
12134W        W28208  10.132   9.481   3.156  0.0413 -0.5106 -0.2757
12135W        W28209  17.745  13.161   1.634 -0.0464 -0.0343  0.0032
12136W        W28210   1.600   2.379   3.545  0.0181  0.0920 -0.0865
12137W        W28211  14.910   8.211  12.888  0.1364 -0.1732 -0.1023
12138W        W28212  16.930  13.200  15.830  0.0071 -0.2803 -0.1283
12139W        W28213   7.892  10.688  15.264  0.1705  0.0895  0.2669
12140W        W28214   5.397   7.289  14.194 -0.2063  0.0397  0.2541
12141W        W28215  12.231   9.939  13.326 -0.1197  0.3664 -0.0954
12142W        W28216  12.799   7.524  14.168  0.1533  0.0290 -0.2102
12143W        W28217   7.458   1.634  16.011 -0.1557 -0.0948  0.1303
12144W        W28218   2.656   4.689  11.891  0.1293  0.2260  0.4311
12145W        W28219   5.138   3.137  15.656  0.1950  0.2109 -0.0132
12146W        W28220   6.338  11.312   3.884 -0.1688  0.1172  0.0007
12147W        W28221  13.611  14.437  16.667 -0.1281 -0.2417 -0.1520
12148W        W28222  16.945  15.887   1.126  0.1054 -0.2217 -0.2233
12149W        W28223  10.419   0.338  14.836  0.3942 -0.0402  0.1439
12150W        W28224  17.221   7.477   6.359  0.0872 -0.4144 -0.0459
12151W        W28225   2.505   7.219  11.673 -0.1164 -0.0139 -0.2361
12152W        W28226  13.466   9.678   4.837 -0.5386  0.0767 -0.2009
12153W        W28227   0.080  11.096   0.796 -0.2308 -0.1852  0.0446
12154W        W28228   6.470   5.854   5.560  0.0770 -0.0641 -0.2629
12155W        W28229  17.694   9.834   5.075 -0.2782 -0.0539  0.1425
12156W        W28230  14.075  14.369   4.948 -0.0295  0.0188 -0.0237
12157W        W28231   6.146   1.171  12.633  0.0055  0.0172  0.1715
12158W        W28232   4.193  17.111   2.149  0.1861  0.0820  0.1950
12159W        W28233  15.250   4.350  15.823 -0.0244  0.3969  0.1335
12160W        W28234  10.528  15.816  13.721  0.0261 -0.0860 -0.0020
12161W        W28235   5.840   5.961  12.493 -0.1685  0.1779 -0.2154
12162W        W28236   4.624  16.137   0.236  0.0977 -0.1372  0.0278
12163W        W28237  10.936   0.390  16.165 -0.1003 -0.1449  0.2901
12164W        W28238  13.969   9.159   0.122  0.1261 -0.1924  0.3032
12165W        W28239   3.094  15.496   3.985 -0.1650 -0.2192  0.1738
12166W        W28240   1.078   0.590  14.856 -0.2623  0.0155 -0.2691
12167W        W28241   7.343   4.898   1.796  0.5413  0.0368 -0.2900
12168W        W28242   1.236   1.626   4.485  0.0356  0.2233 -0.1174
12169W        W28243  16.708  14.706  12.823 -0.3176 -0.0121  0.0073
12170W        W28244   5.738   0.070   1.717 -0.1086 -0.1063  0.3245
12171W        W28245  16.633   1.007   0.428  0.1723  0.1736 -0.0143
12172W        W28246   1.008  14.040  16.414 -0.0553 -0.1470 -0.3533
12173W        W28247   0.909   0.850  11.658 -0.0351  0.0367  0.0124
12174W        W28248   7.065   0.712   3.583 -0.4480 -0.0043  0.0667
12175W        W28249  15.173   2.677  11.920  0.1088  0.1227 -0.1207
12176W        W28250  16.689  12.712   5.568  0.0394 -0.1229 -0.2422
12177W        W28251   4.800   5.775  11.974  0.0464  0.0853 -0.3973
12178W        W28252   1.101  10.868  12.486  0.0319  0.2450  0.2170
12179W        W28253   1.831  17.434   0.416  0.0162 -0.1889  0.2796
12180W        W28254   4.350   2.040   4.430  0.1092  0.3410 -0.2587
12181W        W28255  15.991   3.509   0.225  0.2553 -0.2527  0.2508
12182W        W28256  12.389  10.483   5.349  0.0838 -0.1357 -0.0430
12183W        W28257  13.405  14.912   1.016 -0.1592 -0.0263 -0.1333
12184W        W28258  13.108  14.903   1.413 -0.3351  0.0956 -0.1921
12185W        W28259   5.281  10.529   3.326  0.1161 -0.1336  0.0329
12186W        W28260   3.311  11.216   0.571  0.2729  0.3122  0.0780
12187W        W28261   3.055  14.531   2.972 -0.0011  0.0609  0.1121
12188W        W28262   6.845   1.047  16.528  0.0019 -0.1076 -0.1063
12189W        W28263  11.268  14.657   1.494 -0.0758 -0.2345  0.0483
12190W        W28264   9.164   0.348   3.412 -0.4501 -0.0441  0.0590
12191W        W28265  16.428  11.949  15.758  0.1663 -0.0286  0.1327
12192W        W28266  15.614  15.497   3.809  0.0733 -0.3450 -0.1791
12193W        W28267  15.433   3.472   0.131  0.1842 -0.1253  0.1770
12194W        W28268  13.242   7.211   0.253  0.0423 -0.1197  0.0580
12195W        W28269   7.243   7.468   0.044  0.3195 -0.0362 -0.2222
12196W        W28270   7.749  16.449   0.381  0.0778  0.0140 -0.1038
12197W        W28271  14.038   6.823   0.770 -0.1391  0.0934  0.0948
12198W        W28272   6.546   9.484  13.045 -0.1588  0.1806 -0.1509
12199W        W28273   8.844  15.233   3.777  0.1594 -0.1904 -0.1119
12200W        W28274   4.137   8.239  13.035 -0.1455  0.1448 -0.1700
12201W        W28275  15.325  15.201  15.690 -0.1602 -0.0774  0.0680
12202W        W28276   0.083  16.472  14.357 -0.2754 -0.0586 -0.2346
12203W        W28277   8.563   1.015  12.828  0.1258  0.0715 -0.0501
12204W        W28278  13.780  14.344   3.806  0.1297  0.1635 -0.1702
12205W        W28279  12.995   7.498  12.757 -0.2499  0.1508  0.1762
12206W        W28280  12.831  15.313   1.402 -0.1280  0.1271  0.0438
12207W        W28281   9.446   2.197   3.594  0.0223  0.6994  0.0105
12208W        W28282   6.095   6.479  15.087 -0.1932 -0.3399  0.0344
12209W        W28283   4.293   6.544   2.535 -0.1541 -0.1488  0.0629
12210W        W28284   0.933  13.553   3.975  0.3252 -0.0737  0.1272
12211W        W28285  13.980  14.711   2.791  0.3145  0.0293 -0.3121
12212W        W28286   6.236   8.520   3.519 -0.0682 -0.2161  0.0916
12213W        W28287   4.974   9.776  13.352  0.1939 -0.2085 -0.1830
12214W        W28288  16.534   5.386   3.287  0.1025 -0.3188 -0.2435
12215W        W28289   5.934   5.071  14.166 -0.0870 -0.1754  0.3081
12216W        W28290  17.453  11.437   0.993 -0.0126  0.1020  0.3543
12217W        W28291   8.835  12.248  12.330 -0.0507  0.2538 -0.0937
12218W        W28292   5.045   4.907  15.588  0.0902 -0.2324  0.3339
12219W        W28293   0.295   6.237  13.369  0.0770 -0.0658 -0.1039
12220W        W28294  10.991  16.737   2.657 -0.0382  0.0320  0.0264
12221W        W28295  17.579  16.449  16.841 -0.0196 -0.3499 -0.0379
12222W        W28296   7.465  12.218  16.522  0.1816  0.2506 -0.0289
12223W        W28297  17.572   9.342   0.268  0.0382  0.2997 -0.0779
12224W        W28298   3.950  10.496   2.161 -0.1852 -0.1339 -0.0621
12225W        W28299  15.580  13.392   5.909 -0.3359 -0.0332  0.0655
12226W        W28300   4.152   9.779  14.995 -0.0414  0.2998 -0.1694
12227W        W28301  14.576   3.343   6.066  0.1889 -0.0082 -0.0653
12228W        W28302   9.418  15.086   1.941  0.1709  0.0351 -0.1779
12229W        W28303   6.985  11.168   3.145  0.1554 -0.3402 -0.1834
12230W        W28304  10.616   8.405  11.945 -0.2959 -0.0322  0.3926
12231W        W28305   0.470  15.800   0.934  0.4868  0.1014 -0.1653
12232W        W28306   7.604  14.077   3.929  0.0539 -0.3002  0.0693
12233W        W28307  12.833  13.003   5.079 -0.0465 -0.1569 -0.1755
12234W        W28308   7.963   3.779  13.678 -0.1443 -0.1913  0.4474
12235W        W28309   6.695  16.132   3.518  0.1081 -0.1258  0.0584
12236W        W28310  10.951  12.604  15.893 -0.1193 -0.1090 -0.0184
12237W        W28311   8.257  11.227  12.592 -0.1337  0.0725  0.0688
12238W        W28312   8.076   3.725   2.347  0.1548  0.0316  0.1256
12239W        W28313  12.126   1.693   3.875  0.0116  0.1408  0.1348
12240W        W28314  11.584  13.873  15.773  0.0489 -0.1983  0.1655
12241W        W28315  13.270   6.939   5.071  0.3483 -0.0457 -0.1077
12242W        W28316  16.458   5.075   4.070  0.1676  0.1916  0.3757
12243W        W28317   7.708   8.452  15.324 -0.1298  0.0117 -0.0951
12244W        W28318  15.658  15.383   1.617 -0.1124 -0.2929  0.3147
12245W        W28319   8.924   0.997  15.540  0.0658  0.1061 -0.2653
12246W        W28320   2.584   6.305   4.034  0.1342 -0.0547  0.3776
12247W        W28321  13.206   0.150   5.776  0.2615 -0.2229  0.1206
12248W        W28322  11.491  12.715  14.457  0.0505  0.0363  0.2941
12249W        W28323  16.561   5.985   5.750 -0.1761 -0.0093  0.0341
12250W        W28324   7.611  11.436   3.903 -0.1243 -0.0540 -0.2094
12251W        W28325   0.986  12.740   0.301  0.0557 -0.0566 -0.2515
12252W        W28326   4.689  15.168  14.527  0.1266  0.2662  0.0697
12253W        W28327  16.558  14.401  13.932 -0.0102 -0.0274 -0.2900
12254W        W28328  12.646   1.044   5.122 -0.1195 -0.2478 -0.0834
12255W        W28329   7.510  17.277  15.336  0.0841  0.2276  0.0540
12256W        W28330   5.249   4.603  14.398  0.2295  0.0907 -0.0604
12257W        W28331   9.876  13.909  12.283  0.1932  0.3586  0.0616
12258W        W28332   6.925  15.304  12.728 -0.1265  0.0017  0.4095
12259W        W28333  13.273   4.642   1.683  0.0750  0.1366 -0.1493
12260W        W28334  16.050  13.523   1.564 -0.0107 -0.1857 -0.2308
12261W        W28335   0.351   6.248   5.063  0.3447 -0.2336  0.0737
12262W        W28336  12.914   7.648  15.881 -0.0038  0.1480  0.0491
12263W        W28337   5.548   2.823   4.953  0.1795 -0.2872 -0.2258
12264W        W28338   0.906  17.558   4.672 -0.1765  0.2834 -0.0049
12265W        W28339   2.058   5.295   6.489  0.1455 -0.1000 -0.0698
12266W        W28340  12.660   2.118   0.203  0.0839  0.2279 -0.2306
12267W        W28341   8.090   2.784   0.002 -0.0799  0.0011  0.1670
12268W        W28342   9.633   8.450  13.262 -0.2212  0.0092  0.2602
12269W        W28343   3.531  17.029  14.878  0.3928 -0.1022 -0.0864
12270W        W28344   9.183   4.160   5.162 -0.0919  0.1174  0.0135
12271W        W28345   1.575  16.569   5.446  0.1470  0.1443  0.2770
12272W        W28346   1.436  14.555   5.546 -0.0183  0.3611 -0.2151
12273W        W28347   2.357   0.167  16.104  0.2239 -0.1924  0.1275
12274W        W28348  15.562   7.543  16.957  0.1509  0.1153 -0.4066
12275W        W28349  10.479   8.763  14.232  0.2482 -0.0331 -0.1949
12276W        W28350   8.774   9.115   3.336 -0.0449 -0.0033  0.0732
12277W        W28351  15.479  11.976   4.371  0.0351 -0.0540  0.4020
12278W        W28352   7.191  17.318  15.835  0.3017  0.0156  0.0614
12279W        W28353   4.560   5.692  15.083  0.1153 -0.4853  0.0452
12280W        W28354  10.017  12.468   1.643 -0.2189  0.1234  0.2274
12281W        W28355   7.465   8.123   2.122 -0.2034  0.2219 -0.0362
12282W        W28356   2.508  13.775  15.988  0.2813 -0.4381 -0.1121
12283W        W28357   9.947  17.290  12.274 -0.0100 -0.1616  0.1345
12284W        W28358  17.459  15.490   3.179 -0.0558 -0.2143 -0.0259
12285W        W28359   7.080   7.888   5.474 -0.1682 -0.0499  0.1304
12286W        W28360  14.211  16.072   5.144  0.0869 -0.1353 -0.1569
12287W        W28361  14.231   4.788   1.101 -0.0759 -0.1958  0.4483
12288W        W28362   1.343   0.982  13.013 -0.0334 -0.0454 -0.2459
12289W        W28363  11.780   9.128   5.215  0.1200 -0.1377  0.0330
12290W        W28364  17.586  10.336   5.018  0.1132  0.0406 -0.1617
12291W        W28365   1.909   7.086   4.773 -0.1842  0.0927 -0.0739
12292W        W28366   7.022  17.157  14.662  0.1920  0.0006 -0.0582
12293W        W28367   5.184   1.014   0.479  0.2427 -0.2100  0.2579
12294W        W28368   1.438   9.676   3.794 -0.3400  0.1749 -0.0817
12295W        W28369   6.381   4.647   3.829 -0.0897  0.1608 -0.0318
12296W        W28370  15.459   6.107   2.293  0.2674  0.0163 -0.0208
12297W        W28371  12.658  12.118   5.025  0.0396  0.0439 -0.0029
12298W        W28372  12.833   8.819  14.745  0.0064 -0.0696 -0.0793
12299W        W28373  17.299   2.192  15.687  0.1702 -0.1507 -0.1623
12300W        W28374   2.746   5.940   3.343  0.1157 -0.0845 -0.0358
12301W        W28375   2.435   1.698   1.821 -0.4820 -0.0599  0.1324
12302W        W28376  14.515  12.636  14.516 -0.1014 -0.1786 -0.0977
12303W        W28377   8.137   0.463   2.015  0.3442  0.0793  0.0213
12304W        W28378   0.799   4.289   1.332  0.0698 -0.0221  0.0497
12305W        W28379   0.076  12.715   3.596  0.2194  0.0445  0.2180
12306W        W28380  17.038  17.029   3.982 -0.4369  0.3282  0.2889
12307W        W28381   2.585  16.524  12.445 -0.1646 -0.1892  0.2830
12308W        W28382   3.155   1.008   4.459 -0.2842  0.3945 -0.6197
12309W        W28383   0.798  10.111  16.900 -0.3530 -0.0364  0.0095
12310W        W28384   8.435  11.104   5.847 -0.0895 -0.1973 -0.0957
12311W        W28385   3.471   3.275   0.077  0.0694 -0.2184  0.3598
12312W        W28386   6.825   9.361   3.219 -0.2565  0.0821  0.0688
12313W        W28387   9.739   6.309   0.870  0.0135  0.1749 -0.1330
12314W        W28388  15.388   1.730  15.709  0.1270  0.4123 -0.3062
12315W        W28389   1.239   8.308  13.969  0.0914 -0.3155  0.0076
12316W        W28390  10.782   5.515  15.861  0.2494  0.0485  0.2412
12317W        W28391  16.221   4.280   3.077 -0.0717 -0.1196 -0.2253
12318W        W28392   1.154   1.829   0.417  0.3194  0.0366  0.1245
12319W        W28393   1.854   2.474  16.339  0.3163 -0.1220 -0.0088
12320W        W28394  16.443   5.882   4.896  0.1034  0.0326  0.2163
12321W        W28395  10.178  10.536   2.291  0.1197 -0.2753  0.0388
12322W        W28396   1.125  12.879   5.006  0.1575  0.1695 -0.0768
12323W        W28397   8.427   2.537  15.651  0.0885  0.0796 -0.0984
12324W        W28398   2.757  15.226  14.548 -0.1114 -0.0369 -0.1611
12325W        W28399  17.848  10.192  15.964 -0.0933 -0.0924  0.1167
12326W        W28400  12.378   1.847   6.106  0.2795  0.0260  0.0587
12327W        W28401   0.921   0.518   3.871  0.1467  0.1216  0.0764
12328W        W28402   9.220   7.401   2.997  0.0057  0.1585 -0.1866
12329W        W28403   9.436   5.153  16.412 -0.0349  0.3614 -0.0032
12330W        W28404   5.481   4.406  12.518 -0.1050  0.0139 -0.0626
12331W        W28405   4.141   6.686   0.857 -0.1801  0.2098  0.0875
12332W        W28406   2.821   8.439  13.937 -0.0277 -0.0233  0.1546
12333W        W28407   6.056   1.913   2.546 -0.0936 -0.0663  0.0253
12334W        W28408  14.660   4.466   4.013 -0.2111 -0.3026  0.1493
12335W        W28409   4.305  15.736  12.437 -0.2040 -0.2561  0.0760
12336W        W28410   0.046  11.017   2.274  0.1834  0.0604 -0.2873
12337W        W28411   2.349   4.444  16.766 -0.1490 -0.0806 -0.0952
12338W        W28412  16.529   0.660   3.739 -0.1032  0.0022  0.1984
12339W        W28413   3.109   0.965   5.246  0.2535 -0.0806 -0.0548
12340W        W28414   0.648  15.383  15.848 -0.0593  0.1153 -0.3425
12341W        W28415  16.896   2.291  12.891 -0.0197  0.0138 -0.1310
12342W        W28416  13.627   7.535  15.139 -0.1094 -0.0107  0.1233
12343W        W28417   7.430   1.328  11.939 -0.3013  0.0246  0.0406
12344W        W28418  17.263   1.934  13.843 -0.1982 -0.1359  0.1925
12345W        W28419  10.207   4.298   1.644 -0.2282 -0.0456 -0.2208
12346W        W28420  10.751   7.267   1.469 -0.0676 -0.2157  0.1800
12347W        W28421   4.969   4.472  16.149  0.1453  0.0459 -0.2144
12348W        W28422   7.077   8.683  11.846 -0.1847  0.2869 -0.1151
12349W        W28423   8.391   3.880  15.049 -0.1376 -0.0199 -0.0710
12350W        W28424   2.024   4.654   5.887 -0.1706  0.1429  0.3622
12351W        W28425  15.894   1.667   5.416 -0.1263 -0.0456 -0.2594
12352W        W28426  16.069   5.790  11.664  0.1281  0.1652  0.0018
12353W        W28427   8.426  15.469   5.203 -0.0531  0.3376 -0.1513
12354W        W28428   2.323  15.872   0.794  0.0010 -0.1039 -0.2653
12355W        W28429  13.399  14.807   5.218 -0.2448  0.1787 -0.4656
12356W        W28430   6.798  11.187   2.145  0.0095 -0.1534  0.1940
12357W        W28431   6.034   2.538  11.890  0.0719 -0.1590 -0.1760
12358W        W28432   6.630   8.841   0.698 -0.2180  0.1887  0.0740
12359W        W28433  10.097  16.324   2.348 -0.0234 -0.1815 -0.0160
12360W        W28434   9.845  15.427   4.327  0.2866 -0.1873 -0.2241
12361W        W28435  11.717  10.333   1.278 -0.1574 -0.1360 -0.1235
12362W        W28436   1.314   8.445   4.486  0.1095  0.1782  0.1191
12363W        W28437  15.984  15.931   3.915  0.1400  0.0845 -0.0562
12364W        W28438   3.482  15.681   3.177 -0.0320  0.0549 -0.1581
12365W        W28439   6.068   7.486  13.134 -0.0858  0.3534 -0.1099
12366W        W28440  12.742   6.464   2.503  0.3345 -0.0736 -0.0092
12367W        W28441  16.663  12.672   4.046  0.1389  0.2115  0.1988
12368W        W28442  15.265  15.573  14.475 -0.1071  0.1387 -0.1481
12369W        W28443   2.050   1.924   1.491  0.1858  0.1228 -0.0084
12370W        W28444   3.361  17.181  12.232  0.1254 -0.1624  0.3463
12371W        W28445   0.870   7.384  13.962 -0.0509  0.1244 -0.1454
12372W        W28446   2.662  13.459   2.463  0.0737 -0.0790 -0.1591
12373W        W28447  17.601  17.075   3.412 -0.2779 -0.0350 -0.0883
12374W        W28448  13.866  10.559   4.346 -0.2554  0.0177 -0.1240
12375W        W28449  14.991  13.775   3.402 -0.3805 -0.0006 -0.0504
12376W        W28450   6.017  12.387  11.721 -0.0538  0.1532 -0.0248
12377W        W28451  10.579   1.359  14.958  0.3803  0.0022 -0.0527
12378W        W28452   5.120   4.245   4.524  0.0956  0.1603 -0.0082
12379W        W28453  11.517   2.411   3.995  0.2196  0.1024 -0.1552
12380W        W28454   3.000  16.712   2.482 -0.2358  0.0395 -0.1440
12381W        W28455  17.341   4.677   4.224 -0.2949  0.2800  0.1599
12382W        W28456   7.136   9.636  16.599  0.0902  0.1213  0.2775
12383W        W28457   4.430   3.690   4.231 -0.1825  0.1827  0.1171
12384W        W28458   7.744  15.451  12.406  0.2105 -0.1942  0.3328
12385W        W28459   4.329  16.880  14.217 -0.1025 -0.0818 -0.2181
12386W        W28460  12.729   5.854   0.727 -0.1348  0.1761 -0.1373
12387W        W28461   8.168   2.736  16.397 -0.0800  0.3161  0.1016
12388W        W28462   2.739  10.440   5.490  0.0657 -0.0570 -0.1524
12389W        W28463  14.289  17.324   2.938  0.0780 -0.1871  0.0025
12390W        W28464   4.544   5.669  16.161 -0.0402 -0.0086 -0.1514
12391W        W28465   8.716  16.196   1.989 -0.1881  0.0294 -0.0071
12392W        W28466   8.475   0.924   5.818 -0.3915  0.2143  0.3140
12393W        W28467   9.146   6.887   5.579 -0.0697 -0.1034 -0.1802
12394W        W28468   0.939   8.787  12.659 -0.0078 -0.2412 -0.0661
12395W        W28469  10.002   3.592  12.007  0.3748 -0.0611  0.1404
12396W        W28470  12.836  15.351   5.046  0.0501 -0.1994 -0.1691
12397W        W28471  15.537  17.138   4.184  0.1239  0.0741  0.0281
12398W        W28472   2.768   9.579  15.077  0.0921 -0.0347 -0.1457
12399W        W28473   0.905   5.828   3.982 -0.0283 -0.1368  0.0285
12400W        W28474  15.507   6.525   3.838 -0.1709 -0.1212  0.0741
12401W        W28475   0.661  17.788  13.683  0.1546  0.1004  0.2428
12402W        W28476  15.149  10.553  14.405 -0.1153  0.2287 -0.2437
12403W        W28477   5.704  10.367   6.124 -0.0681 -0.0340  0.1917
12404W        W28478   4.531   8.047  11.985 -0.2210 -0.1566 -0.2278
12405W        W28479  14.373  15.703  12.411 -0.0556 -0.4327  0.3261
12406W        W28480  12.786   3.152   0.074  0.1680 -0.2434  0.1022
12407W        W28481   2.667  14.468  15.342 -0.1224 -0.0213 -0.4055
12408W        W28482  10.315   3.792  15.877 -0.2691  0.1759  0.0263
12409W        W28483  12.224   6.826   1.826  0.2100 -0.1255  0.1154
12410W        W28484   2.315  13.377   4.269  0.0654  0.0748  0.0313
12411W        W28485   6.976  14.168   1.142 -0.0364 -0.0255 -0.1011
12412W        W28486   1.297  16.420  11.856 -0.0708  0.2908  0.0911
12413W        W28487   9.875   7.316   4.622 -0.0191  0.1900  0.2274
12414W        W28488   8.743   0.797   0.613 -0.0994  0.0286 -0.0009
12415W        W28489  13.718  16.444  15.797  0.5975  0.2154 -0.2372
12416W        W28490   5.197   7.647   5.624  0.1284  0.2006  0.6398
12417W        W28491  14.793   1.861  13.776  0.0786 -0.1635 -0.3322
12418W        W28492   8.688  13.103   4.099 -0.0594  0.1627  0.0250
12419W        W28493  11.931  15.818   2.072 -0.0844 -0.1438  0.0403
12420W        W28494   6.100   1.802  13.949 -0.0450 -0.3325 -0.0205
12421W        W28495  13.685  16.064  16.170 -0.0489 -0.1648  0.1489
12422W        W28496  15.507  14.651  12.540  0.0110 -0.0992 -0.2442
12423W        W28497  17.717  17.299  16.134 -0.0669  0.2416  0.0712
12424W        W28498  13.201  17.222  12.486 -0.0208 -0.1789 -0.0633
12425W        W28499  12.627  14.600   5.888  0.1140 -0.0583  0.0101
12426W        W28500   2.655  15.558   4.955 -0.0566 -0.1778 -0.2253
12427W        W28501   1.022   6.654   5.684  0.4234 -0.2346 -0.0791
12428W        W28502  12.046  11.096  14.125  0.1765  0.2529  0.0476
12429W        W28503   5.350  17.247   3.550  0.1128 -0.0848 -0.0256
12430W        W28504  11.002  11.224  15.175 -0.0173 -0.1621  0.0316
12431W        W28505  14.893  12.751  15.867  0.0835  0.3190  0.2643
12432W        W28506   4.430  16.767   5.679 -0.2845 -0.1424 -0.0658
12433W        W28507  11.421   9.252   4.825  0.3172  0.1338 -0.0692
12434W        W28508  10.623  10.198   2.152  0.2350 -0.0100  0.0471
12435W        W28509   7.417   9.218   0.351 -0.0725 -0.1996  0.1133
12436W        W28510   8.490   6.234   5.507 -0.1387 -0.1422  0.0248
12437W        W28511  10.288  13.203  14.677  0.0349 -0.0820 -0.1230
12438W        W28512  14.188  17.583  14.771 -0.1194 -0.2032 -0.0214
12439W        W28513  16.476   5.594   1.375 -0.0745 -0.2677  0.0325
12440W        W28514  13.655  11.683   0.280 -0.1499  0.1474  0.1902
12441W        W28515   8.137  13.307   1.159  0.3921  0.0663 -0.0880
12442W        W28516  13.805   8.389  11.989  0.0640  0.2640 -0.3506
12443W        W28517   3.597   8.281   2.140  0.0830  0.3664 -0.1362
12444W        W28518  17.755   2.881   1.360 -0.3124  0.3625  0.1707
12445W        W28519  17.515   4.965  16.796  0.0594 -0.0480  0.2712
12446W        W28520   8.809   8.701   1.023 -0.1530 -0.1358 -0.0853
12447W        W28521   5.669  13.644   4.004  0.0641  0.0435  0.3183
12448W        W28522   7.162   0.791   5.346  0.0522 -0.2608 -0.2565
12449W        W28523  13.798   3.409   0.604 -0.0338  0.3490  0.0851
12450W        W28524   0.483   9.612   3.959 -0.1660  0.3015  0.2095
12451W        W28525   0.482  13.351  12.620 -0.3127 -0.2664  0.1282
12452W        W28526  13.149   1.719  14.070  0.0474  0.2272 -0.0713
12453W        W28527  15.066  16.830   6.918 -0.1323 -0.0081  0.0089
12454W        W28528   3.795  13.171   1.619  0.0676  0.2795  0.1465
12455W        W28529   3.714   5.037  16.833  0.3188  0.0926  0.4620
12456W        W28530   8.230   3.187  12.102  0.2305  0.4092 -0.0481
12457W        W28531   4.166  15.346  16.198 -0.1568  0.1835 -0.1498
12458W        W28532  10.719  10.333  13.146  0.0626 -0.0361  0.1598
12459W        W28533  12.606  10.890  16.876  0.0455 -0.1044 -0.0065
12460W        W28534   5.557  17.027  12.502 -0.0986  0.2336 -0.0037
12461W        W28535   7.335  15.011   4.016  0.1287  0.1346  0.1393
12462W        W28536  13.243  15.075   3.929 -0.1461 -0.1405  0.1299
12463W        W28537  14.883   5.410  11.431 -0.3862 -0.2678  0.1518
12464W        W28538  11.573   4.458   2.090  0.0891 -0.1588 -0.2455
12465W        W28539  10.839   8.417  14.253 -0.1449 -0.1403 -0.2463
12466W        W28540  17.255   5.824   0.034 -0.0076 -0.1519 -0.0202
12467W        W28541  14.348  17.816  14.353 -0.1645  0.0676 -0.0638
12468W        W28542   3.249   4.302   2.004 -0.4116 -0.0441 -0.1917
12469W        W28543   6.888  11.090  13.260  0.0167 -0.0724  0.2489
12470W        W28544  15.232   8.246  16.326  0.0904  0.0372  0.0764
12471W        W28545   3.804  11.245  16.254  0.1456  0.3176 -0.0717
12472W        W28546   6.356   4.420   5.795 -0.1170  0.0139  0.1286
12473W        W28547  14.211  14.633   4.083  0.1158 -0.0808 -0.0804
12474W        W28548  13.233  14.842  15.840 -0.0794  0.1317  0.0761
12475W        W28549  11.908   2.383  12.145  0.0797 -0.0734 -0.1997
12476W        W28550  15.031  17.276   3.504  0.0774 -0.1749 -0.0565
12477W        W28551   0.056   4.679  13.615 -0.1330 -0.2975 -0.3320
12478W        W28552   2.018   9.933   4.656 -0.1561  0.0758 -0.3643
12479W        W28553  10.603   5.146  16.114 -0.0678 -0.0349 -0.2154
12480W        W28554  17.445   8.840  15.230  0.2145 -0.1496  0.1197
12481W        W28555  12.681   8.486   5.700  0.0759 -0.2862  0.2235
12482W        W28556   1.120   8.487   0.468  0.4488  0.1060 -0.0483
12483W        W28557  17.012   9.711  16.371 -0.1215 -0.2609 -0.0509
12484W        W28558  17.411   0.544   2.807 -0.1461  0.0712  0.1038
12485W        W28559  17.803   2.725  13.691 -0.1202  0.2397  0.2446
12486W        W28560  12.855  16.480  14.723  0.1457  0.1823  0.0966
12487W        W28561   5.756   9.577  13.915 -0.0976 -0.2040  0.0366
12488W        W28562  13.729   1.406   5.375 -0.0069  0.3184  0.0059
12489W        W28563  17.422  16.898   5.919 -0.2196 -0.1851 -0.1295
12490W        W28564   7.407  13.806  16.572 -0.1952  0.2727  0.1313
12491W        W28565  13.754   4.877  12.926 -0.0020  0.0248  0.0954
12492W        W28566  10.386   3.329   4.979 -0.0627 -0.0210 -0.2721
12493W        W28567  12.268  14.979   0.668  0.0989 -0.0606 -0.1235
12494W        W28568   3.799   6.936  13.406 -0.1061  0.1016  0.1264
12495W        W28569  16.091  17.671   4.726  0.2420  0.1430  0.0095
12496W        W28570  12.893   8.910   0.153 -0.2232  0.0868 -0.0686
12497W        W28571   1.476   4.243  16.575  0.0617 -0.0197 -0.2512
12498W        W28572  11.557  11.688  12.722  0.3098 -0.2138 -0.1188
12499W        W28573  11.470  17.564  14.326  0.2622 -0.0905  0.0080
12500W        W28574  14.651  15.803   3.708 -0.1060  0.2122 -0.0752
12501W        W28575  12.320  16.759  13.289  0.1685  0.0324  0.1226
12502W        W28576  10.465  15.187   1.860 -0.1706  0.1968 -0.0030
12503W        W28577  16.190   1.797   2.436  0.1658  0.3318  0.2535
12504W        W28578   0.966   7.952  12.949  0.0251  0.2352  0.1121
12505W        W28579   9.767   8.780  10.790 -0.0007 -0.0605 -0.2290
12506W        W28580  11.770  12.800  16.299 -0.3810  0.0472  0.1974
12507W        W28581   2.188   5.350   5.004 -0.2016 -0.0698  0.1088
12508W        W28582  12.939   6.043  14.521  0.0374  0.0319  0.2436
12509W        W28583  13.852   9.596  13.000 -0.1327  0.2156 -0.0825
12510W        W28584   2.742   2.915  15.373 -0.0564 -0.0444  0.2379
12511W        W28585   5.698   6.569   2.541  0.0251  0.2346 -0.0725
12512W        W28586   1.765   9.276   4.564  0.1081  0.0591 -0.0260
12513W        W28587  14.930   1.923   4.961 -0.0374 -0.1098  0.1635
12514W        W28588  14.347   4.507  14.028 -0.0212 -0.0882 -0.2165
12515W        W28589   7.958   8.982  14.065  0.2348  0.1145  0.2309
12516W        W28590  14.638  11.655   2.600 -0.3920 -0.1726  0.1535
12517W        W28591   4.483   6.316   2.136 -0.0461  0.1729  0.3644
12518W        W28592   8.937   2.330  16.191  0.2716  0.0713 -0.1874
12519W        W28593   9.443  17.448   1.518 -0.1485  0.0118 -0.3124
12520W        W28594   2.372  17.028  11.181 -0.3253  0.1706  0.2149
12521W        W28595  17.432  15.470   1.164  0.1169 -0.1815 -0.0278
12522W        W28596   7.088  14.569   4.143 -0.1225 -0.0021 -0.0125
12523W        W28597   2.783  15.830   2.533 -0.0243  0.0083  0.0623
12524W        W28598   4.446   4.459  13.068  0.1839 -0.2631 -0.1864
12525W        W28599   6.838   5.903  15.496  0.0208 -0.0168 -0.0239
12526W        W28600   2.682  11.865  14.345  0.3180 -0.0719  0.3225
12527W        W28601   1.312   0.424  12.832 -0.0539  0.0656 -0.4470
12528W        W28602   3.325   4.617   4.777 -0.3645 -0.2628 -0.2075
12529W        W28603  13.218  11.931   0.351 -0.0980 -0.1692  0.1704
12530W        W28604  11.639  13.441   5.353  0.0450 -0.0172  0.0451
12531W        W28605   0.949   0.107  15.145  0.4342 -0.0124  0.0680
12532W        W28606  15.888   7.148   0.916  0.1032  0.0073  0.2110
12533W        W28607  12.010  10.319   2.258  0.0356 -0.1613  0.2282
12534W        W28608  12.884  17.335  16.913 -0.0499 -0.1909 -0.0076
12535W        W28609  16.749   0.036  15.685  0.0175  0.1011  0.3332
12536W        W28610  11.431   5.113   0.545  0.0612 -0.1507  0.0934
12537W        W28611   0.143   1.346  15.824  0.0628 -0.2198 -0.0587
12538W        W28612  11.602   4.730   1.518 -0.0890  0.1519 -0.0713
12539W        W28613   2.179  16.294  15.183  0.0429  0.0369 -0.1258
12540W        W28614  12.721   6.509  13.005  0.0408  0.2808  0.0793
12541W        W28615   5.697   3.505  12.740 -0.0673 -0.1444  0.1000
12542W        W28616   7.859   6.611   0.926  0.3057  0.0463 -0.0781
12543W        W28617  16.741   6.758   2.005  0.2988 -0.2616 -0.1494
12544W        W28618  12.234   7.042  14.745 -0.0467  0.0885 -0.1361
12545W        W28619   6.249   4.712  12.366  0.0437 -0.2119 -0.1208
12546W        W28620  15.190   2.157   5.433  0.1414  0.1046 -0.1406
12547W        W28621   2.136   5.879   0.092 -0.2385 -0.0701 -0.0048
12548W        W28622  15.173  11.430   1.192  0.0383 -0.4595  0.4197
12549W        W28623  17.577   3.476  12.832 -0.1303 -0.1814  0.0670
12550W        W28624   2.884   4.461  16.961 -0.0605  0.0207 -0.1318
12551W        W28625   3.261   2.697  15.378  0.0594 -0.1268 -0.2691
12552W        W28626   7.197   3.533  12.051 -0.2299  0.1775 -0.0719
12553W        W28627  11.695  12.648   2.453 -0.0427 -0.0793 -0.0131
12554W        W28628   2.896   3.004  11.487 -0.0536  0.2290 -0.3427
12555W        W28629  10.502  17.039   3.990 -0.0945  0.1098  0.0645
12556W        W28630  10.356  11.522  14.920  0.1907  0.0471  0.0323
12557W        W28631  11.963   8.312   3.789  0.1318 -0.3358  0.5104
12558W        W28632   3.274   8.283   6.387 -0.0652  0.2096  0.1311
12559W        W28633   5.717  17.014  14.638  0.1125 -0.1306  0.1502
12560W        W28634  13.005  10.447   4.806 -0.1234 -0.2304 -0.1053
12561W        W28635   0.194  10.994  16.330  0.1137 -0.2147 -0.2203
12562W        W28636   5.770  17.669  15.788 -0.0259  0.0563  0.2398
12563W        W28637  10.104   2.730   2.760  0.0269  0.1660  0.2790
12564W        W28638  15.893  12.413   5.830 -0.3039  0.3103  0.1866
12565W        W28639  13.449  10.201  16.724 -0.1316 -0.1948 -0.0951
12566W        W28640  11.626  14.420   5.362 -0.0716  0.0328 -0.1452
12567W        W28641   2.731   9.486   0.997 -0.1503  0.2395  0.1608
12568W        W28642  13.318  10.618   6.006  0.1467 -0.1574  0.0031
12569W        W28643  14.332   7.771  15.314  0.0881 -0.1148  0.0008
12570W        W28644  14.213   4.762   5.771  0.2499  0.1381  0.1455
12571W        W28645  16.870   3.298   2.414  0.0650 -0.3507  0.0323
12572W        W28646   9.471   5.137   3.694  0.1812 -0.0410 -0.0020
12573W        W28647  11.040  15.963  13.629 -0.2958  0.0765  0.0535
12574W        W28648   5.111   1.850   0.012  0.2194  0.0357 -0.1476
12575W        W28649  10.535   9.252   4.331 -0.2254  0.2793  0.3117
12576W        W28650   6.792  14.973   0.919 -0.0077 -0.1156 -0.4228
12577W        W28651  13.168  11.259  15.743 -0.0478  0.2324 -0.1324
12578W        W28652  16.472  13.429   4.757 -0.2808 -0.1542  0.3230
12579W        W28653   0.148  10.517   0.253  0.0306 -0.1903  0.0484
12580W        W28654  10.294   9.183   4.764  0.0371 -0.4766  0.1663
12581W        W28655  16.568   5.499  13.406 -0.1932  0.0181  0.2394
12582W        W28656  11.474  11.018  13.453  0.1578 -0.1512  0.0235
12583W        W28657  13.045   1.905  11.490  0.0425 -0.2813  0.2223
12584W        W28658  12.782  14.572  13.801  0.0127  0.0273 -0.0575
12585W        W28659  17.829  10.420  14.766  0.0202  0.0138  0.1999
12586W        W28660   1.453   0.537   1.613  0.0438 -0.0165 -0.2406
12587W        W28661   9.752   2.280   3.930 -0.2799 -0.0562 -0.0378
12588W        W28662   1.251   4.253   0.929 -0.1038  0.0863  0.4301
12589W        W28663   3.487   5.963   0.023  0.2048  0.0835  0.1489
12590W        W28664  16.634  11.619   5.918  0.1125  0.0888  0.1469
12591W        W28665   7.800   3.701   1.941 -0.1040 -0.0484  0.0624
12592W        W28666  14.252   5.288   3.210 -0.0757 -0.2030  0.2860
12593W        W28667  17.005  10.301   5.750 -0.0626  0.0247 -0.1246
12594W        W28668   0.051   0.756  11.468  0.1911  0.0809 -0.0638
12595W        W28669  17.807   7.566  13.648  0.2985 -0.1729 -0.0671
12596W        W28670   4.847   0.456  12.977  0.1100 -0.2532 -0.1583
12597W        W28671  14.994   6.023   3.723 -0.1516  0.0567  0.0869
12598W        W28672  14.561  15.508   0.866 -0.1709 -0.0541 -0.0808
12599W        W28673   6.897   9.146   5.367  0.0939 -0.0105 -0.1528
12600W        W28674   2.030   3.999   3.674 -0.1683  0.0887 -0.0150
12601W        W28675  11.911  16.101  11.833 -0.1744  0.1515 -0.2490
12602W        W28676   0.957   9.014   0.282  0.1411  0.0752  0.0809
12603W        W28677   7.136  12.001  12.828 -0.1111  0.2547  0.0413
12604W        W28678  11.882  12.472   4.876 -0.2782 -0.2383 -0.2393
12605W        W28679  17.281   2.327   1.166  0.3930 -0.0382  0.2310
12606W        W28680  17.122   5.723   6.492  0.1271 -0.1124 -0.0090
12607W        W28681  11.592  14.560   3.861 -0.0712  0.0728 -0.2276
12608W        W28682   9.540   6.290   6.254 -0.0592 -0.1555  0.1980
12609W        W28683  12.912   4.159   4.311 -0.1261  0.4180  0.2281
12610W        W28684   1.349   4.307  11.454 -0.1332  0.1141  0.1910
12611W        W28685   6.520  17.755  16.859 -0.0210  0.2591 -0.4679
12612W        W28686   8.265  17.376   2.099 -0.2355  0.0836 -0.3020
12613W        W28687   9.570   5.203   1.601 -0.0417  0.4226 -0.0820
12614W        W28688   8.126  13.740   5.780 -0.1682 -0.5017  0.2495
12615W        W28689   6.779   5.312  14.126  0.2723 -0.3382 -0.1281
12616W        W28690   3.777   5.427   1.686 -0.2075  0.0779 -0.5119
12617W        W28691  17.808  11.887  14.075  0.0665  0.1214 -0.0094
12618W        W28692   7.176   2.721  11.355 -0.2560 -0.3194  0.2763
12619W        W28693   6.270  13.783  14.426 -0.1459 -0.2064  0.0885
12620W        W28694   7.662   3.216  12.154 -0.0053 -0.1416 -0.1235
12621W        W28695  15.494  14.188  16.211 -0.2060  0.0781 -0.1773
12622W        W28696   1.942  15.503   0.534 -0.2943 -0.0731  0.0875
12623W        W28697   1.517  10.259   0.393  0.2552 -0.1391 -0.3210
12624W        W28698  12.057   9.772  15.491  0.2733 -0.0727 -0.0976
12625W        W28699  12.993   9.296  16.065  0.0056  0.3213 -0.0990
12626W        W28700  15.539   7.139  11.864 -0.0622  0.1852  0.1299
12627W        W28701  14.823   4.766  12.211  0.0244  0.2584  0.0843
12628W        W28702  12.703   5.925   0.191 -0.2484  0.0299 -0.0845
12629W        W28703   9.957   9.214  12.402 -0.3153 -0.0882 -0.2579
12630W        W28704  15.837  10.948  12.353 -0.2695  0.1102 -0.3638
12631W        W28705   6.053   9.318  14.300  0.0536  0.2217  0.2680
12632W        W28706  15.691   2.951   2.705 -0.4281 -0.0167  0.1659
12633W        W28707  12.998   9.949  14.862 -0.3861  0.3611  0.1306
12634W        W28708  13.621   3.702   5.641  0.2426 -0.2053  0.0634
12635W        W28709  13.206  13.064  12.822  0.1784 -0.0955 -0.3662
12636W        W28710  13.629   9.576   0.376  0.4255  0.0568  0.1877
12637W        W28711  11.044   8.838   6.258 -0.1643  0.3398 -0.0176
12638W        W28712  10.499  12.564  16.478 -0.0234 -0.0980 -0.2027
12639W        W28713   2.403   7.573  16.035  0.0075  0.2281 -0.1471
12640W        W28714  14.569  14.368   5.011  0.2863 -0.1494 -0.3082
12641W        W28715  13.893  17.083   3.079 -0.0317  0.1651 -0.0092
12642W        W28716   4.271  10.169   3.810  0.2165 -0.2258  0.0945
12643W        W28717  12.317   1.300   5.838  0.0258  0.0475 -0.0870
12644W        W28718  13.439   0.966   3.276 -0.0354  0.2838  0.2186
12645W        W28719   6.110   5.651   6.332  0.2175  0.1030 -0.2329
12646W        W28720   0.339  14.145   3.387 -0.2792  0.0382  0.1341
12647W        W28721   5.903  12.126  14.007  0.2813 -0.3593 -0.2804
12648W        W28722  17.567  14.841  13.351 -0.2374  0.0837  0.2736
12649W        W28723   0.134  14.306  14.949 -0.0167  0.1471 -0.2769
12650W        W28724   4.460  17.720   2.055 -0.4110 -0.0591 -0.0927
12651W        W28725   3.592   0.259   5.196 -0.2106 -0.0371 -0.1572
12652W        W28726   7.254   1.293  12.589  0.0079  0.1106  0.1759
12653W        W28727   3.256   4.616  14.114 -0.1052 -0.1568 -0.0541
12654W        W28728  12.391  12.568   4.893 -0.1457  0.2198  0.1040
12655W        W28729  17.398  14.344  14.645  0.0170  0.0843 -0.1338
12656W        W28730   8.839  10.764   5.818 -0.1824 -0.1632 -0.0265
12657W        W28731   0.074   7.941   0.153 -0.2148  0.1287  0.2705
12658W        W28732   7.314   2.291   2.096 -0.2672 -0.0535  0.3181
12659W        W28733  12.661   2.173  16.049  0.2033  0.2812 -0.0322
12660W        W28734  14.030  10.774   1.238  0.3039 -0.4127  0.2538
12661W        W28735   4.080   8.083  11.691  0.0541  0.1006 -0.2135
12662W        W28736  17.552  14.150   4.396  0.0780 -0.1357 -0.0955
12663W        W28737   9.065   8.709   4.505 -0.1909 -0.0500  0.0779
12664W        W28738  11.562  12.052  13.177  0.3039 -0.0905  0.2794
12665W        W28739  12.686   2.039  14.706 -0.1794 -0.0853 -0.1701
12666W        W28740  15.193   1.501  12.273 -0.0854 -0.0278 -0.2893
12667W        W28741  12.226  11.151   1.231  0.1820 -0.0044 -0.0923
12668W        W28742  10.538   1.360  16.914  0.0459  0.2636 -0.4594
12669W        W28743  10.750   7.990  15.128 -0.0719 -0.0549 -0.0164
12670W        W28744  12.908  16.225  13.550  0.1938 -0.2533 -0.1662
12671W        W28745  11.591   5.394   3.587  0.0564  0.0572 -0.0839
12672W        W28746  12.517  16.199  12.787  0.0737 -0.1522  0.1445
12673W        W28747  12.871  14.660  15.405 -0.1652  0.3206  0.1303
12674W        W28748   1.863   8.276  13.763 -0.2692 -0.1227  0.2519
12675W        W28749  17.426   9.217   2.959 -0.0959  0.1693 -0.2197
12676W        W28750   0.794  13.198  13.421  0.1585 -0.1417  0.0862
12677W        W28751   2.090   2.527  14.211  0.1826 -0.0032  0.0642
12678W        W28752   0.590  16.763  13.935  0.0787 -0.0447 -0.2138
12679W        W28753  17.079   0.629   2.375 -0.1908 -0.0224 -0.2934
12680W        W28754  13.334  15.408   5.861 -0.1620  0.2373 -0.0243
12681W        W28755   9.583  12.249   0.824  0.2019 -0.1035 -0.0618
12682W        W28756  14.551  12.726  13.330 -0.1723 -0.2566  0.1671
12683W        W28757   5.936  16.060  16.102 -0.4815  0.4965  0.2586
12684W        W28758   1.996   9.635  14.471  0.1698  0.0788 -0.1481
12685W        W28759  11.886   1.331   4.885  0.1520  0.1437  0.0449
12686W        W28760  15.232  12.235   3.928 -0.1066  0.1280 -0.3347
12687W        W28761  11.855  11.265  11.727 -0.0868  0.4063 -0.3097
12688W        W28762  16.558  13.065   3.699 -0.1091 -0.0939 -0.0927
12689W        W28763   3.331  12.020  11.727  0.0559 -0.0993 -0.0396
12690W        W28764   1.411   9.650  14.990 -0.1207  0.1600 -0.2464
12691W        W28765  17.522   3.581   5.483 -0.0416  0.4509 -0.2108
12692W        W28766  10.270   5.016   1.010  0.1645 -0.0712 -0.2014
12693W        W28767  12.300   8.186  11.807 -0.1062 -0.1264 -0.0743
12694W        W28768  11.502  14.639  11.493 -0.3562 -0.4541  0.0498
12695W        W28769  13.109  10.470  15.058 -0.0380  0.0537  0.0878
12696W        W28770  10.648   7.612  14.814 -0.1310 -0.1931  0.0798
12697W        W28771   9.851   5.470  13.686  0.0059 -0.3658  0.0804
12698W        W28772   8.525   0.160   2.624 -0.2230  0.0502  0.0774
12699W        W28773   4.545   5.971  12.449  0.3348 -0.1363  0.1627
12700W        W28774   4.121   7.251  12.304 -0.0515  0.0433  0.0715
12701W        W28775  14.248   1.849   4.582 -0.0694  0.3642 -0.1375
12702W        W28776  17.523  14.985   4.081  0.2254  0.0235  0.1782
12703W        W28777   0.869   3.239   5.998  0.0274 -0.3265 -0.2751
12704W        W28778  12.244   5.738  12.959  0.0794  0.0970 -0.0868
12705W        W28779  10.674  12.625  16.951 -0.0886 -0.1607 -0.0182
12706W        W28780   0.270  11.449  12.784 -0.3346  0.2555  0.1109
12707W        W28781  17.289  15.520  12.926  0.5022 -0.1417 -0.1362
12708W        W28782   9.161   1.985  14.386 -0.0704 -0.0272 -0.0528
12709W        W28783  10.454   6.115   5.879 -0.1503  0.1301 -0.1971
12710W        W28784  13.027   5.176  12.666  0.2239  0.1440 -0.2400
12711W        W28785   4.030   5.454  15.832 -0.1319  0.2472 -0.3101
12712W        W28786   5.377   6.672   6.072  0.0163  0.0045  0.1645
12713W        W28787   1.206  12.375   0.557 -0.0983 -0.1148 -0.5217
12714W        W28788  10.494   8.433   3.512 -0.3546 -0.1084  0.2310
12715W        W28789   2.869  17.650   2.068 -0.0146 -0.1022 -0.0110
12716W        W28790  14.440  11.858  14.214 -0.3005  0.1218  0.3745
12717W        W28791   6.687  15.267   3.222  0.3492  0.0156  0.1911
12718W        W28792  10.872   1.544  12.163  0.3410  0.0064 -0.5146
12719W        W28793   5.585  13.034  15.819 -0.2541  0.2577 -0.1731
12720W        W28794   2.251   0.453  12.538  0.1076 -0.2330 -0.0441
12721W        W28795   7.749   1.441  12.381  0.0334  0.0259 -0.0668
12722W        W28796  12.469  15.327   1.718 -0.0886  0.2174  0.2667
12723W        W28797   8.092   7.473  13.584 -0.1756 -0.1515 -0.1804
12724W        W28798   9.185   6.459  13.921 -0.0455  0.1416  0.0711
12725W        W28799  10.793  16.812  16.113  0.1789 -0.0691  0.1604
12726W        W28800   3.967   6.423   5.752  0.2586  0.1879 -0.1360
12727W        W28801  15.544   0.169  15.033 -0.1567 -0.0912 -0.2468
12728W        W28802   8.924   9.652   3.519 -0.0216  0.0721 -0.1766
12729W        W28803   8.358  16.101   3.817  0.0569  0.0434 -0.2279
12730W        W28804  17.266   6.534   3.306 -0.0176 -0.2669  0.1625
12731W        W28805  14.607  17.391   1.488 -0.0605  0.1453  0.1266
12732W        W28806   2.414   0.586  14.628 -0.0326  0.1426 -0.0190
12733W        W28807  17.800  11.332  14.023  0.0051  0.2541  0.1830
12734W        W28808  15.993   1.449   2.133  0.0546  0.1117  0.0122
12735W        W28809  12.758   2.716  16.189  0.0187  0.0725  0.2264
12736W        W28810   5.339  17.215   4.447 -0.2343 -0.0251  0.1196
12737W        W28811   8.625   2.300   4.206  0.0468  0.2311  0.2417
12738W        W28812  13.622   0.288   3.975 -0.0396 -0.1563  0.1814
12739W        W28813   1.263  14.798  13.970  0.3149  0.0736 -0.1998
12740W        W28814  16.753   2.701   4.136  0.0351  0.2107  0.3390
12741W        W28815  10.231  14.462  12.562  0.1199  0.2365  0.0093
12742W        W28816   9.127  16.422   3.924 -0.0212  0.6435 -0.1200
12743W        W28817   4.883   0.004  14.020  0.1465  0.0319  0.2102
12744W        W28818   7.606   2.673  15.422 -0.0758  0.0432 -0.1138
12745W        W28819   4.964  12.024  14.547  0.1824 -0.0018 -0.0576
12746W        W28820   2.334   4.177   2.181 -0.2841  0.0405  0.0234
12747W        W28821   7.154  10.330   3.804  0.0470  0.0897 -0.1719
12748W        W28822  17.472  16.492  12.802  0.0598  0.4010 -0.0942
12749W        W28823  13.292   5.069  14.756  0.2141 -0.0154  0.0829
12750W        W28824   7.255   0.208   5.995 -0.1431 -0.2979 -0.5565
12751W        W28825  17.840  15.275   2.910  0.1299  0.1541  0.1179
12752W        W28826   0.757   7.027   0.911  0.2327 -0.2347  0.0257
12753W        W28827   9.517   8.748   1.255  0.0984 -0.0288  0.2198
12754W        W28828   1.529   7.178  15.989 -0.1378  0.1616 -0.1156
12755W        W28829  13.886   4.592  14.805 -0.0894  0.2718 -0.1703
12756W        W28830  13.137  16.255  14.369 -0.1822 -0.1441  0.0625
12757W        W28831  12.223   9.886  11.553  0.0275  0.2085 -0.1996
12758W        W28832  16.603   1.598   6.179  0.0917  0.2507  0.0043
12759W        W28833   4.354   5.074   0.294 -0.3469  0.0036 -0.0778
12760W        W28834   9.462   8.489   3.249 -0.0367 -0.0900 -0.3661
12761W        W28835  15.591  11.192  15.457 -0.1505  0.0073  0.0142
12762W        W28836  12.869  12.904  12.137  0.0019 -0.1743  0.3477
12763W        W28837  11.456   2.988   3.474 -0.0376  0.1429 -0.0440
12764W        W28838   7.393  14.926  11.750 -0.0327 -0.1287 -0.0343
12765W        W28839   8.957   4.375   3.963 -0.0249 -0.0866  0.2802
12766W        W28840   5.817  15.453  14.831  0.0172 -0.1828 -0.0869
12767W        W28841  12.398  10.960   0.420 -0.2572  0.1291 -0.0326
12768W        W28842   6.622   1.756   4.785  0.1566 -0.0220 -0.0044
12769W        W28843   1.516   7.755   0.366  0.1188 -0.4964  0.0290
12770W        W28844   0.318  13.440  14.939  0.0228  0.1990  0.0888
12771W        W28845  14.604  16.974  16.039 -0.1709 -0.0858 -0.0375
12772W        W28846  11.160  15.943  14.659 -0.0527 -0.0165 -0.2577
12773W        W28847   6.176   5.695   0.305  0.1624  0.0259 -0.1305
12774W        W28848   6.997  17.696  13.942 -0.1384 -0.0783 -0.1917
12775W        W28849  14.731   1.804   4.181  0.0331 -0.1399 -0.1340
12776W        W28850   3.609   8.655   5.691 -0.0509 -0.1198  0.0439
12777W        W28851   5.691   2.142   4.695  0.0512  0.1722  0.1585
12778W        W28852  15.770  16.238  16.755 -0.0208 -0.0408 -0.1809
12779W        W28853   0.383  16.073   2.239  0.2670  0.0202  0.1835
12780W        W28854  17.373   0.737  13.684 -0.3624  0.0320 -0.1568
12781W        W28855  16.469   8.007  13.443 -0.0761 -0.1118 -0.0598
12782W        W28856  12.052   9.057  16.834  0.0016 -0.0866 -0.0129
12783W        W28857   9.266  16.414  15.628 -0.0155 -0.1116 -0.2657
12784W        W28858  16.789   0.725   6.619  0.1533 -0.0669 -0.0255
12785W        W28859  12.067   5.301   3.424 -0.0906  0.2740  0.0443
12786W        W28860   9.694  10.958  13.913  0.0167 -0.0858 -0.1338
12787W        W28861  13.185   3.834  12.466 -0.0808  0.2435 -0.0526
12788W        W28862   8.853  13.115   0.944  0.2466 -0.1957  0.0214
12789W        W28863  12.773  12.386   0.599  0.2034 -0.1381 -0.2468
12790W        W28864  15.256  17.427   2.202  0.2112 -0.2334 -0.0340
12791W        W28865   3.454  13.900  11.676 -0.0226 -0.2303  0.0538
12792W        W28866   4.620   5.295   0.680  0.1027  0.0915 -0.2291
12793W        W28867   9.651   8.454   1.638 -0.3010 -0.2138  0.3596
12794W        W28868   9.191  12.529   5.142  0.1393  0.1004  0.1106
12795W        W28869   9.685   1.906   3.154 -0.1107 -0.1984  0.0700
12796W        W28870   0.696  16.822   4.942  0.3008  0.0943 -0.1209
12797W        W28871  11.270  16.147   0.621 -0.0098  0.0723 -0.0350
12798W        W28872   0.615   3.341  11.889 -0.1499 -0.0263 -0.2910
12799W        W28873   1.294  16.841  13.860 -0.1221 -0.2371 -0.3789
12800W        W28874   2.858   0.474   3.177  0.0142 -0.1987  0.0651
12801W        W28875   0.041   8.129  14.717 -0.0526  0.2148  0.4198
12802W        W28876  17.486   2.387   0.265  0.1262 -0.2986 -0.2319
12803W        W28877  14.021   8.892  11.872 -0.1515  0.4131  0.0281
12804W        W28878   1.431   9.635   4.606  0.1493  0.2385  0.1188
12805W        W28879   9.067   6.961   5.073  0.0348 -0.0291 -0.0697
12806W        W28880  14.069  14.355   6.414  0.1152  0.4755  0.0162
12807W        W28881   4.223   5.606   0.477  0.0229  0.4286 -0.0574
12808W        W28882   8.471   8.590   3.311 -0.2248 -0.2696  0.0419
12809W        W28883   1.120  14.231  11.675 -0.2134  0.0079  0.1954
12810W        W28884  10.875   8.190   4.453  0.1533  0.1710  0.0162
12811W        W28885   3.334  17.115  15.308  0.1602  0.1987 -0.1822
12812W        W28886   4.681  12.237   5.030 -0.0977 -0.0514  0.4948
12813W        W28887   1.943  10.810   4.995 -0.3246  0.0612 -0.0038
12814W        W28888  13.524   3.686  13.582  0.0156 -0.0570 -0.0876
12815W        W28889   9.218  11.033   3.856 -0.1544  0.0046 -0.3651
12816W        W28890   9.195  11.806   1.479  0.0632 -0.1193  0.0644
12817W        W28891   0.198  10.844  14.833 -0.1327  0.0536 -0.1106
12818W        W28892   2.630   2.893  11.908 -0.1535 -0.2009  0.1068
12819W        W28893   7.199  11.697  16.492 -0.1160 -0.2447 -0.1574
12820W        W28894  13.938  15.663  15.997 -0.0449 -0.2840 -0.1605
12821W        W28895  15.289   7.512  13.997  0.0210  0.0813  0.1816
12822W        W28896   4.698  15.953   3.454 -0.1289  0.0248 -0.3496
12823W        W28897  17.795  13.731  16.583 -0.4630 -0.0095 -0.0952
12824W        W28898   6.070   8.402   4.021  0.1048  0.0982  0.0769
12825W        W28899   0.663  17.311  11.701 -0.2013 -0.2658  0.2262
12826W        W28900  10.490  10.336   2.697 -0.1582 -0.1623 -0.0467
12827W        W28901   0.653   2.781  11.760 -0.0186  0.4268  0.1469
12828W        W28902   2.711   1.758   0.811  0.0694 -0.0760 -0.0092
12829W        W28903  16.105  10.073   0.902 -0.1276  0.1705 -0.0259
12830W        W28904  10.262  17.551  16.389 -0.0886  0.0205 -0.0797
12831W        W28905  14.947   6.034  13.209  0.1760 -0.0160  0.2403
12832W        W28906  11.719   9.440   2.747 -0.2256  0.1520  0.1735
12833W        W28907   5.272   5.990   0.117 -0.1033  0.2619  0.2750
12834W        W28908   3.050   6.344  15.693 -0.2257 -0.0458 -0.1408
12835W        W28909  16.432   8.119  15.548  0.0031  0.1709  0.1714
12836W        W28910   4.365  17.560  13.556  0.2044 -0.3385 -0.1374
12837W        W28911  10.964  12.657   3.567 -0.1066 -0.0852 -0.0894
12838W        W28912   0.744  10.599   0.387 -0.0209 -0.1847  0.0694
12839W        W28913  15.015   5.086   5.785  0.1095 -0.1210 -0.0006
12840W        W28914   0.702  16.715   5.431  0.1803  0.0002  0.0074
12841W        W28915   6.852  11.687  12.511  0.3265  0.3422  0.0339
12842W        W28916  12.874   2.227   3.439 -0.1909 -0.2001  0.0428
12843W        W28917  15.468  13.610   0.881  0.1169 -0.2244 -0.1054
12844W        W28918   3.399  11.439  14.565  0.1287  0.1448  0.1160
12845W        W28919   8.116   1.107   5.166 -0.0878  0.2865  0.0033
12846W        W28920  16.310   9.908   2.470  0.0867 -0.1482  0.3102
12847W        W28921   8.561   9.264   2.221 -0.0599  0.0956 -0.1852
12848W        W28922   9.324  15.646  16.412 -0.1249 -0.0168  0.1328
12849W        W28923   2.556   3.294  16.886  0.1057  0.1332  0.1749
12850W        W28924  11.348   9.549   0.471  0.0948  0.1368 -0.3171
12851W        W28925   2.797   4.308  14.846  0.0751 -0.0660 -0.1338
12852W        W28926   7.517  10.981  14.335  0.3004  0.2296  0.2809
12853W        W28927  12.715   5.408   1.761  0.2935  0.1832 -0.1212
12854W        W28928  11.752   2.391  16.033 -0.0620 -0.2285 -0.1507
12855W        W28929   3.817   5.851   3.502  0.2170 -0.2036  0.2219
12856W        W28930   2.852  17.180  15.094 -0.2721  0.0132  0.1466
12857W        W28931   3.941  11.041   4.762 -0.0177 -0.2755  0.0923
12858W        W28932  14.583  13.384   1.383  0.4875 -0.2069 -0.1716
12859W        W28933   2.972   0.023  15.983  0.2992 -0.2720 -0.0595
12860W        W28934   1.708  17.469  14.446 -0.0562 -0.0908 -0.0933
12861W        W28935  10.489   8.267  11.520  0.2340  0.0756  0.2507
12862W        W28936   8.687   4.158  11.907  0.4154 -0.1285 -0.0197
12863W        W28937  12.293   6.874   5.001  0.0484 -0.1753  0.0367
12864W        W28938   7.713   9.920  14.335  0.0180 -0.0608 -0.0864
12865W        W28939  12.591   1.739   1.761  0.2875 -0.1800 -0.0522
12866W        W28940  11.387   3.334   4.666 -0.1911  0.0851  0.1128
12867W        W28941   7.606   2.332  14.736  0.2857 -0.0381 -0.1784
12868W        W28942   4.393   1.803   1.278 -0.1405 -0.4580  0.2160
12869W        W28943   2.910   3.956  13.028 -0.2136 -0.1448 -0.1560
12870W        W28944   3.409   9.601   2.120  0.1399 -0.1599 -0.1953
12871W        W28945  16.003   4.430   6.325 -0.0192  0.0620 -0.0720
12872W        W28946   3.397   1.021   4.017  0.0826 -0.0254  0.0366
12873W        W28947   7.424   2.233  12.809  0.0690  0.2107 -0.2627
12874W        W28948  17.633   2.159  13.498  0.2812 -0.0941 -0.1541
12875W        W28949   9.062   4.924   4.389 -0.0205  0.0639 -0.0256
12876W        W28950   7.191  16.895  15.471 -0.0259  0.2267  0.0583
12877W        W28951   3.165   7.259  14.038  0.1055 -0.0390  0.0793
12878W        W28952  17.688  12.762  15.962  0.1832 -0.2273  0.1016
12879W        W28953  16.391  15.757   4.271  0.1158  0.0330  0.0235
12880W        W28954   7.477  15.685   3.243  0.1435  0.4573 -0.2316
12881W        W28955   5.287   9.880   1.412  0.4749  0.1466  0.1833
12882W        W28956   2.627  10.336   3.778 -0.0379 -0.1884 -0.1621
12883W        W28957  16.916   8.941   5.928 -0.0452 -0.0797 -0.0936
12884W        W28958  13.915  12.859   1.391  0.1162 -0.0157 -0.2017
12885W        W28959   4.777   6.928   0.137  0.1719 -0.2433 -0.0911
12886W        W28960   8.629   3.480  13.236  0.0871 -0.1848 -0.1410
12887W        W28961   3.853  17.690  13.770 -0.1378  0.3407 -0.0109
12888W        W28962  15.664  13.370   3.003 -0.1556  0.5032  0.0501
12889W        W28963   7.100  17.724   1.703  0.1016 -0.0518 -0.1838
12890W        W28964   9.638  11.539   5.266  0.1355  0.0402 -0.0927
12891W        W28965   0.048  13.527   1.296 -0.0320  0.3138  0.1440
12892W        W28966   4.104  15.285   2.329  0.4767 -0.1168 -0.2439
12893W        W28967  17.442   1.020   2.963  0.0692  0.0486 -0.0944
12894W        W28968   3.417   5.405  13.562 -0.0583  0.0687  0.1241
12895W        W28969  10.987   0.470   1.221  0.0467 -0.3520  0.0652
12896W        W28970   3.535   7.551   5.757 -0.0310 -0.3928 -0.0003
12897W        W28971  12.041   3.303  14.982 -0.1122  0.0648 -0.1100
12898W        W28972  16.970   3.000  13.757  0.1777 -0.2233 -0.1918
12899W        W28973   9.706   6.238   2.038 -0.0209  0.0478  0.0752
12900W        W28974  17.798   4.140   6.053 -0.1038 -0.1009 -0.1820
12901W        W28975  16.864   7.234   3.269  0.2116  0.3376  0.1865
12902W        W28976   7.848   4.901   1.633 -0.2454 -0.1752  0.0205
12903W        W28977  16.440   5.424   1.822  0.0547  0.1971 -0.1021
12904W        W28978  10.093  17.109  16.454  0.1999 -0.1310  0.1212
12905W        W28979  11.229  15.581  12.914 -0.0724  0.1900 -0.0315
12906W        W28980   9.558   7.999   1.501  0.1298 -0.0370 -0.0556
12907W        W28981  10.613   1.982   6.208  0.1577  0.0743 -0.0750
12908W        W28982   6.880  11.804   3.374  0.1680 -0.0094 -0.2344
12909W        W28983   2.939   7.787  12.161 -0.0452  0.1698 -0.0480
12910W        W28984   7.369  17.195   2.319  0.0095 -0.2873 -0.0118
12911W        W28985   8.806  10.708   0.453  0.0971 -0.3186  0.0252
12912W        W28986   8.183  11.386  13.103  0.3926 -0.0708  0.0750
12913W        W28987   0.115   9.349   3.704  0.1858 -0.1466 -0.1352
12914W        W28988   5.004   2.346   0.327  0.2156 -0.0354 -0.0235
12915W        W28989   3.254   4.992  15.818  0.1145  0.0717  0.1596
12916W        W28990  13.934   0.500   4.660 -0.1904  0.1297 -0.3215
12917W        W28991   0.271  15.265  12.545 -0.0981 -0.1581 -0.0010
12918W        W28992  11.997   8.203   2.081 -0.1467 -0.1013  0.0577
12919W        W28993  15.813   9.177   3.680  0.1572 -0.3030 -0.1838
12920W        W28994  10.982   7.581   4.403  0.0141 -0.0506  0.1305
12921W        W28995  14.440   4.668  13.250  0.0436  0.0241 -0.0154
12922W        W28996  12.366  16.800   6.255  0.0619 -0.0185  0.2669
12923W        W28997   0.703  12.837   4.041 -0.2567 -0.0378 -0.0044
12924W        W28998   4.971  17.164  16.940  0.1020 -0.2193  0.1719
12925W        W28999   2.861   4.107  16.149  0.0450  0.1085  0.1143
12926W        W29000   2.287   7.654   1.107  0.1968 -0.0903  0.0792
12927W        W29001   8.562   6.531   2.096 -0.3759  0.1056 -0.1998
12928W        W29002   2.442  13.205   2.876  0.0692 -0.0405 -0.0345
12929W        W29003   6.743   3.767   0.882 -0.2790  0.2759 -0.2786
12930W        W29004   9.438  13.607  12.259 -0.1790 -0.0838  0.1644
12931W        W29005   5.510   0.249   5.356  0.2363  0.1151 -0.3723
12932W        W29006   6.836  12.430   4.353 -0.0050  0.2048 -0.0506
12933W        W29007   6.907   8.532   3.680 -0.3223  0.1728 -0.1681
12934W        W29008   5.220  11.956  15.709  0.1023  0.2273 -0.1366
12935W        W29009   8.991   2.840  14.307 -0.1898  0.1323  0.1004
12936W        W29010   0.349   0.480  12.581 -0.1240 -0.2635 -0.0957
12937W        W29011   4.565  12.650  16.320  0.0706 -0.2324 -0.0813
12938W        W29012  13.247   4.656   0.146  0.3898 -0.0854 -0.1616
12939W        W29013   9.336  13.549   4.104  0.1195  0.0349 -0.2182
12940W        W29014  17.448  10.353  13.752 -0.1256  0.0218  0.1524
12941W        W29015  15.512   3.084   5.695  0.0282 -0.4889 -0.0789
12942W        W29016   0.174   4.016   2.339  0.0817 -0.0463 -0.0057
12943W        W29017  13.068  13.991  13.042 -0.0596  0.2504  0.1044
12944W        W29018  13.139  15.748  16.824 -0.0392 -0.1481 -0.2024
12945W        W29019  11.283   9.089   2.624  0.0880 -0.1684  0.0687
12946W        W29020   2.423   8.050   5.871  0.2092  0.2566 -0.1443
12947W        W29021  11.049  13.861  16.823 -0.1706 -0.0870  0.1963
12948W        W29022   4.898  15.409   4.574 -0.0788  0.0492 -0.1796
12949W        W29023   5.076   7.559   1.798  0.0518  0.1952 -0.0491
12950W        W29024  12.772  12.661  14.375 -0.2838 -0.0147  0.0790
12951W        W29025  14.410  16.037   5.683 -0.1676  0.1706 -0.0570
12952W        W29026  11.867   6.405  16.259  0.0143  0.1093  0.0782
12953W        W29027   4.666   6.431   3.231  0.1708  0.1810  0.1020
12954W        W29028   4.717   5.188  15.976  0.2765  0.0406 -0.0025
12955W        W29029   3.957  12.054  14.196 -0.0744  0.0531  0.1734
12956W        W29030  15.596  11.558   2.044 -0.1366 -0.2020 -0.0733
12957W        W29031   1.513   2.545   0.879 -0.3306 -0.1758  0.2081
12958W        W29032  12.023   4.113   2.134  0.1028 -0.2749  0.3937
12959W        W29033  17.279  12.867  15.645  0.0571  0.2038 -0.2245
12960W        W29034   2.890  13.061  16.757 -0.0327  0.3226 -0.2753
12961W        W29035   1.898   5.089   6.068  0.1786  0.1515  0.2465
12962W        W29036   7.303   8.700   1.585  0.0404  0.0316 -0.0805
12963W        W29037   5.588  10.175  16.261 -0.0035 -0.0327 -0.1262
12964W        W29038  11.213   8.776   3.038  0.1712  0.2012 -0.2681
12965W        W29039  17.260   9.303  15.415  0.0473 -0.0181 -0.0254
12966W        W29040   2.197   4.873  11.500 -0.3088  0.1306 -0.1031
12967W        W29041  10.547   2.526  14.958  0.3857 -0.2779 -0.2675
12968W        W29042  10.870   7.416  13.263 -0.1159  0.2969 -0.2039
12969W        W29043  13.007   8.213  10.501  0.0183 -0.0718  0.1519
12970W        W29044   2.690   5.617  15.326 -0.0050  0.1245  0.2941
12971W        W29045  17.686   6.878   2.934 -0.1718 -0.1420  0.2009
12972W        W29046   4.500  17.601   1.585 -0.1373  0.1717  0.3108
12973W        W29047  15.333   3.789   5.000 -0.0190  0.1606 -0.0722
12974W        W29048   6.460  10.154   5.972 -0.1242  0.1789 -0.1398
12975W        W29049  10.526   6.776  11.195  0.5036 -0.3666 -0.2241
12976W        W29050   5.245   5.123   0.243 -0.0751 -0.0029  0.2031
12977W        W29051   7.710   2.594   0.352  0.1327 -0.0618 -0.0630
12978W        W29052   1.974   0.944  13.765  0.1193  0.0698  0.0670
12979W        W29053   2.550  15.081  12.216  0.0679 -0.1311 -0.1635
12980W        W29054  14.765  11.687  15.552  0.1568 -0.0855  0.2295
12981W        W29055  12.391   8.021   1.060  0.4951 -0.2630 -0.1845
12982W        W29056   2.934  10.675  11.863 -0.1520 -0.2164  0.1944
12983W        W29057   2.036   9.826  12.251 -0.0191 -0.3066 -0.2158
12984W        W29058   5.289   1.154   2.909  0.0505 -0.0228 -0.0516
12985W        W29059  11.227   5.692  16.760  0.0802  0.0242  0.2748
12986W        W29060  10.448   4.186   1.085  0.0190 -0.0594  0.0046
12987W        W29061   6.099   6.914  12.967 -0.3645  0.1507 -0.3045
12988W        W29062   2.367  11.585  16.188  0.1182  0.1868 -0.0880
12989W        W29063  15.769   7.569   5.232 -0.1189 -0.1305  0.0142
12990W        W29064   4.038  14.207  12.937 -0.3235  0.0805  0.0140
12991W        W29065   9.609  15.107   0.030 -0.0830  0.6142  0.1662
12992W        W29066  10.106  12.606   5.571 -0.0102 -0.1538 -0.1002
12993W        W29067   1.711  16.456  13.293  0.1879 -0.0852 -0.0660
12994W        W29068  16.312   3.293  12.087 -0.0354 -0.2217  0.0117
12995W        W29069   9.422   3.795  13.619 -0.0067 -0.0017 -0.1995
12996W        W29070   2.213  17.045  11.660 -0.1858  0.2122  0.2751
12997W        W29071  12.782   0.741  15.649 -0.2653  0.1183 -0.2562
12998W        W29072   2.681  14.970  13.633 -0.1128 -0.0930 -0.2877
12999W        W29073   9.108   8.944   6.788 -0.0623 -0.1469  0.1470
13000W        W29074   0.788  11.069   1.512 -0.0335  0.1060 -0.1322
13001W        W29075  13.289   7.545  15.510 -0.1099  0.2258  0.3408
13002W        W29076  15.431  16.772   6.062  0.0769 -0.0236 -0.1788
13003W        W29077   8.653   6.047  12.218 -0.3414 -0.2788 -0.2528
13004W        W29078  13.380   4.517   4.841 -0.1661  0.1705  0.0343
13005W        W29079   6.450   5.427   3.125 -0.1514  0.1313 -0.0605
13006W        W29080  16.074   4.805   4.263 -0.1345  0.0107 -0.0758
13007W        W29081  17.694  12.172   3.331 -0.0008  0.0438  0.1386
13008W        W29082  15.215  16.576  11.755  0.2299  0.1367  0.1276
13009W        W29083  11.372   0.026   3.198  0.0797  0.2212 -0.1134
13010W        W29084   3.959   4.729   0.198 -0.1248 -0.1915  0.1533
13011W        W29085  12.517  16.761   1.456 -0.3213 -0.1103 -0.1928
13012W        W29086   8.375  14.576   0.028 -0.0733  0.1359  0.0792
13013W        W29087   0.884   8.922  14.882  0.3258  0.2284  0.4377
13014W        W29088  11.654  15.813  11.424 -0.0142  0.0448  0.1454
13015W        W29089   5.739   0.184   3.120  0.0437  0.0549  0.0714
13016W        W29090   3.936   3.935  12.767 -0.2239  0.0790  0.0467
13017W        W29091   3.715   4.380  13.010 -0.0356 -0.0918 -0.0974
13018W        W29092   8.215   6.756   4.617  0.0546  0.1378  0.1259
13019W        W29093  17.687  17.731   5.490  0.3319 -0.3075  0.0569
13020W        W29094   3.386   2.023   0.345  0.0724 -0.2933  0.0020
13021W        W29095  13.278   4.360  16.088 -0.1572  0.0852  0.0127
13022W        W29096  15.088   6.125  12.179 -0.1726 -0.1330 -0.1091
13023W        W29097  17.227   3.314  14.967 -0.1442 -0.0885 -0.0219
13024W        W29098   1.173   9.347   2.642  0.2438  0.0644 -0.3239
13025W        W29099  13.341  13.143  14.678 -0.0423 -0.0888  0.2465
13026W        W29100   4.917   7.862   5.948  0.1962  0.2518  0.0141
13027W        W29101   0.031   0.217  16.526  0.3004  0.1405  0.1611
13028W        W29102  11.924   8.198   0.765  0.1922  0.1004 -0.2487
13029W        W29103  12.915  15.605   2.488  0.0417 -0.0076  0.0230
13030W        W29104   5.532  10.875  15.394  0.0021  0.2271 -0.1180
13031W        W29105  11.474   9.224   3.107  0.1807  0.2179 -0.0888
13032W        W29106   0.282   4.339  16.320 -0.1574 -0.1955 -0.2835
13033W        W29107   1.361   0.816   6.086 -0.1754  0.2501  0.1351
13034W        W29108   2.668   6.195   2.396  0.0315  0.2727  0.0707
13035W        W29109  13.678   2.472   2.188 -0.0778  0.0044 -0.0005
13036W        W29110   6.685   1.352   2.940  0.1980  0.2190  0.3080
13037W        W29111  17.786  16.845   2.090 -0.0619  0.2459  0.2552
13038W        W29112  16.313  11.017  12.527  0.1206  0.2605  0.0842
13039W        W29113   4.695   9.055   1.928  0.0421  0.0416  0.1478
13040W        W29114  11.293  12.805  11.821  0.2541  0.0060 -0.2366
13041W        W29115  15.750  11.831   2.897  0.0484 -0.0068  0.3711
13042W        W29116  11.143  13.626   3.634 -0.2642  0.0556  0.0410
13043W        W29117  12.340  14.158   2.630 -0.1075 -0.0808  0.2215
13044W        W29118   1.692   9.967  14.678 -0.2002 -0.0019  0.4854
13045W        W29119   8.455  15.641  14.337  0.1555  0.0981  0.0003
13046W        W29120  16.870   2.183   2.750  0.2605  0.0686 -0.0538
13047W        W29121  10.330  10.263  16.674 -0.0855 -0.1461  0.1656
13048W        W29122  12.681  13.293  11.795  0.0958 -0.1429  0.3322
13049W        W29123   5.862  16.613  12.406 -0.1545  0.1351  0.0575
13050W        W29124   3.920   0.500  13.023 -0.2132 -0.0028 -0.2053
13051W        W29125  16.117   2.957  14.742 -0.1789  0.2096 -0.1303
13052W        W29126  16.036  15.675  15.787  0.0922 -0.0222  0.1269
13053W        W29127  13.906   2.666  16.000 -0.2270  0.0473  0.1111
13054W        W29128   6.192  16.463   2.157  0.0720  0.4424  0.1625
13055W        W29129   3.799   0.333   0.557 -0.0837  0.1005  0.1154
13056W        W29130  10.884   6.131   2.900 -0.1628  0.0375  0.2246
13057W        W29131   2.785   7.649   5.723 -0.0192 -0.1953 -0.0652
13058W        W29132   4.712  15.587  14.175  0.0012 -0.0824 -0.1896
13059W        W29133  13.836   2.541  12.691  0.0528  0.3462  0.0046
13060W        W29134   4.974   9.695  15.300 -0.1646 -0.1260 -0.3962
13061W        W29135  14.220   1.332  11.754 -0.1540  0.3469  0.1647
13062W        W29136  10.993  12.251   0.213  0.1422 -0.0288  0.2501
13063W        W29137   7.821   5.579  12.112  0.0606  0.1028  0.0573
13064W        W29138  17.557  17.192  12.912 -0.0334  0.0459 -0.0667
13065W        W29139   9.477   7.106   4.817 -0.0697 -0.4189 -0.0553
13066W        W29140   1.979   5.285   3.853  0.0527 -0.0739  0.1901
13067W        W29141   4.666   0.235   1.729  0.0678  0.0118 -0.1972
13068W        W29142  12.741   4.321   0.601 -0.2914  0.1115 -0.0839
13069W        W29143  10.046  11.946   1.736 -0.0026  0.1026  0.2157
13070W        W29144  12.918   3.442  12.311 -0.2808  0.1721  0.0001
13071W        W29145   5.274   9.339   3.990 -0.3168 -0.1924 -0.1355
13072W        W29146  17.231  17.607  13.200  0.0268 -0.2361  0.0036
13073W        W29147   5.824  11.435   5.276  0.1951  0.2696  0.2246
13074W        W29148   8.388   4.520   5.062  0.1187  0.0659  0.1500
13075W        W29149   0.973  10.083   5.583  0.3679 -0.0999 -0.0148
13076W        W29150   8.833   5.793  13.300  0.2288  0.1450  0.0515
13077W        W29151  11.871   2.200   3.110 -0.1429  0.1688 -0.0824
13078W        W29152   4.943   1.567   2.182  0.1565  0.1441  0.1092
13079W        W29153   5.846  17.732   2.709 -0.0498  0.2047 -0.3257
13080W        W29154   5.249  12.151  13.453  0.0189  0.2463 -0.1907
13081W        W29155   7.237  13.465  16.216  0.1893 -0.0412  0.1620
13082W        W29156   8.996   7.784   5.305  0.2101  0.2566  0.1371
13083W        W29157  11.970   1.958   3.496  0.0197 -0.2562 -0.0818
13084W        W29158   3.902   4.118  11.679 -0.0155  0.0004  0.1711
13085W        W29159  13.324  16.641   3.750 -0.0820  0.3366 -0.1624
13086W        W29160   8.551  10.037  15.488 -0.0842 -0.0922 -0.0294
13087W        W29161   2.944  14.327   5.923 -0.1847  0.1073 -0.2811
13088W        W29162  10.417  12.780   4.716 -0.1354 -0.0935 -0.0173
13089W        W29163  11.076   9.298   1.386 -0.1414 -0.1060  0.2141
13090W        W29164  17.229   4.243   1.999  0.0761  0.1054  0.2625
13091W        W29165   3.181  10.351  15.277 -0.1047 -0.1033  0.0602
13092W        W29166  15.517  15.447  12.359 -0.1561  0.1942  0.0817
13093W        W29167   6.894   8.976   0.234 -0.2190  0.0799 -0.2243
13094W        W29168  17.624   3.606   0.037 -0.2331  0.0489  0.1580
13095W        W29169   9.738  17.683  16.833  0.2906  0.0521 -0.0929
13096W        W29170  14.759  12.685  12.402  0.3294  0.0029 -0.0656
13097W        W29171   1.329  11.386   3.455 -0.1950 -0.1599  0.1899
13098W        W29172   6.129  17.264   4.436 -0.2027 -0.0891 -0.2272
13099W        W29173   2.263   2.380   1.526  0.1677  0.2462  0.1407
13100W        W29174   4.550  12.975   1.253  0.1124 -0.0099 -0.3523
13101W        W29175   2.250   3.693  14.193  0.2166  0.1229 -0.0859
13102W        W29176  13.344   8.593   2.475 -0.0701 -0.1040  0.2725
13103W        W29177   8.091   0.747   6.087  0.1475  0.1077 -0.3719
13104W        W29178  13.590   4.810  11.658 -0.2205 -0.2751  0.0366
13105W        W29179   1.292   8.857  14.059  0.2020  0.2283  0.1547
13106W        W29180  16.895   2.298   1.563 -0.0594  0.1652 -0.0117
13107W        W29181   1.110   9.729  15.780  0.2318 -0.0654 -0.0059
13108W        W29182   4.492   8.483  16.845  0.0477 -0.3352  0.1499
13109W        W29183  10.485  12.176   2.942  0.0695  0.0937 -0.1029
13110W        W29184   0.114   9.980   4.115 -0.0483  0.0482 -0.0567
13111W        W29185  17.159   5.153  14.110 -0.1159 -0.1294 -0.3069
13112W        W29186   2.837   1.434   5.261 -0.0057  0.2607 -0.2138
13113W        W29187  12.445   8.200   2.473 -0.0404 -0.0387 -0.1282
13114W        W29188  14.989  14.294  15.761  0.1607 -0.0561 -0.1200
13115W        W29189  14.852   6.137   5.808 -0.2994  0.0601  0.2353
13116W        W29190  15.227   2.356   3.700 -0.1042  0.0621  0.2845
13117W        W29191   4.240   6.828   4.107 -0.0521  0.1627  0.3422
13118W        W29192   5.431   3.030  12.493  0.1287  0.4429  0.1046
13119W        W29193   0.803  10.809  13.851  0.4114  0.2658 -0.0177
13120W        W29194  15.970   9.583   2.207 -0.0379 -0.3262 -0.2293
13121W        W29195  16.314   3.419  16.052  0.1060 -0.2224 -0.1353
13122W        W29196  14.857   6.984  12.473 -0.2000 -0.1879 -0.0845
13123W        W29197   9.666   1.884   5.364  0.0965  0.1617  0.0099
13124W        W29198  14.212   6.965  14.843  0.0408 -0.0406  0.3730
13125W        W29199   1.731  15.262   1.057 -0.2956 -0.0642  0.1278
13126W        W29200  17.071   1.454  13.890  0.0766 -0.0747  0.0299
13127W        W29201   2.034   9.201   5.119  0.0682 -0.1896 -0.2083
13128W        W29202   5.763   7.151   0.688 -0.1406  0.2178 -0.1550
13129W        W29203  17.130   3.254   0.676  0.0104  0.1163  0.0073
13130W        W29204  15.409  14.491   1.175 -0.1447 -0.7674  0.1610
13131W        W29205  16.885  10.028   3.945 -0.0080  0.0263  0.0114
13132W        W29206  13.402   9.189  15.411 -0.2529  0.4465  0.2198
13133W        W29207   0.630   8.960  13.017  0.1489  0.0200  0.0576
13134W        W29208  12.354  16.677   2.299 -0.2387 -0.1548  0.1698
13135W        W29209   7.453   8.508   1.099  0.3703 -0.2080  0.0775
13136W        W29210   8.207  16.921  16.273 -0.0312 -0.1290 -0.2147
13137W        W29211  10.981  11.786  13.248  0.1028  0.1211 -0.0851
13138W        W29212  16.229  14.879  15.391  0.0531 -0.2633  0.0607
13139W        W29213  10.728   8.021   5.703  0.1343 -0.1571  0.3290
13140W        W29214   2.098  13.838   4.492 -0.0337  0.1602  0.2202
13141W        W29215   3.402   2.575   5.006  0.1366 -0.0647  0.0191
13142W        W29216   8.604   3.206   0.532 -0.4024 -0.1840 -0.0585
13143W        W29217  16.424  11.513   0.619 -0.0325  0.1445  0.1628
13144W        W29218  10.228   9.195   1.773  0.2051  0.1890  0.0265
13145W        W29219   5.647  15.333   1.292  0.0244  0.0840 -0.1922
13146W        W29220   6.183  14.407   1.874  0.2679 -0.0082  0.0082
13147W        W29221   6.849   5.577   3.892 -0.0378  0.0706 -0.1566
13148W        W29222  17.777   8.626  12.454  0.2212  0.0300 -0.1181
13149W        W29223   2.008   2.351  13.566  0.2557  0.1843  0.0272
13150W        W29224   5.282  14.955  11.820 -0.2492 -0.0337  0.0188
13151W        W29225   2.950   0.917   1.872 -0.0165 -0.0092 -0.0077
13152W        W29226   7.980   6.358  15.154 -0.2507  0.1523 -0.0688
13153W        W29227   8.628  14.867  13.292 -0.1617 -0.0875  0.1067
13154W        W29228  13.735  12.897  14.401 -0.0103 -0.2858  0.0158
13155W        W29229  16.266   8.570  12.802 -0.1792  0.0826 -0.0236
13156W        W29230   4.765  13.353   1.496  0.2362  0.0717 -0.1320
13157W        W29231   9.014   1.478   1.710  0.3390  0.2076  0.0596
13158W        W29232   4.389  14.813   1.346  0.2706 -0.0196 -0.0104
13159W        W29233  11.214   9.030  10.181 -0.0514  0.0310 -0.0403
13160W        W29234   5.967   7.789   1.429  0.1603  0.2959  0.2054
13161W        W29235   7.684  17.003  13.299 -0.1279  0.1302  0.1730
13162W        W29236   9.400   9.450  15.842 -0.2657  0.2231 -0.1677
13163W        W29237   7.125   9.537   0.125 -0.3654  0.0390  0.1437
13164W        W29238   1.885  11.680   0.829  0.2016  0.0394  0.4692
13165W        W29239   4.863   7.335  12.535 -0.2656 -0.0849  0.0433
13166W        W29240   6.253  12.813   2.910 -0.2652 -0.3215 -0.2256
13167W        W29241   0.032   9.321   4.664  0.2801  0.6188  0.1207
13168W        W29242   6.944   6.518   0.447 -0.4228  0.3685 -0.2938
13169W        W29243   4.477   9.490   6.050  0.0074 -0.0389  0.0387
13170W        W29244   5.270   7.063   3.113  0.0694 -0.3325  0.1651
13171W        W29245  14.283  17.648  11.329 -0.0885 -0.1054  0.0167
13172W        W29246   3.842  11.472  14.245  0.0022 -0.0881 -0.1979
13173W        W29247  13.358  15.485  15.397  0.0555 -0.1112 -0.1930
13174W        W29248  12.637   1.023   0.197  0.1191 -0.1998 -0.0764
13175W        W29249  12.192   2.495   2.281 -0.0759  0.0734 -0.2188
13176W        W29250  15.756  10.992   3.467  0.2223  0.0832 -0.0829
13177W        W29251   8.855  10.825  16.794  0.0204 -0.0990  0.2855
13178W        W29252  13.121   0.505  12.506 -0.0330  0.1662  0.3321
13179W        W29253  12.345   8.139   0.467  0.0465 -0.1549 -0.1261
13180W        W29254   0.087   3.145  14.028 -0.0482 -0.2288  0.0220
13181W        W29255   4.171  15.820  13.442  0.0578 -0.0961  0.0619
13182W        W29256  10.430   5.390  13.510 -0.2986  0.0091 -0.0417
13183W        W29257  14.300  10.948   3.176 -0.1498  0.1146  0.3672
13184W        W29258  11.888   3.189   4.657 -0.0331  0.1419  0.1186
13185W        W29259   3.816   0.922  12.575 -0.1690 -0.0738 -0.0922
13186W        W29260   5.328   7.702  15.037  0.3366  0.2804 -0.0304
13187W        W29261   3.303   4.258  13.274  0.2354 -0.3703  0.1783
13188W        W29262   3.572   4.985   1.630 -0.0830  0.1250 -0.1801
13189W        W29263  11.048   8.482   4.849 -0.0199  0.2251 -0.2234
13190W        W29264   7.782   0.576  16.836 -0.3660  0.0365  0.0669
13191W        W29265   0.014   2.181  13.041  0.1310  0.0028  0.0636
13192W        W29266   8.076   5.552   1.366 -0.2724 -0.3432  0.1909
13193W        W29267  16.623  13.813  13.073 -0.1003  0.0730 -0.0617
13194W        W29268  10.742  17.239   3.538  0.1997 -0.0175  0.0843
13195W        W29269  17.638  17.460  15.680 -0.1635 -0.0612 -0.1017
13196W        W29270   2.460   1.424   4.914  0.0789 -0.0360  0.1840
13197W        W29271  10.676  13.590   3.354  0.0451  0.0775  0.0597
13198W        W29272  12.044   7.973   5.910 -0.0993  0.0272 -0.1440
13199W        W29273   5.343   6.244   2.694  0.0457  0.2221 -0.0109
13200W        W29274   8.776  12.097  16.587  0.1298 -0.1349  0.0945
13201W        W29275  17.066  15.622   4.170 -0.0598  0.3093 -0.0358
13202W        W29276  17.200  15.608  14.049 -0.1942 -0.2283 -0.0979
13203W        W29277  12.163  17.453  13.578  0.0143  0.0128 -0.0178
13204W        W29278  11.737   1.425  16.445  0.1969 -0.1544 -0.1194
13205W        W29279   5.235  11.551   1.303  0.1738  0.0029  0.0675
13206W        W29280  16.063   8.919   3.337 -0.2658 -0.0006 -0.2426
13207W        W29281   9.340   1.486  13.525  0.1426  0.2608 -0.1165
13208W        W29282   7.549   3.907  15.739  0.0044 -0.1695  0.3860
13209W        W29283  11.028   5.356  10.345 -0.3704  0.2047  0.1346
13210W        W29284   4.076   6.155   1.270 -0.5444 -0.4519  0.1961
13211W        W29285   4.431   0.534   2.818  0.0888 -0.0467  0.2376
13212W        W29286   9.300   3.979   4.087  0.2661 -0.0702 -0.1975
13213W        W29287   5.065  10.769  14.345 -0.0479 -0.0074 -0.2996
13214W        W29288   7.301   4.054  14.111  0.0142 -0.2424 -0.0977
13215W        W29289  13.703  11.267  13.422 -0.0031 -0.0514 -0.0168
13216W        W29290  14.565   7.541   4.953 -0.0997  0.2520  0.4376
13217W        W29291   7.251   4.885  12.584 -0.1448 -0.0047  0.2297
13218W        W29292   8.162   8.906  14.581  0.0498  0.1409 -0.3105
13219W        W29293  16.590   8.435   1.020  0.0688  0.3247 -0.4718
13220W        W29294   9.850  15.911   6.436  0.0259  0.1471 -0.0386
13221W        W29295  11.765   7.502  12.845  0.2361 -0.2196  0.1643
13222W        W29296   0.425   6.807  15.649 -0.1422 -0.2396  0.0638
13223W        W29297  17.535   3.945  14.314  0.0916 -0.0086 -0.1190
13224W        W29298  17.085  12.269  11.771 -0.0675 -0.2774 -0.2377
13225W        W29299  11.044   9.866  13.016  0.3645 -0.3552  0.0622
13226W        W29300   9.147  16.836  16.789 -0.1922  0.0153 -0.0278
13227W        W29301   1.334  13.843   0.908  0.2154 -0.0734 -0.0280
13228W        W29302  13.157   8.182   1.386  0.1735  0.1597  0.0455
13229W        W29303   7.084  13.848  15.598  0.0158  0.1346 -0.0714
13230W        W29304   0.755  12.279  14.898  0.0621 -0.1160 -0.0118
13231W        W29305  12.428  14.810  13.471 -0.0176  0.0195  0.0581
13232W        W29306   1.651   8.669  15.888  0.1488  0.0602 -0.2399
13233W        W29307   0.329  17.765  16.809 -0.0586 -0.0250 -0.0002
13234W        W29308  16.825   7.458   1.031  0.2432  0.1697 -0.2325
13235W        W29309  14.817   6.704   0.473  0.0024 -0.0980  0.1410
13236W        W29310   2.314   4.956   1.686  0.0373  0.0196  0.2724
13237W        W29311  13.166   7.774  14.517 -0.1306  0.1410  0.0866
13238W        W29312   4.140   9.047   2.070 -0.1715  0.2693 -0.0478
13239W        W29313  10.777  15.794  12.731  0.2222 -0.0119  0.1337
13240W        W29314   9.025   5.844   1.853  0.1621 -0.0475 -0.0616
13241W        W29315   4.113   9.329   5.741  0.2792 -0.0887 -0.2352
13242W        W29316  10.468   0.445  11.666 -0.1543 -0.2443 -0.3544
13243W        W29317   9.045   8.836  12.593 -0.2072 -0.2516  0.0264
13244W        W29318   7.341   4.044  11.800 -0.1948  0.3228 -0.1436
13245W        W29319  12.441   9.188  12.292 -0.2031 -0.1522  0.0906
13246W        W29320   7.745   3.535  15.228 -0.0095 -0.4246 -0.0606
13247W        W29321  16.478   3.547   1.996  0.0362 -0.1799  0.1285
13248W        W29322  12.818   1.659   5.227 -0.1553  0.0404  0.0274
13249W        W29323   1.210   7.295  16.413 -0.2084 -0.0581  0.2303
13250W        W29324  12.640   2.678   1.963 -0.2300  0.1332 -0.0512
13251W        W29325  11.558   4.616  12.301  0.1990 -0.0809  0.0601
13252W        W29326   8.111   6.743   2.273 -0.1897 -0.2764  0.1889
13253W        W29327   3.756  14.796  14.768  0.0957 -0.1526  0.0148
13254W        W29328  16.459   4.033  15.927 -0.0411 -0.0980 -0.2492
13255W        W29329  14.420   1.130   4.638  0.1612 -0.1755  0.0065
13256W        W29330   3.149  17.048  15.828 -0.0889  0.0246  0.0048
13257W        W29331   6.530  17.615  13.749 -0.0988  0.0368  0.3110
13258W        W29332   4.194  16.745   0.958  0.1397 -0.0226 -0.0368
13259W        W29333   9.743  10.383   4.176 -0.2073 -0.0918  0.1234
13260W        W29334  12.128  11.311   4.426 -0.1087 -0.2832  0.1736
13261W        W29335  13.582   2.081  16.491  0.0592 -0.0557 -0.3846
13262W        W29336  16.383  14.532  15.819  0.0745  0.2128  0.0906
13263W        W29337   2.329  15.494   1.682  0.0421 -0.3460  0.4232
13264W        W29338  14.371  12.530  15.501  0.0423 -0.3197 -0.1455
13265W        W29339   6.405  14.679  12.913  0.0697 -0.1636  0.1004
13266W        W29340  12.343  14.238  15.267  0.1702 -0.1688 -0.1116
13267W        W29341   2.830   2.136  14.040 -0.2481  0.1187 -0.2382
13268W        W29342  12.617   5.131  12.994  0.2193  0.2803  0.3067
13269W        W29343   6.786   2.266  11.942  0.1137  0.0688  0.0475
13270W        W29344   7.764   7.864   4.862 -0.0715  0.0363  0.0941
13271W        W29345  12.391   5.303   4.864 -0.2357  0.0081  0.1658
13272W        W29346   5.462  15.326   2.388  0.0371 -0.2465  0.1904
13273W        W29347  13.435   7.668   2.505  0.1140  0.1588 -0.0352
13274W        W29348  11.992   1.577  15.950  0.1610  0.0026  0.1405
13275W        W29349   2.201  10.136   2.442  0.2715 -0.0354 -0.1832
13276W        W29350   2.967  14.729   3.908 -0.1451  0.0348  0.1606
13277W        W29351  14.450  14.395  15.102 -0.0038 -0.1208 -0.2432
13278W        W29352   7.865   4.736  16.040  0.0734  0.3217  0.2481
13279W        W29353   2.277  10.715   3.356  0.1195  0.0523  0.4096
13280W        W29354  16.838   7.813   2.446 -0.1863  0.3417  0.1518
13281W        W29355   9.684  13.530  13.957 -0.2054  0.1470 -0.0033
13282W        W29356   6.429   4.664  15.747 -0.1094  0.4731 -0.0635
13283W        W29357  11.629   8.849  14.795 -0.3297  0.0307  0.0361
13284W        W29358  17.620  16.414   2.217  0.2602  0.3094  0.2792
13285W        W29359  11.099  10.076  15.091  0.1277 -0.1123 -0.0404
13286W        W29360  12.013   9.522   0.867  0.2695 -0.1224  0.1105
13287W        W29361   3.177   1.864   5.345  0.1791 -0.0988 -0.1670
13288W        W29362  11.888   4.646   2.957  0.2854 -0.2252  0.1043
13289W        W29363  16.123   5.920   1.583 -0.3663 -0.0741  0.1715
13290W        W29364  13.586  14.280  16.153  0.1352  0.1138  0.1454
13291W        W29365  16.340  10.782   2.785 -0.1265 -0.1660 -0.0225
13292W        W29366  15.897   0.589  15.233 -0.0069  0.1453 -0.2091
13293W        W29367  14.830  13.680  14.641  0.0881 -0.0670 -0.0932
13294W        W29368   4.077   3.718   2.820 -0.0537 -0.0276 -0.0389
13295W        W29369   0.677  11.653  13.452  0.3061  0.0954  0.2857
13296W        W29370   2.774   3.496  13.607 -0.2075 -0.0019 -0.3715
13297W        W29371   5.007  17.025   1.112 -0.0576 -0.1580  0.2590
13298W        W29372   7.251   8.414  16.118 -0.1748 -0.1159  0.1111
13299W        W29373  15.473  15.731   4.333  0.0287 -0.1609  0.3377
13300W        W29374  13.528   1.333   4.886  0.0478 -0.2618  0.1480
13301W        W29375   3.322   7.200  14.603 -0.0243 -0.0136 -0.1746
13302W        W29376  16.641  14.254   1.184 -0.2082  0.0550  0.3053
13303W        W29377   2.236   4.424   3.381 -0.2023 -0.0548  0.0611
13304W        W29378   6.498   4.228  14.799 -0.2844  0.1488  0.3286
13305W        W29379   5.969  14.414  15.739 -0.0322 -0.1188 -0.1273
13306W        W29380   5.860   1.692  16.303 -0.1029 -0.2213  0.0928
13307W        W29381   6.346   7.442   1.327 -0.0269  0.2098  0.2094
13308W        W29382   7.661  10.471  12.370  0.1401  0.3771 -0.0829
13309W        W29383   5.518   2.743  13.879 -0.0029  0.1206  0.1231
13310W        W29384   4.842  10.230  13.148 -0.2464 -0.1891  0.1216
13311W        W29385  14.112  11.786   4.768  0.0522 -0.1290  0.3208
13312W        W29386   8.261  15.548   0.466  0.1990 -0.0442 -0.1479
13313W        W29387   5.553  15.601  12.339  0.0176 -0.0121  0.0369
13314W        W29388  17.073  10.500   4.103  0.2070 -0.2587 -0.1594
13315W        W29389   9.101  10.292  12.610  0.0224 -0.0509  0.5579
13316W        W29390  15.078   8.218   2.790  0.0626  0.0251  0.0790
13317W        W29391  14.715   8.226  16.200  0.1188 -0.0443  0.1826
13318W        W29392  11.382  12.029   3.192 -0.0006  0.2382 -0.3181
13319W        W29393   0.452   1.393   3.219  0.1333  0.0243 -0.1697
13320W        W29394   4.733   8.793   5.035  0.1172 -0.2582  0.0135
13321W        W29395  16.354  15.770   4.756 -0.1937 -0.1843 -0.0374
13322W        W29396   7.441   5.826   1.922  0.2499 -0.0774 -0.0593
13323W        W29397   4.638  11.704  16.492  0.2699  0.0325  0.0963
13324W        W29398   8.224   8.730   4.622  0.2735  0.0081 -0.2838
13325W        W29399  10.761  10.265  12.293 -0.2315 -0.1284 -0.1644
13326W        W29400  14.987   1.362  13.610  0.2378  0.2056  0.3443
13327W        W29401   5.816  13.875  13.689  0.3451 -0.0978 -0.1853
13328W        W29402   7.197   7.142  14.380 -0.1730  0.0167 -0.4229
13329W        W29403   5.607   2.494  16.057 -0.0197  0.3142  0.1278
13330W        W29404   5.381  16.515  12.570 -0.2210  0.1848 -0.3479
13331W        W29405  16.593   6.546  16.583  0.0323  0.2492  0.0156
13332W        W29406  16.898   5.682   4.644 -0.2780 -0.1345  0.2251
13333W        W29407  11.479   8.690  14.307 -0.0165 -0.0740 -0.0127
13334W        W29408  12.722  10.154  13.346 -0.1531 -0.1181 -0.1593
13335W        W29409  17.346   2.471  12.152  0.1855 -0.0572 -0.2857
13336W        W29410  10.535   8.287   1.809 -0.1153  0.2160 -0.1833
13337W        W29411  13.458   1.651   2.495 -0.0258  0.2780  0.2692
13338W        W29412   5.490  17.369   2.806 -0.0249  0.0585 -0.0552
13339W        W29413   3.282  14.550  14.688 -0.0001 -0.0216  0.1827
13340W        W29414   2.100  15.015   4.296 -0.1614  0.2695 -0.4466
13341W        W29415  13.107   6.302  14.067 -0.1563  0.0735 -0.3468
13342W        W29416   2.609  17.751  16.434 -0.1803 -0.1186 -0.0767
13343W        W29417  12.027   6.885   3.933 -0.1261  0.0582 -0.1973
13344W        W29418   4.584   3.978   1.116 -0.0099  0.2597 -0.2199
13345W        W29419  14.397   9.964   3.731 -0.2552  0.0094  0.2085
13346W        W29420  17.405   5.303   0.796  0.0487 -0.1436  0.1076
13347W        W29421   0.417   8.176   3.501  0.1835 -0.1359  0.0236
13348W        W29422   0.007   9.757  12.871 -0.0546 -0.1575 -0.0606
13349W        W29423   6.334   1.365   0.510  0.0575 -0.0714  0.1924
13350W        W29424  16.951  14.665   3.815  0.0905  0.1266 -0.1595
13351W        W29425  10.555  13.653   1.787  0.6522  0.0666 -0.2274
13352W        W29426  13.281   0.712  11.011  0.0317  0.0715  0.1013
13353W        W29427  10.814   6.030  16.071 -0.2964 -0.3911 -0.1079
13354W        W29428   1.058   2.728  16.957 -0.0480  0.0989  0.1580
13355W        W29429   8.297   1.468  12.913 -0.1610 -0.1869 -0.1117
13356W        W29430  11.208   5.052   3.407  0.1105 -0.1023 -0.0930
13357W        W29431  15.293  11.612  12.225 -0.3634 -0.1895 -0.0878
13358W        W29432   5.928   8.780   1.415 -0.1550 -0.1921 -0.1945
13359W        W29433  13.126   4.047  14.400  0.1519  0.0425  0.0724
13360W        W29434   7.441  16.273   5.149 -0.2977  0.0757 -0.2681
13361W        W29435   3.967  16.800   6.159  0.0884  0.0349 -0.1863
13362W        W29436   4.617  13.824   1.683  0.0502  0.1510  0.0542
13363W        W29437  13.607   2.328   3.015  0.1823 -0.0440  0.0465
13364W        W29438  15.388   1.049   1.426  0.0358  0.3039 -0.0868
13365W        W29439   3.093  16.697  14.941 -0.1481  0.1524  0.1072
13366W        W29440   2.481   1.326   4.189  0.4350 -0.0122  0.1494
13367W        W29441   0.330  15.873   5.654 -0.0825  0.0048 -0.0454
13368W        W29442  13.250   9.624  12.238  0.1493  0.1701 -0.1323
13369W        W29443   9.199  14.294  12.598  0.2863 -0.2193 -0.0696
13370W        W29444   7.907  15.554   5.810  0.0312  0.1069 -0.0714
13371W        W29445  14.061  14.183   5.575  0.2980 -0.1499 -0.0997
13372W        W29446   6.478  11.405  13.043  0.2885 -0.0315  0.1306
13373W        W29447   8.056   9.903   2.861 -0.0597  0.0417 -0.0503
13374W        W29448   3.344   8.048   2.759  0.2905 -0.2131  0.0636
13375W        W29449   6.422  11.845   1.694 -0.2352  0.0347 -0.2914
13376W        W29450   3.701  15.522   2.665  0.1078  0.0673  0.3064
13377W        W29451  16.353  13.631   6.081  0.1881 -0.1593  0.4492
13378W        W29452   9.460  16.943   2.601  0.1157 -0.3120  0.1021
13379W        W29453   4.359   5.289  12.009 -0.0668  0.2930 -0.0071
13380W        W29454   6.611  16.867   5.810 -0.0470 -0.0428 -0.0041
13381W        W29455  10.460   0.722   1.878 -0.2871  0.2420  0.1287
13382W        W29456   2.848   0.679   4.164 -0.0288 -0.1015  0.1653
13383W        W29457  13.852   1.792   4.978 -0.1465 -0.0685 -0.2341
13384W        W29458   2.849  14.912  12.621 -0.1513 -0.1633  0.0458
13385W        W29459   4.549   9.181  12.615 -0.1473  0.2803  0.0717
13386W        W29460  15.868  15.418   2.979 -0.1414  0.0480  0.2802
13387W        W29461   2.327   3.119   2.449  0.0641 -0.1848 -0.3109
13388W        W29462  15.528   6.427  14.021  0.0339 -0.1140 -0.1783
13389W        W29463  13.830   8.377  15.342 -0.2035  0.1900 -0.4237
13390W        W29464  14.942   0.102   0.560  0.1294 -0.1779  0.2136
13391W        W29465   2.900   9.173   1.981  0.3487  0.2695 -0.2114
13392W        W29466   5.938  17.386   2.327  0.3133  0.1028  0.2749
13393W        W29467   3.785  14.095  13.384  0.0722 -0.2842 -0.0976
13394W        W29468  12.426   5.861   3.840  0.1063  0.2224 -0.0626
13395W        W29469   0.341  16.882  10.826 -0.1303 -0.1844 -0.1344
13396W        W29470   5.788   3.904   0.479  0.3227  0.0158 -0.3725
13397W        W29471   1.667   9.076  13.750 -0.2355 -0.4077 -0.0145
13398W        W29472   9.050   8.387   4.053  0.4621 -0.2687 -0.0566
13399W        W29473  15.617   1.265   5.431  0.0352 -0.3730 -0.1158
13400W        W29474   8.221  13.495  11.562  0.0461  0.0217 -0.2035
13401W        W29475  16.006  13.581  12.450 -0.1272  0.2508  0.1499
13402W        W29476   4.400   1.179   5.120 -0.0587 -0.1803  0.2792
13403W        W29477   8.769  15.682   2.016  0.0127 -0.1430  0.1345
13404W        W29478  17.223   3.883   5.285 -0.2248 -0.1749  0.0217
13405W        W29479   2.484  13.351   0.034 -0.0662  0.2003 -0.3260
13406W        W29480  13.558   4.279   3.444 -0.1284  0.1603  0.1505
13407W        W29481   5.041  10.249   5.574  0.0519  0.1192  0.3264
13408W        W29482   7.348  14.678  15.824  0.3368 -0.0166  0.1290
13409W        W29483   8.544  15.656   0.883 -0.0473 -0.1454  0.2144
13410W        W29484   0.355   1.866  15.803  0.1252 -0.1338  0.1248
13411W        W29485  14.580  13.915   1.950  0.1422 -0.3089 -0.2896
13412W        W29486   6.104   0.058  16.079  0.0025  0.1025  0.1627
13413W        W29487   2.157  11.284  13.970  0.3263 -0.0083  0.0580
13414W        W29488   8.418  14.877   5.119  0.2161 -0.0398  0.1793
13415W        W29489   7.419   1.802  16.898  0.2188  0.1032 -0.0431
13416W        W29490   5.692  13.000   5.423 -0.0626 -0.0868  0.3541
13417W        W29491   9.256   7.992  13.303  0.3511 -0.1843  0.2293
13418W        W29492  17.752   5.101  13.299  0.1980 -0.0329  0.0435
13419W        W29493   2.027   1.714   5.712  0.0638  0.1731  0.0334
13420W        W29494   9.364   5.765  13.510 -0.5680 -0.1412 -0.3918
13421W        W29495  12.866  11.041   3.483 -0.0542  0.2727 -0.0982
13422W        W29496   4.408   4.904   2.096  0.0261  0.0357 -0.1659
13423W        W29497  16.794   0.592  12.141 -0.1141 -0.2246 -0.1116
13424W        W29498  12.172   7.116   4.337 -0.1134  0.1914  0.0525
13425W        W29499   3.057   9.824  12.179 -0.0821  0.0908 -0.1577
13426W        W29500  14.178  17.754  12.694 -0.2815  0.3331  0.0517
13427W        W29501   2.391  14.293   0.805 -0.2772  0.2498 -0.2453
13428W        W29502   0.245  11.360   3.263  0.0714  0.0739 -0.2368
13429W        W29503  17.703  16.037   4.264 -0.1246 -0.1897  0.0005
13430W        W29504   2.247   0.630  11.644  0.0006  0.0022 -0.1742
13431W        W29505  11.483   5.783   5.635 -0.1319  0.1033 -0.4672
13432W        W29506   6.190  16.524  13.017 -0.0729  0.2889 -0.3064
13433W        W29507  10.149   4.956  15.911 -0.1711  0.0094  0.0094
13434W        W29508  11.499   0.780   1.929  0.3349 -0.0302  0.0981
13435W        W29509   2.556   6.675   2.142 -0.2872 -0.2601  0.4466
13436W        W29510   0.268   5.184   1.187 -0.1901  0.1259 -0.2559
13437W        W29511   1.080   2.070   3.616  0.1720  0.0384  0.0161
13438W        W29512  13.061  10.876   5.141 -0.2241 -0.1513 -0.0327
13439W        W29513   6.728  12.532  14.412 -0.0328  0.1460 -0.0370
13440W        W29514   1.917  13.357   5.195 -0.0701 -0.2234  0.2322
13441W        W29515  16.515   9.668   3.939 -0.0468  0.0926  0.0961
13442W        W29516   7.909  12.630   5.387 -0.3123  0.1630  0.1731
13443W        W29517   8.523   3.590  11.946 -0.3468 -0.3996  0.1322
13444W        W29518   7.838   5.306   6.010  0.1169  0.0002  0.3058
13445W        W29519  13.988  13.467   1.202 -0.0665 -0.2223 -0.0305
13446W        W29520   7.125  10.417   5.677 -0.1193 -0.1770  0.1357
13447W        W29521  15.662   0.454  13.310  0.0214 -0.1436  0.2399
13448W        W29522   5.657   1.631   4.498 -0.1994 -0.1494  0.1835
13449W        W29523  10.479  16.603  14.234 -0.0289  0.0933 -0.0013
13450W        W29524  14.937  13.299  13.028 -0.0943 -0.1526  0.1137
13451W        W29525   8.098   3.333   5.830 -0.1448  0.2839 -0.1161
13452W        W29526   9.828  12.186   3.097  0.1407 -0.3532  0.1584
13453W        W29527   9.864   1.636  15.429 -0.1725 -0.0330 -0.0687
13454W        W29528   3.167  11.726   0.351 -0.0852 -0.1471 -0.2671
13455W        W29529   6.122   0.770  14.912  0.0643 -0.2164  0.1240
13456W        W29530  11.889   7.022   1.427  0.2500  0.1326 -0.1284
13457W        W29531  16.463   1.781  15.918  0.0538  0.1643 -0.1238
13458W        W29532  10.032  16.255  15.054 -0.1025 -0.2373  0.0959
13459W        W29533   8.735  12.820  14.463 -0.1075 -0.4551  0.2224
13460W        W29534   6.135   0.349   1.397 -0.0108 -0.0697  0.0310
13461W        W29535   8.531   2.752  15.248  0.0959 -0.0617  0.2059
13462W        W29536   1.873   3.603  12.739  0.0809  0.3217  0.0627
13463W        W29537  13.941  10.872  13.519  0.1013  0.2333  0.1383
13464W        W29538   5.268   9.444  13.260 -0.0720  0.0826  0.0610
13465W        W29539  13.684   5.850   1.780 -0.0537 -0.2785  0.1755
13466W        W29540   0.067  10.551   5.707 -0.2875 -0.0141 -0.1237
13467W        W29541   8.368   0.231   4.695  0.2587  0.0524 -0.4020
13468W        W29542  14.978   0.767  12.880  0.3325  0.1323 -0.1878
13469W        W29543   3.278  14.435   1.038 -0.1880 -0.1178  0.1930
13470W        W29544   8.900   5.417   4.480 -0.0000 -0.0296 -0.0917
13471W        W29545   8.361   9.664  11.830  0.0868  0.1833 -0.1120
13472W        W29546  10.493   4.250  11.539 -0.4359 -0.0516 -0.0566
13473W        W29547   6.269  13.271  16.484 -0.0555 -0.1420  0.0047
13474W        W29548   2.004  14.826   5.333 -0.0638 -0.0159 -0.0562
13475W        W29549   8.851   2.624   6.066 -0.1002  0.4758  0.0638
13476W        W29550   9.246   6.082  14.813 -0.0185  0.0181  0.1129
13477W        W29551   4.599   8.239  16.451 -0.0247  0.1928  0.3080
13478W        W29552   9.652  15.416  15.289  0.1287 -0.0217 -0.0084
13479W        W29553   8.235  15.000   2.192 -0.3133  0.3677  0.3485
13480W        W29554   7.553   8.297  10.674  0.1766 -0.2583 -0.0551
13481W        W29555   1.733   0.759   4.280  0.2584  0.1296  0.0365
13482W        W29556   4.830  15.127   5.167  0.4073  0.3878  0.1629
13483W        W29557   9.070   9.878  16.410  0.0593  0.2203 -0.0228
13484W        W29558   2.081   3.827  15.919 -0.3173 -0.0611 -0.2501
13485W        W29559   1.753   2.858   4.755 -0.0001 -0.1005  0.1230
13486W        W29560   3.662   1.861   2.390  0.0868 -0.2202 -0.0761
13487W        W29561   2.435  12.251  15.488 -0.0450  0.1978 -0.0352
13488W        W29562  12.412  10.677  16.492  0.0378  0.0448  0.0626
13489W        W29563  16.406   9.443  14.915  0.1089  0.0755  0.1450
13490W        W29564  17.846  12.944   0.647  0.1247 -0.2165  0.2066
13491W        W29565   9.918  10.571  14.846  0.1788 -0.1512 -0.0092
13492W        W29566   0.478   1.390  15.402  0.2630  0.0554  0.0119
13493W        W29567  15.472   2.296   3.279  0.1041 -0.0236  0.3561
13494W        W29568   3.949   9.996   5.362 -0.0157  0.0090 -0.1372
13495W        W29569   2.537  16.694   4.355 -0.1537 -0.1295  0.1897
13496W        W29570  11.148  10.463   4.764 -0.0739 -0.0513  0.1457
13497W        W29571   6.756   8.781  11.479  0.1808  0.0488  0.0994
13498W        W29572   5.787   7.900   2.866  0.1425 -0.1927  0.1148
13499W        W29573   1.070  14.865   5.264 -0.0922  0.0698  0.0922
13500W        W29574  11.964  14.307   0.118  0.1091  0.1513  0.1168
13501W        W29575  14.304  16.644   6.338 -0.3501 -0.0214 -0.0591
13502W        W29576   0.753  10.615   1.054  0.0354  0.2033  0.2092
13503W        W29577  14.294   1.429   0.310 -0.1938  0.0719 -0.1905
13504W        W29578   0.280   0.797   1.762 -0.2267 -0.0529 -0.0711
13505W        W29579  11.161  14.602  15.690  0.0522 -0.0050  0.1918
13506W        W29580  16.504  17.108   3.999  0.1446 -0.0129 -0.0299
13507W        W29581  10.731   5.051  15.656  0.2064  0.0980  0.0200
13508W        W29582  12.699   8.328   1.362  0.3282 -0.1806  0.0988
13509W        W29583   1.948  11.930   2.135  0.2149  0.1041 -0.1550
13510W        W29584   6.723  14.720  14.739 -0.1079 -0.2330 -0.3155
13511W        W29585   8.621  15.823   2.558  0.0262 -0.1418 -0.1797
13512W        W29586   4.009   1.973  13.082  0.1534 -0.1649 -0.3034
13513W        W29587   6.310  14.484  15.111  0.1426 -0.1075  0.1991
13514W        W29588   5.009  12.772   1.226 -0.1961  0.2081 -0.0342
13515W        W29589   1.129   4.739  10.925 -0.1331 -0.4929 -0.1524
13516W        W29590   7.947   1.993  11.616  0.1053  0.0046  0.1212
13517W        W29591  10.987   3.891   5.575 -0.2166  0.0886  0.1243
13518W        W29592  17.055   2.212  14.283 -0.0720  0.2385 -0.1059
13519W        W29593  13.512   7.060  13.283 -0.2496  0.1904 -0.3774
13520W        W29594   5.648   0.607   4.507  0.1414  0.1913 -0.1791
13521W        W29595   2.995   9.004   5.216  0.1778 -0.0922 -0.1937
13522W        W29596  15.093  17.242   5.467  0.0964 -0.0613  0.1617
13523W        W29597  11.280   4.455   2.534  0.1346  0.1255  0.1486
13524W        W29598  17.645   2.553   6.025 -0.0630  0.0102  0.2322
13525W        W29599  11.243  11.490   4.039 -0.0085  0.0895 -0.2423
13526W        W29600  17.117  13.112  14.185  0.2602 -0.1055 -0.0614
13527W        W29601  12.888  13.003   3.550  0.2504 -0.1195  0.2650
13528W        W29602   0.536   1.368   0.314  0.0781 -0.1515 -0.0069
13529W        W29603  11.930   6.366  11.303  0.1366 -0.1463 -0.1670
13530W        W29604   5.114  11.452  12.184  0.2519  0.3265  0.1022
13531W        W29605   3.702   4.609  15.035  0.0811 -0.3388 -0.2753
13532W        W29606   8.286   5.058   0.210 -0.1393  0.0461  0.0999
13533W        W29607   9.071   4.076   2.456 -0.1473 -0.2771 -0.1535
13534W        W29608   2.223   0.972   3.693  0.0647 -0.2675  0.1492
13535W        W29609   9.267   7.858   4.160  0.2050 -0.3695 -0.3659
13536W        W29610   3.511  14.146  12.480 -0.1369  0.0098 -0.0560
13537W        W29611  10.429  13.703  16.194 -0.0075 -0.0664 -0.0963
13538W        W29612   9.010  13.948   5.682  0.0192  0.0040  0.3708
13539W        W29613   8.864   3.709  16.188 -0.1867  0.2079 -0.0909
13540W        W29614   5.054   6.540  16.951  0.2907 -0.2239 -0.0255
13541W        W29615   4.923  13.310  13.195  0.2868 -0.0927 -0.0613
13542W        W29616  16.880   2.749   5.721 -0.1534  0.4662  0.1190
13543W        W29617   2.644  11.153  11.800 -0.2566  0.2217 -0.2273
13544W        W29618  11.279   2.875   2.605  0.0681 -0.0541 -0.0843
13545W        W29619  11.127   2.194  11.703  0.2004  0.2330 -0.0555
13546W        W29620   2.592  12.592  12.189  0.1670 -0.2831  0.1378
13547W        W29621   0.248   1.534   1.043  0.0070 -0.1874  0.0352
13548W        W29622   8.051  16.492  16.663 -0.2173  0.1323  0.0658
13549W        W29623  11.234  14.999  16.566  0.3133  0.2324 -0.1357
13550W        W29624   7.347  14.424  16.233  0.1498 -0.3030  0.4621
13551W        W29625  16.931   7.923  16.924  0.2780  0.0801  0.4394
13552W        W29626   6.202   6.991  15.823 -0.0510 -0.0727  0.0205
13553W        W29627  13.903   5.521  11.818 -0.1116 -0.0372 -0.5298
13554W        W29628   6.843   8.608  16.873 -0.2661  0.0016 -0.1273
13555W        W29629   4.310  16.792  11.686 -0.0766  0.0243 -0.0946
13556W        W29630   3.381   9.327   5.153 -0.0239 -0.1726 -0.1212
13557W        W29631  14.983   7.643   3.470  0.1488 -0.0841 -0.0648
13558W        W29632  13.956  10.543  15.024 -0.0907 -0.2995 -0.1309
13559W        W29633   0.266  11.983   1.869  0.2668 -0.2200  0.1765
13560W        W29634   7.994  12.217   4.970  0.1324  0.1293 -0.0287
13561W        W29635  17.332  13.988  13.703  0.0506  0.2166 -0.1889
13562W        W29636  14.754   7.003   3.648 -0.3415 -0.1352 -0.0069
13563W        W29637   2.896   8.665   0.037  0.0915 -0.0143  0.0091
13564W        W29638  15.216  12.555  12.545  0.1839  0.2755 -0.1000
13565W        W29639  17.121  16.547   4.066  0.3094 -0.2010 -0.2206
13566W        W29640   2.771   7.623  15.652  0.2176  0.2429 -0.0355
13567W        W29641  16.186  13.441   0.197  0.1387  0.1500  0.1754
13568W        W29642  14.161  11.802   2.511 -0.0536  0.0817 -0.0991
13569W        W29643  15.059  10.952   3.045 -0.0148  0.0883 -0.1247
13570W        W29644   6.789  10.397  12.176 -0.0104  0.0467 -0.0945
13571W        W29645   4.545  14.399  12.463 -0.1055  0.2189 -0.2281
13572W        W29646  17.510  14.314   4.896  0.2904  0.1093  0.0873
13573W        W29647   9.824   6.622  12.110  0.2947  0.1072 -0.0147
13574W        W29648   6.815   7.363   4.266  0.0961 -0.4723 -0.1297
13575W        W29649  10.828  11.988  13.913 -0.0175  0.0435  0.1270
13576W        W29650  15.130  10.299   0.865  0.1319 -0.1755 -0.0846
13577W        W29651  14.827   1.629   3.079 -0.0358 -0.0766 -0.1396
13578W        W29652  16.631   4.616  16.768 -0.0730 -0.1558 -0.1684
13579W        W29653  15.157  16.300  12.194  0.0964 -0.3133  0.2827
13580W        W29654   3.674   4.308   1.037  0.0020 -0.1259  0.1028
13581W        W29655   8.511  11.142   6.396  0.2314 -0.1350 -0.2552
13582W        W29656   8.259   5.501  15.082 -0.0220 -0.0237  0.2758
13583W        W29657   8.933   6.390  12.505  0.0443  0.1096 -0.1443
13584W        W29658   1.247  13.930   3.535 -0.1773  0.2517  0.1822
13585W        W29659   3.164   7.657   3.594 -0.0224  0.0237  0.1439
13586W        W29660   4.946   8.762  13.600  0.1686  0.2254  0.1909
13587W        W29661  16.894   7.936  15.648 -0.0308  0.3382 -0.0361
13588W        W29662  13.684   8.532  16.262  0.1828  0.0138  0.3478
13589W        W29663  11.200   1.283  11.739  0.1498  0.4500 -0.0617
13590W        W29664  14.694  10.565   1.047 -0.2924  0.3330  0.2489
13591W        W29665  13.768  10.238   1.974  0.1217  0.1855  0.0041
13592W        W29666  12.110   7.367   1.791 -0.3576  0.5331 -0.0985
13593W        W29667   4.164   6.464  16.398 -0.1149  0.0963  0.1381
13594W        W29668  13.180  13.504  11.922 -0.0804 -0.0119 -0.0615
13595W        W29669   0.287   6.305   1.285  0.2857 -0.1788  0.0124
13596W        W29670   7.655   2.831  13.593  0.0482 -0.3603 -0.0518
13597W        W29671  11.217   2.294   2.600  0.0145 -0.0528  0.1285
13598W        W29672   4.621  15.978  12.062 -0.2886 -0.1325 -0.0586
13599W        W29673  15.427   3.777  13.468 -0.4043  0.1918 -0.1010
13600W        W29674   3.212  15.183  13.705 -0.0552  0.0682 -0.1763
13601W        W29675   9.073   9.338   0.377  0.2966  0.2611  0.0689
13602W        W29676  17.001   3.204   2.888 -0.2653 -0.1056  0.3991
13603W        W29677  13.015  12.382   4.362  0.0099  0.0667  0.2771
13604W        W29678  17.043   4.482   3.105  0.1698  0.1383  0.1141
13605W        W29679  17.437   4.408  12.665 -0.1849  0.0689 -0.1580
13606W        W29680  14.688  16.521  14.761 -0.0931 -0.1664  0.0731
13607W        W29681   7.232  16.661  16.458  0.1003  0.1489 -0.2056
13608W        W29682  15.720  16.779   3.332 -0.0482 -0.1352 -0.0875
13609W        W29683   7.404  10.985  11.687 -0.0736 -0.1264  0.1323
13610W        W29684  17.015  17.152  12.919  0.0597 -0.1399  0.2038
13611W        W29685   9.584   9.780   4.012  0.0184 -0.4085  0.0654
13612W        W29686   5.102   2.612  14.330  0.2162  0.1734  0.2253
13613W        W29687  16.093  17.802   6.406 -0.3296  0.1711 -0.1008
13614W        W29688  15.762  16.376   5.805  0.0911 -0.0326  0.1335
13615W        W29689   8.875  10.819   4.978 -0.1736 -0.0169 -0.0566
13616W        W29690  17.689  12.569   1.039 -0.1157 -0.0643  0.2318
13617W        W29691   2.285   2.339   0.315 -0.0772 -0.0573 -0.1370
13618W        W29692   4.663   8.914  11.474 -0.0757  0.1765  0.0824
13619W        W29693  17.494  13.834   1.036 -0.0051 -0.2331  0.1346
13620W        W29694   7.731   7.899  16.736  0.0690 -0.1433 -0.0544
13621W        W29695  17.070   1.203  14.382  0.2566  0.0125 -0.3087
13622W        W29696  13.768   2.109   2.546 -0.1591 -0.0102 -0.3342
13623W        W29697  17.637  16.417  15.607  0.2177 -0.3752  0.0416
13624W        W29698  16.196   8.157   1.023  0.1029  0.0118  0.4354
13625W        W29699   6.563   9.522  11.870 -0.0631 -0.1629 -0.2211
13626W        W29700   3.568  14.802  16.760 -0.2188 -0.1669  0.1330
13627W        W29701  17.576  10.184   2.659 -0.1553 -0.2032 -0.2924
13628W        W29702   7.346  17.638  12.719  0.1934  0.1382 -0.2239
13629W        W29703  14.671   4.785   5.654  0.0444 -0.1560  0.1290
13630W        W29704   7.778  12.616  16.120 -0.3996  0.0098 -0.2413
13631W        W29705   5.169   2.014  13.450 -0.3225  0.1178  0.1448
13632W        W29706   8.674   8.930   5.288 -0.1922 -0.0180  0.0019
13633W        W29707  16.045   3.790   2.178 -0.1564  0.0192 -0.1508
13634W        W29708  10.455   3.442  14.491 -0.1310 -0.0047  0.1550
13635W        W29709   8.365   2.422   4.924 -0.0117 -0.3144 -0.0671
13636W        W29710   7.360   3.430   4.124 -0.0752  0.1353  0.1734
13637W        W29711  10.293   1.358  14.481  0.1582 -0.1698  0.0875
13638W        W29712   4.732   0.472  16.206 -0.2589 -0.3278 -0.0120
13639W        W29713   1.621   7.003  15.108  0.0780  0.4358  0.0941
13640W        W29714  13.448  17.549   0.872  0.1777 -0.1609 -0.3941
13641W        W29715  16.462   4.956   4.548 -0.1601  0.4647 -0.0507
13642W        W29716   7.944  11.619   0.317 -0.0327 -0.0804 -0.2252
13643W        W29717   3.384   0.615   1.166 -0.1176  0.2171 -0.0384
13644W        W29718   5.384   0.048  15.164  0.3111 -0.1532  0.1405
13645W        W29719   6.716   3.299   2.208 -0.0877 -0.2891 -0.0020
13646W        W29720  12.169   0.234  15.769  0.1160 -0.0211  0.0099
13647W        W29721   7.262  14.068   2.927  0.1623 -0.1214  0.0623
13648W        W29722   3.374  16.030  13.835  0.1253  0.1148 -0.1312
13649W        W29723   4.347   4.058   3.165 -0.1213 -0.2193  0.2285
13650W        W29724   7.998   4.183   4.056 -0.2460 -0.1712  0.3749
13651W        W29725  16.258  14.828  14.316 -0.2825 -0.0858 -0.0609
13652W        W29726  15.650  14.075   1.864  0.0161  0.3349 -0.1840
13653W        W29727   8.319  10.465  14.493  0.1577 -0.2621  0.3863
13654W        W29728  16.523   6.733  13.230  0.0621 -0.0155 -0.1899
13655W        W29729  12.625   8.951   5.591  0.0317 -0.2948  0.0058
13656W        W29730   8.784   0.966   4.901  0.1743  0.0907  0.0057
13657W        W29731   8.880   4.669   3.060  0.1874 -0.0531 -0.1616
13658W        W29732  12.177  13.600   5.573 -0.0306  0.1023 -0.0691
13659W        W29733   7.137  12.505  12.417  0.0110 -0.2359  0.1343
13660W        W29734  17.071  13.340   0.493 -0.5936  0.2700  0.2463
13661W        W29735   2.966   0.586   3.665 -0.0754  0.2377  0.2064
13662W        W29736   8.616  13.269   2.052  0.1177 -0.0610  0.3843
13663W        W29737  12.262  15.984   5.134 -0.0434  0.0831 -0.3461
13664W        W29738  16.810   7.153   1.443 -0.0181  0.0161  0.0052
13665W        W29739  13.841  15.150  15.844  0.1113 -0.0474  0.3419
13666W        W29740  14.025   4.487   1.919  0.1269 -0.1998 -0.3664
13667W        W29741  10.348   7.995   2.378  0.3111  0.0926 -0.0022
13668W        W29742  10.956   8.988  13.285  0.0743  0.2681  0.0706
13669W        W29743  17.071   5.663  13.971 -0.0360 -0.1372 -0.1233
13670W        W29744   4.049   4.852  12.952  0.0410  0.0711 -0.3580
13671W        W29745   9.213   3.031   3.784  0.0278 -0.0354  0.0213
13672W        W29746  15.928   8.933   2.396 -0.0992 -0.2094  0.2687
13673W        W29747  16.769   7.270   5.592 -0.2961  0.1869 -0.1979
13674W        W29748  13.371   2.107  14.488  0.0333  0.2614 -0.2760
13675W        W29749  12.464   8.101   3.374 -0.0135  0.1454 -0.0705
13676W        W29750   9.105   1.271  12.744 -0.1434 -0.1862 -0.2183
13677W        W29751   3.126   0.612  12.977 -0.1839 -0.2591 -0.0009
13678W        W29752   1.139   4.310   2.857 -0.0817 -0.5152  0.3563
13679W        W29753   3.029  15.064   5.822 -0.3063 -0.4705 -0.3589
13680W        W29754   6.545  12.377   2.857 -0.0725 -0.1526 -0.0210
13681W        W29755   8.302  17.399   3.329 -0.2967 -0.3041  0.0119
13682W        W29756   7.997   7.129   0.579 -0.0507  0.0030 -0.0537
13683W        W29757   3.048  17.666  14.913 -0.1549  0.2549 -0.0990
13684W        W29758   8.753  14.367   5.682 -0.0327 -0.0694  0.0169
13685W        W29759   5.215  14.528  14.110 -0.1107 -0.1772  0.0804
13686W        W29760  12.576  16.492  15.221 -0.3938 -0.3508 -0.0360
13687W        W29761   5.358  16.347  13.048  0.1551 -0.0390 -0.0535
13688W        W29762  10.570  10.842  13.504 -0.0697 -0.0873 -0.0299
13689W        W29763  15.048  16.185  16.104 -0.0205  0.2752 -0.0604
13690W        W29764  16.514  15.416  12.735 -0.3305  0.1915  0.4111
13691W        W29765  15.364  13.467  16.785 -0.0423  0.1743 -0.0322
13692W        W29766   9.706  15.831  14.966 -0.2226 -0.0243  0.0509
13693W        W29767   6.411  15.559  12.666 -0.2234 -0.0585  0.0466
13694W        W29768   2.035   6.479   1.258  0.0404  0.0811 -0.1761
13695W        W29769   2.962   9.576   2.278 -0.0924  0.0645  0.1072
13696W        W29770   2.072   7.710   2.629 -0.1726  0.0603  0.0053
13697W        W29771  14.493   3.924   0.228  0.2845  0.1969 -0.2555
13698W        W29772  17.106   3.559   3.785 -0.1722 -0.3076  0.1182
13699W        W29773   8.764   0.048  12.260  0.0770 -0.0227 -0.1401
13700W        W29774  10.907  15.238   2.109  0.0416  0.0860 -0.1018
13701W        W29775   2.798   7.649   0.174  0.0112 -0.2615 -0.0240
13702W        W29776   1.077  11.219   1.907 -0.2466 -0.0896 -0.3254
13703W        W29777  11.162   5.548  13.784  0.0950  0.0687  0.1265
13704W        W29778  10.059   0.656   3.828  0.0029  0.1319 -0.1004
13705W        W29779   5.919   0.074   2.230 -0.3031 -0.1853  0.0003
13706W        W29780  14.581   2.754   3.555  0.4814 -0.1267 -0.1989
13707W        W29781  14.283   4.243  13.545 -0.0689 -0.0153  0.2392
13708W        W29782  16.969   2.483  15.157 -0.1182 -0.1130  0.1421
13709W        W29783   3.273  14.396   5.031 -0.0756  0.1831 -0.6984
13710W        W29784  14.645   4.077  13.958  0.0175  0.0950  0.0940
13711W        W29785   7.652  10.344  15.977  0.2814  0.0418 -0.1767
13712W        W29786   2.429   0.124   2.069 -0.2520 -0.0659  0.0509
13713W        W29787   8.690  11.465   4.969  0.1614  0.3041 -0.1863
13714W        W29788   2.936  17.306   3.151  0.0235  0.2477  0.0378
13715W        W29789   1.095  16.494   5.627  0.0022  0.1762 -0.0809
13716W        W29790   4.782  16.246  14.833 -0.0421 -0.0287  0.1372
13717W        W29791   2.704  16.312   5.575  0.1470 -0.3258 -0.1478
13718W        W29792   9.549   2.831   5.520  0.3252 -0.1096  0.0441
13719W        W29793   0.896  15.527  14.912 -0.0679  0.1901 -0.1046
13720W        W29794   2.001   3.456  16.333  0.0909 -0.0313 -0.0500
13721W        W29795   2.782  16.059  12.169 -0.1713  0.4205  0.0905
13722W        W29796  13.425   1.928  15.450 -0.4613 -0.2593 -0.2447
13723W        W29797   7.208   1.888  15.607  0.1488  0.3260 -0.2484
13724W        W29798  10.017   3.168  16.581 -0.3559  0.0867 -0.3068
13725W        W29799  10.229  15.477   6.498  0.1058 -0.0266  0.3151
13726W        W29800  12.698  11.152  15.238 -0.3636 -0.1345 -0.2394
13727W        W29801   7.910   2.892   5.559  0.0880  0.1211  0.0053
13728W        W29802  10.356  14.624  14.136  0.1210  0.3386  0.1451
13729W        W29803   4.382   1.728   2.090 -0.0115  0.0510 -0.0453
13730W        W29804   8.952  14.512  13.059  0.1723  0.0867  0.1997
13731W        W29805  11.864   4.114  12.713  0.1790  0.1818  0.2335
13732W        W29806  17.630   3.338   3.860  0.0129 -0.0273 -0.1504
13733W        W29807   7.287   0.214   2.772 -0.1988  0.0206  0.1890
13734W        W29808  12.773  16.515   4.910 -0.1328 -0.2828  0.4531
13735W        W29809   9.987  14.799   5.646 -0.3572  0.1647  0.0897
13736W        W29810   4.977   6.027   4.455 -0.1481 -0.1668 -0.0022
13737W        W29811   4.559   3.829  12.113  0.1368 -0.1456  0.2004
13738W        W29812   0.231  16.795  12.941 -0.3477  0.3493  0.1776
13739W        W29813   7.641  12.671   1.906  0.0440 -0.0546  0.2687
13740W        W29814  14.180  13.904   4.648 -0.1221 -0.1171 -0.0250
13741W        W29815   0.446   1.748   4.447 -0.1622  0.2345  0.1356
13742W        W29816   9.103  13.513  11.378  0.0492  0.2550 -0.2261
13743W        W29817  15.029  11.396  15.874 -0.2455 -0.0447 -0.1068
13744W        W29818  13.097  15.567  13.212  0.2691 -0.0010 -0.0215
13745W        W29819   2.862   2.195  16.373  0.1130 -0.0410 -0.2324
13746W        W29820   6.607  16.719   2.864 -0.1903 -0.1235  0.1073
13747W        W29821  17.493   8.145   3.702 -0.0847  0.1161 -0.0456
13748W        W29822   6.903   8.526  15.238  0.0761  0.0925 -0.0477
13749W        W29823  17.429  13.245   2.630  0.1783 -0.2180  0.2216
13750W        W29824   1.223  15.020  10.435 -0.1270  0.0643  0.0133
13751W        W29825   5.376  13.486   2.729 -0.1648  0.4991 -0.1934
13752W        W29826  16.448  17.692  14.066 -0.0005  0.0508  0.1297
13753W        W29827  13.360   9.756  13.902  0.0564 -0.0426  0.3181
13754W        W29828   8.597   7.280   2.808  0.1928  0.2312 -0.0427
13755W        W29829   0.057   2.530   2.060  0.1653  0.0779 -0.1151
13756W        W29830   1.028   4.544  15.813  0.1517 -0.0983  0.0494
13757W        W29831   6.148   6.976   0.434  0.1637 -0.0093  0.1197
13758W        W29832   0.004  14.460   3.078  0.1818  0.0447 -0.0550
13759W        W29833   4.383  12.345  13.301  0.0147  0.2893 -0.0268
13760W        W29834   7.085  14.327  15.601  0.1492 -0.0596 -0.2760
13761W        W29835  15.185   9.099  15.187  0.0299  0.1759  0.1363
13762W        W29836  11.072   7.155   1.092  0.0167 -0.1267  0.1452
13763W        W29837   9.190   3.463  15.566  0.3694  0.3764 -0.1724
13764W        W29838  17.005  10.214   1.832 -0.0795 -0.1334  0.1307
13765W        W29839   6.929  12.677  13.713  0.1362 -0.0240  0.0639
13766W        W29840  11.476  16.312  12.803 -0.1457 -0.2994 -0.1939
13767W        W29841   5.603   2.708  12.163  0.0987 -0.0371  0.2545
13768W        W29842   4.343  15.111   1.858  0.3425 -0.1566 -0.1033
13769W        W29843  16.235   4.933  16.635 -0.1436 -0.1300  0.0315
13770W        W29844  10.102   7.000  13.088 -0.1886 -0.0828  0.2865
13771W        W29845  12.939  10.780   5.703 -0.0908  0.1018 -0.1696
13772W        W29846   4.866   6.042  13.319 -0.1693 -0.1907 -0.1335
13773W        W29847  15.622   2.205   4.583  0.0113 -0.1239 -0.1659
13774W        W29848  10.140   7.895   4.428 -0.0745  0.0510 -0.2646
13775W        W29849  12.886   7.222   4.886 -0.2441 -0.1864  0.0086
13776W        W29850   2.517   9.864   2.235 -0.1875  0.0176 -0.0442
13777W        W29851  12.485  16.995  16.898  0.1464 -0.0728 -0.1949
13778W        W29852   9.349  15.668   5.580 -0.3672  0.0772 -0.0585
13779W        W29853  15.622   7.872  15.669 -0.1730 -0.0735 -0.1979
13780W        W29854   1.838  13.132   0.525 -0.2124  0.2316 -0.2485
13781W        W29855   3.321   1.863  14.195 -0.0700  0.0480  0.0130
13782W        W29856   9.513  15.789   4.443 -0.3130 -0.0236  0.0894
13783W        W29857   1.638  11.142   3.104  0.1760  0.3796 -0.1730
13784W        W29858   7.779  10.041   5.251 -0.2600 -0.1361  0.0562
13785W        W29859   8.861  10.301   5.589  0.1230  0.0002 -0.1151
13786W        W29860   2.139  10.830  14.106  0.0766  0.1844 -0.1190
13787W        W29861  11.696   1.388  14.249 -0.1345 -0.2988  0.0775
13788W        W29862   9.432  12.252   6.096  0.1680  0.2570 -0.1479
13789W        W29863  10.256   8.731  11.784 -0.2174  0.2922 -0.0064
13790W        W29864  14.992   3.074  16.461  0.1138 -0.0751 -0.3350
13791W        W29865   7.067   5.441   1.758  0.1955 -0.0116  0.0445
13792W        W29866   1.000   8.807  15.346  0.2334 -0.1301 -0.0610
13793W        W29867   0.560   0.226   4.004  0.0992 -0.0044  0.1415
13794W        W29868  11.119   0.868   4.642  0.4390  0.1449  0.0972
13795W        W29869  16.571   7.356   4.061  0.1733  0.1974  0.1060
13796W        W29870  14.834   9.561  12.770 -0.1361  0.0402  0.0483
13797W        W29871  12.802  17.156   3.832  0.1258  0.0494 -0.2108
13798W        W29872   2.679   3.357  14.092  0.2104 -0.2840  0.1540
13799W        W29873  15.816   5.998   5.922 -0.0904  0.0069 -0.1366
13800W        W29874   7.156   1.575   3.090  0.0700 -0.1355 -0.1999
13801W        W29875   9.215  16.150   3.347  0.0397  0.1767  0.1628
13802W        W29876   3.595   8.379  16.328  0.6093 -0.2308  0.3348
13803W        W29877   4.854   5.119   6.090  0.1363  0.4462 -0.4089
13804W        W29878  11.501  16.906   2.375  0.1336 -0.1059  0.1644
13805W        W29879   4.093   6.353  15.342  0.0215  0.0010 -0.1087
13806W        W29880  10.363   1.511  16.361  0.1256 -0.0756 -0.1573
13807W        W29881  10.836  15.870   4.263 -0.1246  0.0484  0.1520
13808W        W29882  14.881   0.818  16.784  0.2940 -0.2719 -0.2096
13809W        W29883   3.634  17.622   4.227  0.0068  0.0829 -0.2325
13810W        W29884   9.510   5.492   3.073 -0.0099  0.0653  0.3239
13811W        W29885  16.736   8.822   5.391 -0.0521  0.2354 -0.0164
13812W        W29886   0.673   5.512   1.581  0.2437 -0.3194 -0.1047
13813W        W29887  11.453   1.366   4.594 -0.1420 -0.1484  0.1420
13814W        W29888   6.659   4.210  13.491 -0.0272  0.2058 -0.1621
13815W        W29889  16.873   8.492   6.116  0.1270 -0.2531  0.0519
13816W        W29890   0.182   7.363  16.433  0.3820  0.0054 -0.2112
13817W        W29891   4.467   6.052   0.308  0.2073  0.2389  0.0019
13818W        W29892  16.912  16.808  16.388 -0.1313  0.0630 -0.1664
13819W        W29893  15.712  17.461   1.105  0.1977  0.0650  0.4890
13820W        W29894   2.425   2.356   6.217 -0.1113 -0.1556  0.1362
13821W        W29895  13.081  15.717   5.547 -0.1830  0.0772  0.1465
13822W        W29896  13.308  12.464  12.946 -0.1821 -0.0290 -0.1441
13823W        W29897  17.606  10.170  12.475 -0.0989 -0.0895 -0.1334
13824W        W29898  12.214  12.176   1.718 -0.1302  0.1400 -0.2272
13825W        W29899  13.427   5.774   3.538  0.0774  0.2187 -0.1807
13826W        W29900   8.748  17.201  14.260  0.1154 -0.3764  0.1201
13827W        W29901   1.347   7.664  15.938 -0.2250 -0.1245 -0.1115
13828W        W29902   2.972   3.741   6.215  0.2772  0.2126 -0.0484
13829W        W29903   2.660  12.545   2.326  0.0023  0.1598  0.2830
13830W        W29904  11.074   0.665   0.055 -0.0925  0.2137  0.1669
13831W        W29905  14.797   2.351   0.339 -0.2949  0.0327  0.1430
13832W        W29906   8.784   4.985   2.725 -0.2103 -0.3550  0.0075
13833W        W29907  14.635   3.717  12.262 -0.0797  0.0600 -0.1040
13834W        W29908  11.837  12.665  13.968  0.2441  0.3166  0.0725
13835W        W29909  11.308   0.377   1.649 -0.0951 -0.4091 -0.0863
13836W        W29910   6.121   5.675   4.967  0.1664  0.1821 -0.0462
13837W        W29911   9.701  12.994  15.578 -0.0387 -0.1197 -0.0370
13838W        W29912  14.072  13.911  16.227 -0.2972 -0.0194 -0.0710
13839W        W29913   0.125   9.504  14.361 -0.0676  0.2348 -0.1642
13840W        W29914  16.043   3.913  16.861 -0.2293  0.0456 -0.2352
13841W        W29915  10.613  13.199   1.481  0.0034  0.1803  0.0009
13842W        W29916  15.770   1.601  16.085  0.0773  0.0465  0.4381
13843W        W29917   6.723   4.017  14.227 -0.3671  0.1835 -0.1046
13844W        W29918  12.156  13.819  16.814  0.4404  0.3124 -0.1175
13845W        W29919  16.527   4.924  14.913 -0.1496 -0.4343 -0.3504
13846W        W29920   3.273  13.665  15.157 -0.1264 -0.3863 -0.1487
13847W        W29921  12.554  15.714   1.312 -0.1073 -0.0015  0.1548
13848W        W29922   5.889   5.869  14.109 -0.1136  0.0199 -0.0661
13849W        W29923  16.009  10.570   3.176 -0.0667 -0.2262 -0.3926
13850W        W29924  15.434   9.531  14.842  0.3823 -0.0424 -0.1208
13851W        W29925  10.008   8.133  11.870 -0.0033  0.1191  0.1325
13852W        W29926  12.581  14.511   2.399  0.1005  0.1934  0.0102
13853W        W29927  11.849   0.634  15.881  0.0002 -0.2869  0.0641
13854W        W29928  10.269   8.954  15.610  0.0202 -0.1291 -0.2401
13855W        W29929   2.291  14.678   3.115 -0.0268  0.3233  0.3456
13856W        W29930   5.100  10.618   0.433 -0.2112 -0.5433  0.0878
13857W        W29931  14.953  14.509  13.242 -0.0986  0.4616 -0.1923
13858W        W29932  17.029   8.752  14.941  0.2180 -0.0762  0.1107
13859W        W29933   4.559   2.594   5.163 -0.1925 -0.2102 -0.1312
13860W        W29934   5.875   2.352  15.336  0.2537 -0.0509 -0.3540
13861W        W29935   3.180  13.581   0.503 -0.0897 -0.0369 -0.0010
13862W        W29936   8.502   8.580   5.652 -0.1060  0.0050  0.1695
13863W        W29937  13.549  12.876  13.106 -0.0741 -0.2493 -0.2608
13864W        W29938  12.490   2.638  11.711 -0.0750  0.1364 -0.0042
13865W        W29939   9.294   3.838  15.252 -0.0370  0.1852 -0.0239
13866W        W29940  10.886  13.657   0.472 -0.0023 -0.1982 -0.2904
13867W        W29941   3.717  10.987  13.424  0.2940  0.0067  0.5276
13868W        W29942  12.474  12.533  13.852  0.0693 -0.0518  0.1177
13869W        W29943   3.629   0.784   5.326 -0.1431  0.2499  0.1355
13870W        W29944  12.179   9.006  10.617  0.0022 -0.0541 -0.1943
13871W        W29945  12.562   4.237  15.696 -0.1150  0.4141 -0.0083
13872W        W29946   0.186   3.554   4.718 -0.3173  0.3297 -0.1650
13873W        W29947   7.918   0.648  15.160 -0.0516  0.2329  0.0881
13874W        W29948   0.088  16.497  16.334 -0.3541 -0.1371 -0.0409
13875W        W29949   4.840  16.578   0.877  0.3287  0.0079 -0.2760
13876W        W29950  12.698  13.675  13.228 -0.1182 -0.1139 -0.2328
13877W        W29951   7.081  15.009  12.260  0.1968  0.0699 -0.0008
13878W        W29952   6.291  15.118   2.939 -0.1236 -0.0584  0.5829
13879W        W29953  14.726   4.174   2.272  0.0926 -0.3289  0.2402
13880W        W29954  11.075  13.895   2.587  0.0210 -0.0926 -0.0450
13881W        W29955   5.167   2.771  12.992 -0.2177 -0.1087 -0.4208
13882W        W29956  13.525  12.552   4.067  0.0633  0.0475  0.5395
13883W        W29957  14.636   0.349   1.993  0.0913  0.2412  0.1606
13884W        W29958  10.145   5.780   6.673 -0.2007 -0.1647 -0.2668
13885W        W29959  14.126   4.218   0.467  0.0532  0.1091  0.1468
13886W        W29960   5.165  11.141   2.648 -0.2359 -0.0821  0.2199
13887W        W29961   7.291   7.393   5.395  0.1795  0.3578  0.0158
13888W        W29962   9.317   6.473  15.196  0.0841  0.1791  0.0310
13889W        W29963  12.930   5.287   2.963 -0.1180 -0.0552 -0.0490
13890W        W29964  14.291  14.838   4.769 -0.0867 -0.0502 -0.1716
13891W        W29965   9.679   5.684   4.208  0.1533 -0.0677  0.1710
13892W        W29966   8.793   5.175   3.987  0.3025 -0.0670 -0.2279
13893W        W29967   1.244  14.466   4.601 -0.3082 -0.1804  0.2153
13894W        W29968   5.938   6.423  12.110  0.2403 -0.0566  0.0890
13895W        W29969   8.612  13.610  12.233 -0.2768 -0.0039 -0.2271
13896W        W29970  11.862   2.548   5.223  0.2017 -0.0012  0.1546
13897W        W29971   1.121  15.884  15.804  0.1253  0.0115  0.0425
13898W        W29972  17.570  14.312  14.083 -0.5093 -0.0533 -0.1846
13899W        W29973  10.696   4.347   4.972  0.0316 -0.2698 -0.2491
13900W        W29974   4.381  12.496  12.319  0.0249 -0.1401 -0.0190
13901W        W29975   6.066  16.997  12.873  0.0949 -0.1910  0.1278
13902W        W29976   7.889  15.476  13.449 -0.1280 -0.4662 -0.2536
13903W        W29977   0.725  17.166  14.597 -0.0447 -0.0957  0.2094
13904W        W29978   1.020  17.565  14.381  0.2620  0.0054 -0.4116
13905W        W29979  10.507   4.801   5.160  0.1665 -0.3614  0.2569
13906W        W29980   2.957  14.249   4.009 -0.0604  0.2831  0.2401
13907W        W29981   6.289  11.713  14.809 -0.1635  0.1397 -0.4073
13908W        W29982   0.654   6.472  10.871  0.1789 -0.1290 -0.1147
13909W        W29983  15.985  12.960   2.964  0.0152  0.0650  0.1015
13910W        W29984   1.264   1.697   6.492 -0.1905 -0.1118  0.1731
13911W        W29985   4.067  16.778   4.370  0.0586  0.0246 -0.2806
13912W        W29986  14.006  12.112  15.555 -0.1550 -0.2235 -0.0435
13913W        W29987   6.403   9.765  16.555  0.1919 -0.0461 -0.3080
13914W        W29988   6.316   8.921   5.259  0.0027  0.3196 -0.1040
13915W        W29989   7.953   4.020  12.613  0.2630 -0.1822 -0.1302
13916W        W29990  14.033   0.437   2.747 -0.0168  0.3086  0.2509
13917W        W29991   5.534  10.690   4.599  0.2243  0.0181 -0.1536
13918W        W29992   3.230   9.749   4.875 -0.0582  0.3888 -0.2662
13919W        W29993   8.402  16.636   2.654 -0.0666 -0.0216 -0.2436
13920W        W29994  13.362  10.396   1.682 -0.4283  0.0182 -0.0558
13921W        W29995  15.229   2.443   4.759  0.1296  0.2052 -0.1001
13922W        W29996  15.332  14.147  12.320  0.1403 -0.0896  0.2515
13923W        W29997  13.654   1.554  14.330 -0.0776 -0.0467  0.2066
13924W        W29998  11.003  11.670   5.301 -0.2066 -0.0532  0.0369
13925W        W29999  16.139  12.390   1.717  0.1358  0.3258 -0.0003
13926W        W30000  12.610  11.995  13.399 -0.0719 -0.3551  0.2689
13927W        W30001   6.288  11.555   2.915 -0.1385 -0.3027 -0.1429
13928W        W30002  11.428   5.742   4.358  0.0635  0.0230  0.2360
13929W        W30003   0.239  15.244   3.949  0.0998  0.0698  0.1035
13930W        W30004   1.715   8.539   3.880  0.3253 -0.3787  0.1368
13931W        W30005   0.315  11.940   3.301  0.2505  0.6291 -0.2089
13932W        W30006  10.049  15.492   3.756 -0.1830 -0.4017  0.0988
13933W        W30007   2.366  11.988   5.977 -0.1318 -0.0531 -0.0617
13934W        W30008  17.342  17.668  15.166 -0.0580 -0.2355 -0.2265
13935W        W30009  12.473  17.585  13.083 -0.0660  0.1625  0.0850
13936W        W30010  10.299   2.183  12.739 -0.1533  0.2915 -0.3207
13937W        W30011   2.461   1.625   3.220 -0.0932  0.1581  0.2289
13938W        W30012   5.537  11.609   5.688  0.0407 -0.1753  0.0046
13939W        W30013   9.723   4.338   5.025  0.0327  0.0295  0.1023
13940W        W30014   9.305   5.465  13.930 -0.3135  0.1674 -0.0428
13941W        W30015  13.314   1.849   6.450 -0.0253 -0.0124  0.2847
13942W        W30016   7.695  15.834   4.860 -0.0892  0.1400 -0.1397
13943W        W30017   8.381  14.850  12.846 -0.1382 -0.2501  0.3317
13944W        W30018   0.164  13.102   2.519  0.1191  0.3164 -0.3694
13945W        W30019  17.452   8.118  16.938  0.2789  0.0665 -0.0855
13946W        W30020  17.022  17.581  12.103  0.0622 -0.2551  0.0205
13947W        W30021   1.440   2.393  13.400 -0.0111  0.3218 -0.0475
13948W        W30022   6.971  15.583   5.409  0.1124  0.0802 -0.0270
13949W        W30023  13.970   1.092   1.069 -0.1070  0.1253  0.0956
13950W        W30024   9.060   7.009  12.088 -0.0720 -0.0831 -0.0930
13951W        W30025   5.330   9.655  16.547  0.0137  0.0286 -0.2976
13952W        W30026   4.458   3.212   5.589 -0.2537  0.0095 -0.1607
13953W        W30027  15.678   5.047  13.794  0.0691  0.0079 -0.2074
13954W        W30028  17.282   1.841   0.882  0.1628 -0.1527  0.2349
13955W        W30029   6.313   0.687  12.317  0.1962  0.2281 -0.0048
13956W        W30030   1.842  16.848  16.562  0.0449 -0.1272 -0.3211
13957W        W30031   2.570   5.289   4.567  0.0724  0.3002 -0.2854
13958W        W30032  17.117   2.844  13.012  0.2041  0.2843 -0.0690
13959W        W30033   0.365  13.822   0.610  0.2164 -0.0941 -0.1102
13960W        W30034  17.070   8.363   4.103  0.1859 -0.1726 -0.1529
13961W        W30035   6.642   0.519   0.684 -0.2034  0.1004  0.2044
13962W        W30036   6.233   7.331  14.038 -0.2207 -0.1554  0.0693
13963W        W30037  13.363   9.946  14.431  0.1757  0.0735 -0.1049
13964W        W30038   7.970  11.202   4.965 -0.1764  0.1940 -0.2198
13965W        W30039  11.586   8.356  15.087  0.0809  0.0095 -0.1069
13966W        W30040   5.672  17.550  14.908 -0.1446 -0.0380 -0.3902
13967W        W30041   9.652   1.600  13.982 -0.3965  0.1764  0.0163
13968W        W30042   2.274   3.444  13.755  0.0741  0.2133  0.1720
13969W        W30043  14.561  17.234   0.741 -0.0184 -0.3344  0.0440
13970W        W30044  11.997   0.912  16.799 -0.0528  0.0374 -0.4000
13971W        W30045  10.668   4.751   4.604  0.2861 -0.0746 -0.1922
13972W        W30046  11.863  12.645   3.622  0.0081 -0.0165  0.0065
13973W        W30047  15.913   1.942  12.439 -0.3338  0.2013 -0.0361
13974W        W30048  16.938   4.208  13.636 -0.1828 -0.1068  0.0173
13975W        W30049   8.495   7.792  13.405  0.1716 -0.1377 -0.3143
13976W        W30050   7.192  17.256   0.260  0.1786 -0.4883  0.3222
13977W        W30051  16.455   3.993  13.379 -0.1272  0.1557  0.2253
13978W        W30052   0.470  14.083  16.138 -0.0385 -0.3221 -0.0696
13979W        W30053  10.285   3.706   1.925  0.0992 -0.0943 -0.1518
13980W        W30054  13.280  16.799  14.755 -0.0188  0.0263  0.0524
13981W        W30055  15.284   1.307  14.776 -0.2715 -0.0136  0.3310
13982W        W30056   0.893   3.613   3.307  0.4391 -0.1792  0.2709
13983W        W30057   2.066   8.187  14.286  0.1104 -0.2407  0.0442
13984W        W30058   6.321   9.180  12.470  0.1638 -0.0499  0.0255
13985W        W30059   9.954   4.429  16.618 -0.2116  0.3491  0.2639
13986W        W30060   3.876   7.994  14.638 -0.0635 -0.2770 -0.2544
13987W        W30061  12.487   1.173  10.890 -0.1696 -0.2554 -0.2819
13988W        W30062  14.189   9.237   5.520  0.0340  0.2017 -0.1629
13989W        W30063  12.979  11.288   2.566  0.3410 -0.1319 -0.0170
13990W        W30064   7.707   8.582   1.933  0.3947  0.1298 -0.2981
13991W        W30065   9.448   9.997  11.857 -0.0695 -0.3073  0.1530
13992W        W30066  10.758  11.757   0.133  0.0685 -0.1606  0.1137
13993W        W30067   3.109  11.499  16.824  0.0187  0.0392  0.0978
13994W        W30068   0.464  10.754   2.428  0.2387  0.2634  0.2218
13995W        W30069   4.274   2.913   3.228  0.1372  0.0223 -0.2364
13996W        W30070   6.920  13.109   2.185 -0.1090  0.1959 -0.3267
13997W        W30071   3.169   3.559   2.356 -0.1299 -0.0353  0.2262
13998W        W30072   9.659   0.674   5.639  0.0775  0.0940  0.0252
13999W        W30073  13.234  16.240   5.145  0.0106  0.0909  0.1760
14000W        W30074  13.882   3.964  13.384 -0.0340 -0.4662 -0.0473
14001W        W30075   9.871  15.718  13.736 -0.1630  0.0950 -0.4409
14002W        W30076   7.158  11.191   0.566  0.2196 -0.1071 -0.2514
14003W        W30077  14.553   9.576   3.983 -0.1420  0.1887 -0.1268
14004W        W30078   3.493   9.664  14.064  0.0473  0.2327  0.2776
14005W        W30079  15.181  12.485  16.535 -0.3139  0.0127 -0.2396
14006W        W30080   4.596  10.904  13.058  0.2780 -0.0945  0.1861
14007W        W30081   0.119  15.066  14.511  0.0890  0.2024  0.2751
14008W        W30082   0.040   2.461   1.133  0.4305 -0.1984  0.1026
14009W        W30083   9.522   8.810   4.723 -0.0165  0.0654 -0.3625
14010W        W30084  15.672   6.700  13.624  0.2707 -0.4383  0.0184
14011W        W30085  14.772   5.012   0.930 -0.1776 -0.0282  0.1636
14012W        W30086  15.516   2.769   0.828  0.2047 -0.3091 -0.0398
14013W        W30087   5.136   3.681   5.826 -0.3586 -0.0742 -0.1745
14014W        W30088   3.491  11.442   2.522  0.1577  0.4190  0.0537
14015W        W30089   9.495   0.142   3.862  0.0690 -0.0117  0.1191
14016W        W30090   0.442  12.963  13.725 -0.0189 -0.0386  0.2126
14017W        W30091   6.530  14.639  16.412  0.0529  0.1658 -0.0139
14018W        W30092   4.488   2.238   5.588 -0.1497  0.2160  0.0480
14019W        W30093   6.424  14.202   6.052 -0.2590  0.2037 -0.0949
14020W        W30094   2.823  17.829   1.105  0.0244  0.3590  0.0749
14021W        W30095   5.338  11.166   5.601 -0.0396  0.1200  0.0614
14022W        W30096  15.695   2.253   5.531 -0.1125 -0.0970 -0.3401
14023W        W30097   5.606  17.236  12.955 -0.2168  0.0035 -0.1744
14024W        W30098   7.085   5.585   0.167  0.0661 -0.0068 -0.0768
14025W        W30099   7.511  17.816   0.440  0.1641 -0.3072 -0.0425
14026W        W30100  17.424   8.863  13.787  0.1008  0.0331 -0.1734
14027W        W30101  11.264  14.496  11.988 -0.3872 -0.1900  0.3953
14028W        W30102   0.047   5.962  12.487 -0.1256 -0.2470 -0.2294
14029W        W30103  16.200   0.441   2.280 -0.0619 -0.2085  0.0488
14030W        W30104   4.288  16.513   3.919 -0.0979 -0.0305 -0.1552
14031W        W30105   9.334   0.065   1.765 -0.2245  0.1629  0.1838
14032W        W30106   8.187  10.954   4.597 -0.2532  0.0849  0.0276
14033W        W30107  17.318  12.441  12.518 -0.1172  0.0985  0.1680
14034W        W30108   9.740   4.235  13.942 -0.3499  0.2850  0.0866
14035W        W30109  13.663   5.563   5.558 -0.0205 -0.1405  0.2488
14036W        W30110   0.628   1.523  11.328 -0.0313  0.0918 -0.2982
14037W        W30111  12.246   5.908   3.094 -0.0889 -0.2785  0.0007
14038W        W30112   9.889   3.917   3.971  0.0002 -0.1317 -0.3718
14039W        W30113  15.683   7.119   2.140  0.3516  0.3522  0.0453
14040W        W30114   9.358  16.303   0.056  0.2585  0.2003  0.3475
14041W        W30115   8.242   8.211   5.413 -0.2006 -0.2263  0.0434
14042W        W30116  13.757   2.087   4.521  0.2865  0.0374 -0.2948
14043W        W30117   8.849   4.056   5.867 -0.0181  0.1082  0.2396
14044W        W30118   4.371   7.516   2.607  0.3577  0.3655 -0.0404
14045W        W30119  16.821   0.012  16.426  0.0546 -0.1683 -0.0976
14046W        W30120  12.295   1.888   6.644  0.1565 -0.3129 -0.1150
14047W        W30121  11.857  17.075  13.455  0.2597 -0.2986  0.1617
14048W        W30122  13.221   7.745   3.636  0.3347 -0.1872 -0.0039
14049W        W30123   2.797   2.376   2.833 -0.0963 -0.1960  0.1687
14050W        W30124   5.122   6.865   1.879 -0.0151 -0.1997 -0.3496
14051W        W30125   5.431  14.218   4.680  0.0760 -0.0542  0.3265
14052W        W30126  12.557  13.381  13.622  0.0490  0.3750  0.0445
14053W        W30127   1.820   7.306  13.800 -0.1679  0.1309  0.3650
14054W        W30128   0.744   5.233   2.572 -0.0839 -0.0988  0.0061
14055W        W30129  10.564   8.604  12.441  0.0884 -0.0817 -0.3703
14056W        W30130   6.907   1.991   3.040  0.2380  0.1699 -0.1378
14057W        W30131   5.827  13.357  13.636  0.0703  0.1187 -0.0158
14058W        W30132   9.095   4.776  11.804  0.0942 -0.2866  0.0031
14059W        W30133   0.144   4.950  15.707  0.0119 -0.1401 -0.2341
14060W        W30134  10.251  16.096  16.287  0.2530 -0.0333  0.1596
14061W        W30135   6.752  12.277  15.403  0.0244 -0.1195  0.1228
14062W        W30136   9.274  15.357  12.735 -0.1883 -0.4256 -0.0567
14063W        W30137   0.245   7.091  12.922  0.0996  0.0200  0.0752
14064W        W30138   3.744  10.647   5.123 -0.0243 -0.1706  0.0731
14065W        W30139  16.396   0.127   2.693  0.1428  0.1424 -0.1164
14066W        W30140  12.235   7.390   5.002  0.1248  0.0408 -0.0844
14067W        W30141  11.224   9.240  15.381  0.2993  0.1323  0.2249
14068W        W30142  13.024   4.245   1.005  0.2981  0.1352  0.0366
14069W        W30143   5.301  17.595   2.435 -0.0983  0.2780 -0.3171
14070W        W30144  13.623  14.289   2.694 -0.0963  0.0713 -0.0725
14071W        W30145   1.542  11.495   4.359 -0.2026  0.5200  0.1119
14072W        W30146  13.505  10.911   4.282 -0.0022  0.0661 -0.1254
14073W        W30147  13.732   1.599   1.763 -0.0977 -0.1873 -0.2326
14074W        W30148  13.396   7.715   0.143 -0.0801 -0.1210  0.1598
14075W        W30149  17.264   9.015   2.407 -0.1063 -0.1432 -0.0693
14076W        W30150   7.704   2.090  12.403 -0.1483  0.0433  0.3663
14077W        W30151   3.978   8.518   5.376 -0.2577 -0.0011 -0.0051
14078W        W30152  16.792  10.598  15.283 -0.1163  0.2041 -0.2107
14079W        W30153  11.873  14.712  13.171 -0.0636 -0.0738 -0.1651
14080W        W30154   6.335   4.969  13.854  0.2043 -0.0840 -0.4194
14081W        W30155  13.504   0.604   2.009 -0.2015 -0.1205  0.0811
14082W        W30156  14.839   5.375   1.337  0.0054 -0.2092  0.0162
14083W        W30157   2.036   8.160  12.339  0.1353  0.1927  0.1349
14084W        W30158   6.656  12.363  13.191 -0.1445  0.0956  0.1543
14085W        W30159   5.652   8.168   0.433  0.1813  0.0276  0.1965
14086W        W30160   0.343  14.046  12.222 -0.0276  0.0450 -0.3370
14087W        W30161  17.121  16.734  13.117  0.0248 -0.0006 -0.4187
14088W        W30162   6.443  10.413  15.474 -0.0180 -0.1131  0.1917
14089W        W30163  10.016  11.422   0.668 -0.1115  0.0716 -0.0119
14090W        W30164   9.507   0.333  15.070 -0.2516 -0.0718  0.0971
14091W        W30165   6.385   8.790  15.631  0.2260 -0.3163 -0.2158
14092W        W30166   9.773  16.262  14.648  0.0354 -0.1448  0.0350
14093W        W30167   5.273   8.713  16.337 -0.1156  0.1476  0.0773
14094W        W30168  10.513  14.101   5.397  0.0932 -0.0447 -0.0520
14095W        W30169  12.380   0.103  14.715 -0.5845 -0.1750 -0.0852
14096W        W30170  17.347   3.039  14.109  0.0343 -0.0839  0.3361
14097W        W30171   5.459  14.699   4.719 -0.0065 -0.4361  0.1489
14098W        W30172   0.355   7.380   1.022  0.1724 -0.2424 -0.2015
14099W        W30173   7.346   2.803  12.909  0.0245 -0.4234  0.1363
14100W        W30174   2.903  10.840   0.509 -0.0360 -0.0358 -0.2213
14101W        W30175   9.922   2.360  11.650  0.0122 -0.1072  0.4498
14102W        W30176  10.070   0.851   1.025  0.0006  0.1062  0.1534
14103W        W30177  16.327   7.927   4.154 -0.0009 -0.0285 -0.0564
14104W        W30178   9.013  17.515  11.835  0.3047 -0.0740  0.0640
14105W        W30179  12.488   0.402  13.588  0.0547 -0.0044 -0.3334
14106W        W30180   5.562   4.796   3.027 -0.0053 -0.2622  0.2090
14107W        W30181  12.946   3.669   1.637 -0.2427 -0.0121  0.0488
14108W        W30182  13.459   1.033   4.005 -0.1256  0.0771 -0.1271
14109W        W30183  13.318  16.844   6.427 -0.0496 -0.1302 -0.1616
14110W        W30184   1.104   2.719  15.129  0.1823  0.0066  0.1841
14111W        W30185   3.547   6.364  16.176 -0.1015 -0.3098 -0.0840
14112W        W30186  12.122  11.857  16.559 -0.2261  0.1128 -0.1278
14113W        W30187   7.215   1.854   3.639 -0.2175 -0.0237 -0.2032
14114W        W30188  16.498   0.151   3.508 -0.1822  0.1417  0.0606
14115W        W30189   4.716   4.377  15.208  0.4880  0.1102 -0.1910
14116W        W30190   0.967  16.821  11.625  0.3109  0.2076 -0.0215
14117W        W30191   2.205   3.022  14.244 -0.1425 -0.0817  0.2360
14118W        W30192   2.148  15.303  15.389 -0.1618 -0.1297  0.0605
14119W        W30193  13.428   4.252   1.417  0.1953 -0.1829  0.1251
14120W        W30194   7.744  14.634  16.453  0.2022  0.0757  0.1759
14121W        W30195  11.912   4.518   4.517 -0.0134 -0.0497  0.1219
14122W        W30196  10.369  14.157  12.218 -0.1645 -0.3012  0.0322
14123W        W30197   2.460  16.721  14.578  0.1664  0.0422  0.0003
14124W        W30198  17.632   2.411  16.692  0.0611  0.0121 -0.1477
14125W        W30199  17.463   0.429  12.066 -0.0234  0.0998 -0.1026
14126W        W30200  12.734   0.098   1.163 -0.1394 -0.0580 -0.2655
14127W        W30201   8.160  14.100   0.210 -0.1117  0.1599 -0.1006
14128W        W30202   5.043   4.673  13.924 -0.3237 -0.0288 -0.0968
14129W        W30203  15.060  15.165   3.365 -0.2118 -0.0400  0.0702
14130W        W30204  15.789  12.129   4.745  0.2107  0.0212  0.0998
14131W        W30205   7.355  14.326   0.770 -0.3092 -0.2114 -0.0148
14132W        W30206  12.492   9.361  16.002 -0.1642  0.1417  0.0224
14133W        W30207  14.086   1.977   5.844  0.0127  0.1468 -0.1169
14134W        W30208  15.247   1.233  11.846  0.0874 -0.0471  0.1132
14135W        W30209  13.656   6.060   1.123 -0.2191  0.1030  0.1090
14136W        W30210   5.930  10.202   5.678 -0.1609  0.1278  0.0354
14137W        W30211  17.518  15.448  15.668  0.2243  0.2063 -0.0560
14138W        W30212   8.141   2.844   4.545  0.1702  0.3455 -0.1029
14139W        W30213  10.742   6.022  13.817  0.1214 -0.1409 -0.3470
14140W        W30214  15.455   0.322   5.731 -0.1256  0.0182  0.1276
14141W        W30215  11.114   9.581   5.023 -0.1284 -0.2434 -0.1231
14142W        W30216  12.640   6.269  13.934  0.2804 -0.0903  0.0160
14143W        W30217   9.143  13.779  16.152  0.1417 -0.3036  0.0797
14144W        W30218   4.203   0.184   0.313 -0.1880 -0.1073  0.3356
14145W        W30219  11.958   9.027  14.333 -0.2242 -0.1613  0.1927
14146W        W30220  17.385   1.267  11.856  0.2220  0.0312  0.0731
14147W        W30221   2.120   8.115  12.856 -0.0104 -0.0840 -0.2311
14148W        W30222   0.044  12.087   5.501  0.1390 -0.2169 -0.1423
14149W        W30223  16.067   7.530   0.063 -0.0582 -0.0979 -0.0848
14150W        W30224  16.227   1.880   1.128  0.1031  0.0482  0.2160
14151W        W30225   0.647   7.472  16.341 -0.4004 -0.0257 -0.4116
14152W        W30226   7.678   7.127  14.520 -0.0515 -0.1654 -0.1431
14153W        W30227   6.479  10.859   2.328 -0.1544 -0.3728 -0.0201
14154W        W30228   0.756   9.238  13.427 -0.0662  0.3339  0.3214
14155W        W30229   9.983  16.720  14.717 -0.0499 -0.0470 -0.0366
14156W        W30230   0.125   5.505  14.181  0.1782  0.0741  0.2090
14157W        W30231  16.197   6.571   2.742  0.0114  0.0917  0.2360
14158W        W30232  15.259   8.598  14.556  0.2821  0.0770  0.2920
14159W        W30233   7.633  15.242  15.680  0.0475  0.1414 -0.1293
14160W        W30234  10.417  17.103  13.040  0.0829  0.3386 -0.0959
14161W        W30235  14.244   5.764  16.643 -0.2312  0.0772  0.2583
14162W        W30236  14.790  17.048   1.199 -0.0665 -0.1645  0.3866
14163W        W30237  10.065  16.687  15.440  0.1822  0.1209 -0.2737
14164W        W30238  16.638   9.799  12.541 -0.0216  0.0422 -0.0443
14165W        W30239   3.938  12.303  13.754  0.1090  0.0273 -0.1960
14166W        W30240   2.301   9.590   3.244 -0.0702 -0.4452 -0.3067
14167W        W30241  15.397   4.702  13.326  0.0759  0.2889 -0.5551
14168W        W30242   1.170  17.417   3.437  0.0669 -0.0681 -0.0239
14169W        W30243   1.640   1.993  13.600  0.3380 -0.0154  0.0753
14170W        W30244  15.548   1.818  12.030  0.2854  0.0500 -0.1613
14171W        W30245   7.050   2.714   4.726  0.0311 -0.0266 -0.3427
14172W        W30246   2.499  12.900   3.226 -0.1736 -0.0482 -0.2111
14173W        W30247   7.462  10.496  13.716  0.0638  0.0801  0.2750
14174W        W30248  11.485   0.281   5.403 -0.1743 -0.2555 -0.1046
14175W        W30249  11.509  10.510   5.223  0.0816  0.2895  0.0773
14176W        W30250   2.608  15.314   0.554  0.1961 -0.1553  0.2271
14177W        W30251   8.729  17.157  16.034  0.3115  0.2644 -0.3107
14178W        W30252  10.644   6.596   5.369 -0.3325 -0.1964 -0.1485
14179W        W30253   8.261   1.241   1.307  0.0966  0.1260 -0.2471
14180W        W30254   3.010   2.508  14.568  0.1286 -0.0608 -0.0339
14181W        W30255   8.078   6.921  15.365 -0.0151 -0.2631 -0.1243
14182W        W30256  15.865  15.721  13.281 -0.1882 -0.0737 -0.1091
14183W        W30257  17.356   9.239  12.153 -0.0356 -0.2567 -0.3182
14184W        W30258  13.627  12.077  15.944 -0.4037  0.0292 -0.1162
14185W        W30259   4.082  15.014  12.009  0.0952 -0.2879  0.0629
14186W        W30260   1.273  17.126   3.058 -0.1470  0.0104  0.0795
14187W        W30261   2.793   4.439   5.128 -0.0327 -0.0965 -0.2441
14188W        W30262  14.308   4.842  15.058 -0.0363  0.1783  0.0313
14189W        W30263  13.170   4.515  14.142  0.0752  0.0782 -0.1138
14190W        W30264  13.643   0.323   1.582  0.0951  0.1602 -0.0710
14191W        W30265   8.448  16.078  14.646  0.2444  0.1354  0.0263
14192W        W30266   5.946   9.268   2.660 -0.1038  0.1747  0.0726
14193W        W30267   6.823  13.550  13.987  0.0449  0.0407  0.3981
14194W        W30268  15.675   7.717  14.843 -0.2529  0.2255 -0.0486
14195W        W30269   6.512   6.607   0.224  0.2435 -0.0116 -0.0164
14196W        W30270  11.322   7.570   1.139  0.1028  0.0805  0.1847
14197W        W30271  11.881  11.799   1.818  0.0914  0.1366  0.1768
14198W        W30272   6.091  17.263  14.787  0.0490  0.1010  0.0306
14199W        W30273  17.047   2.415   2.355  0.1670  0.1390  0.3481
14200W        W30274   9.643  13.669   5.141 -0.2693 -0.2093 -0.1509
14201W        W30275   9.872  17.232   0.017  0.0453  0.0665  0.3619
14202W        W30276  11.985   1.316   0.130  0.1513  0.3471  0.1266
14203W        W30277  15.608  14.459   0.693  0.2464  0.2349  0.1933
14204W        W30278  10.875   8.372   0.081  0.3837  0.2258  0.3229
14205W        W30279  12.208  10.331   1.180 -0.0459  0.2524  0.0858
14206W        W30280  10.283   3.343  16.134 -0.0180  0.0574  0.0781
14207W        W30281  10.327   0.565   2.620 -0.0100  0.0702  0.1495
14208W        W30282  13.467  12.913  16.221  0.2001  0.1837 -0.2761
14209W        W30283   2.639  16.543   3.143  0.1893  0.0217  0.1558
14210W        W30284  15.793  14.109   3.397  0.1727 -0.1508 -0.0578
14211W        W30285   3.375  11.175   1.233 -0.1484  0.0957  0.0306
14212W        W30286   7.070   4.483   2.827 -0.2007 -0.1132 -0.0296
14213W        W30287   3.918   3.924   1.844 -0.0557 -0.2198 -0.1325
14214W        W30288   0.097  14.136   2.428 -0.1932  0.2239  0.1696
14215W        W30289  10.247   7.416   4.137  0.1731  0.3355  0.1570
14216W        W30290  11.648  11.173   2.492  0.0026 -0.1446 -0.0219
14217W        W30291  12.684   4.984   2.150 -0.1304  0.0567  0.1640
14218W        W30292   5.870  10.969   4.922  0.1730 -0.0200  0.3094
14219W        W30293   6.673  14.721   2.709  0.0065  0.2109  0.1152
14220W        W30294  11.604  12.191   0.920 -0.0862  0.0505  0.2065
14221W        W30295   6.236  14.058  13.969 -0.1114  0.0520 -0.1302
14222W        W30296   0.674  15.286  12.834 -0.0774  0.1238  0.2111
14223W        W30297  15.851  16.260   3.178  0.1759 -0.0127  0.1446
14224W        W30298   8.599   8.457   3.748 -0.1539  0.0751 -0.0519
14225W        W30299   1.300  15.669  15.388  0.2098 -0.1049 -0.1160
14226W        W30300  11.148  11.306   2.717  0.2672  0.0401 -0.1623
14227W        W30301   1.968  12.214  11.810  0.2187  0.2559  0.2757
14228W        W30302   8.999  13.163   4.525  0.0554 -0.3768 -0.3761
14229W        W30303   9.497  15.140   2.460  0.0343 -0.3871  0.1607
14230W        W30304  10.548   2.401   2.794 -0.1784  0.1184  0.0680
14231W        W30305  12.337   3.741   0.832  0.2885 -0.0023  0.1278
14232W        W30306   1.638  16.407   3.294 -0.1259  0.1003  0.1425
14233W        W30307   0.410   2.752  12.366 -0.2085 -0.2471 -0.2718
14234W        W30308   5.325  16.964   3.084  0.0710 -0.1025 -0.1638
14235W        W30309  12.683   0.185   5.662  0.1541  0.1839 -0.3639
14236W        W30310  14.667   4.340   3.447 -0.1688 -0.1187 -0.1059
14237W        W30311   7.503  13.679   3.675  0.0976 -0.2480 -0.4570
14238W        W30312  12.582  13.175  16.383  0.2788  0.0012 -0.0105
14239W        W30313   6.188   9.915   0.071  0.3471  0.3511 -0.1242
14240W        W30314   0.116   6.985   4.740 -0.0438  0.2140 -0.2211
14241W        W30315   0.142  14.013   2.977  0.0482  0.1890 -0.1643
14242W        W30316  15.346   7.936   5.018 -0.1478 -0.1707  0.1017
14243W        W30317  13.865   2.474  13.908 -0.0931 -0.1094 -0.1254
14244W        W30318   1.862  13.793   4.908 -0.0485 -0.0929 -0.0865
14245W        W30319   7.155   1.203   4.231  0.0366  0.0378  0.1111
14246W        W30320  15.687   7.527  13.598 -0.0364  0.2544  0.0498
14247W        W30321   4.848  15.509   5.479 -0.3108  0.0291  0.0911
14248W        W30322   2.782  11.617   2.831 -0.1045 -0.3158  0.0844
14249W        W30323  12.828   5.131   6.064 -0.0770  0.4622  0.1187
14250W        W30324  10.406  14.292  16.175 -0.1960 -0.0584  0.1326
14251W        W30325   2.223  12.538   5.318  0.0715  0.0649 -0.1009
14252W        W30326   5.329  17.731   4.389 -0.2712 -0.0353  0.1045
14253W        W30327   5.008   7.175   2.256  0.2150 -0.1015 -0.0368
14254W        W30328  14.023   0.347  12.594 -0.1002 -0.0096 -0.2670
14255W        W30329   1.062   6.921  16.754  0.1680  0.1431 -0.0867
14256W        W30330  13.423   0.994  15.047  0.2248 -0.0212 -0.0396
14257W        W30331   2.788   5.362   2.296  0.0773  0.0024 -0.0392
14258W        W30332   5.561  13.402   5.226  0.0907 -0.1462 -0.1442
14259W        W30333   3.389   2.813  13.706 -0.1178  0.4720  0.1277
14260W        W30334   1.858   3.178  14.788 -0.1059 -0.1180 -0.1504
14261W        W30335  17.734   0.734   1.464  0.2125  0.0340 -0.2730
14262W        W30336   6.591   6.817  11.757 -0.1654  0.0349  0.0964
14263W        W30337  12.362  10.757   1.504  0.3136  0.1498  0.0335
14264W        W30338   4.381   0.723   4.887 -0.1441 -0.1428 -0.0162
14265W        W30339  14.579   4.793   4.426  0.2273 -0.0878 -0.0106
14266W        W30340   6.576   6.218  15.818 -0.0770  0.0142 -0.1372
14267W        W30341   5.255  13.578   4.358  0.2975  0.1012 -0.0007
14268W        W30342   4.195   4.393   5.786 -0.0850 -0.2904  0.3447
14269W        W30343   3.911   1.068   4.092 -0.0127  0.0009  0.1064
14270W        W30344  14.261  17.670   5.848 -0.1753  0.0269 -0.2312
14271W        W30345   3.351   8.459   0.279 -0.3003 -0.1109  0.1539
14272W        W30346   5.695  17.695  10.963  0.3112  0.4073  0.2456
14273W        W30347   1.919   4.188  14.534 -0.2731 -0.0967  0.0843
14274W        W30348   3.380  17.516  13.973 -0.2694 -0.0016  0.1073
14275W        W30349   6.025  17.646   6.014  0.3086  0.2670 -0.2001
14276W        W30350  16.095   9.513   4.628  0.0331  0.0214 -0.1663
14277W        W30351  13.425   9.309   6.091 -0.0019 -0.0579 -0.1602
14278W        W30352  10.039  13.082   4.580  0.0903 -0.0456 -0.2024
14279W        W30353  11.944   9.977   0.037 -0.1577  0.0778  0.3222
14280W        W30354   6.853   3.539  15.280  0.1462 -0.3345  0.0348
14281W        W30355  16.898   7.682   2.939 -0.5187 -0.2420 -0.1102
14282W        W30356  11.297   0.824   2.377 -0.0514  0.0149  0.1952
14283W        W30357  17.219  12.178  14.955  0.0253 -0.0898  0.1488
14284W        W30358   6.208  13.314   4.237 -0.1823 -0.1945 -0.3319
14285W        W30359  15.635  12.606   0.857  0.1276  0.2856 -0.1102
14286W        W30360   2.205   1.747   4.108 -0.1685 -0.0020 -0.0543
14287W        W30361   3.178  13.474   5.517 -0.2178  0.1820  0.1766
14288W        W30362   8.814   9.126  14.210  0.1855  0.3702 -0.2025
14289W        W30363   4.848  16.931   5.982  0.0640 -0.2980  0.0445
14290W        W30364   9.176   1.158   3.826 -0.0694  0.3007 -0.1263
14291W        W30365   1.290   6.928   6.014 -0.0818 -0.0505 -0.1464
14292W        W30366   0.738   7.082   1.427 -0.2899 -0.0504 -0.0088
14293W        W30367  16.416  17.266   4.709  0.0049  0.0258  0.1890
14294W        W30368   6.743   0.117   0.937  0.2190  0.0581 -0.1166
14295W        W30369  10.760  11.726  12.756  0.0685  0.0826 -0.1150
14296W        W30370   9.747  16.602   4.516 -0.1360 -0.1308  0.2710
14297W        W30371   3.599  14.876   1.253 -0.0431 -0.2498 -0.0130
14298W        W30372   1.440   2.410  12.169 -0.2449  0.0151 -0.0008
14299W        W30373  10.062  17.574  11.852 -0.1693 -0.0246  0.0384
14300W        W30374  11.536   7.652  12.428  0.0765 -0.1915 -0.1871
14301W        W30375   4.832  16.108  11.476  0.0248  0.2692 -0.0973
14302W        W30376  16.263   0.491   1.730 -0.1348 -0.0871  0.1043
14303W        W30377  16.914  14.839  13.669 -0.2046 -0.1192  0.1329
14304W        W30378   7.265  11.349  15.803 -0.1466  0.1147  0.0208
14305W        W30379  13.429  13.201   4.962  0.0598  0.1881 -0.1988
14306W        W30380  12.346  15.467   2.515  0.0033 -0.1670 -0.0804
14307W        W30381   0.934  15.134   2.991  0.0052 -0.3812 -0.1087
14308W        W30382  16.778  10.015   4.449 -0.2380  0.3930  0.1115
14309W        W30383  17.728   7.254  12.649  0.1092 -0.0834  0.1133
14310W        W30384  15.416   4.788  14.322 -0.1786  0.1184  0.2598
14311W        W30385  15.280   2.121   0.261 -0.3813  0.0503  0.0801
14312W        W30386  11.174   7.872   3.618  0.1718 -0.0728 -0.0580
14313W        W30387   4.947  10.567  12.383 -0.1603  0.1176  0.2394
14314W        W30388   3.206  11.130   3.412 -0.0655 -0.1374 -0.3238
14315W        W30389  12.693   6.670  16.581  0.3614 -0.2466 -0.1116
14316W        W30390  16.108  12.488   1.184 -0.0008  0.0841  0.0652
14317W        W30391  13.129   6.132  12.923 -0.1564  0.1309  0.0289
14318W        W30392   7.222   6.495   3.096 -0.3709 -0.1496 -0.4058
14319W        W30393   2.618   6.698   1.130 -0.1214  0.1795 -0.0233
14320W        W30394  14.836   8.164   3.320  0.1292 -0.1467  0.0357
14321W        W30395   4.400   8.037  13.416  0.2161  0.4076 -0.0199
14322W        W30396   5.013   3.070  13.947 -0.3491 -0.0349 -0.3053
14323W        W30397   4.057  16.681   1.781 -0.5506  0.0218  0.0637
14324W        W30398  14.034   0.376   0.283  0.0641 -0.0254  0.1618
14325W        W30399   7.955  14.679   5.318 -0.0727  0.0109  0.0578
14326W        W30400  12.734   1.846  13.372 -0.2656  0.1802 -0.1090
14327W        W30401  12.132  16.574  16.840 -0.1760  0.0837 -0.0342
14328W        W30402   0.576   9.002   6.328  0.0091  0.1205 -0.2633
14329W        W30403  14.760   2.239   1.418 -0.1580 -0.0957  0.0315
14330W        W30404  15.911  10.907  14.789 -0.0566 -0.0733 -0.0928
14331W        W30405   1.447  11.237  12.429 -0.0511  0.0451 -0.0189
14332W        W30406  10.296   5.736   2.163 -0.2588 -0.1448  0.3744
14333W        W30407   2.281   3.449   2.883 -0.0725 -0.0556  0.1413
14334W        W30408  13.974   9.397   2.637  0.1890  0.0565  0.2829
14335W        W30409   5.729  13.421  16.676 -0.0488 -0.0690 -0.0412
14336W        W30410   9.729   2.235   1.037 -0.0680 -0.1726  0.1009
14337W        W30411  15.037   6.642   3.266  0.0679 -0.0245 -0.0581
14338W        W30412  16.281  16.733  13.914  0.3593  0.0697  0.0990
14339W        W30413   7.658   1.188   5.398 -0.1373 -0.0219  0.0155
14340W        W30414   5.532  10.173   4.714  0.0634  0.0158  0.1270
14341W        W30415   8.299   7.679  16.868 -0.0107  0.2733 -0.1534
14342W        W30416  12.115  12.348   4.515  0.1410 -0.3085 -0.1921
14343W        W30417  10.437   9.655  15.798  0.2209  0.1680 -0.0532
14344W        W30418   5.163   4.039  15.933 -0.0362 -0.0911 -0.1179
14345W        W30419   5.715  14.419   1.429  0.0019  0.4571  0.2222
14346W        W30420   1.151  13.770  12.869 -0.1547  0.3143  0.1654
14347W        W30421  15.887   6.093  14.739 -0.0017 -0.0583  0.0418
14348W        W30422  14.436   8.322  13.690 -0.0751  0.5089 -0.1029
14349W        W30423   8.915   1.531  15.215 -0.0344  0.0598 -0.2644
14350W        W30424  11.359  14.744  13.329 -0.2618 -0.1440 -0.1708
14351W        W30425   9.300   9.506  13.780  0.4040  0.3936  0.1181
14352W        W30426   2.197   8.061   4.417 -0.4465 -0.0819 -0.2592
14353W        W30427   2.506  17.205  14.108 -0.1971 -0.3434 -0.1197
14354W        W30428   1.915  11.326   3.535 -0.0572  0.4942 -0.1508
14355W        W30429   6.811   5.655   5.295 -0.0007 -0.3512 -0.0093
14356W        W30430   5.116  11.886   4.249 -0.3224  0.0160 -0.0999
14357W        W30431  14.785   5.363  14.475 -0.0239 -0.2200  0.1960
14358W        W30432  10.294  12.412  13.044 -0.3700  0.0600  0.0707
14359W        W30433   0.516   4.246  14.664  0.2168  0.1542 -0.3435
14360W        W30434  17.828  16.987  15.583 -0.1290 -0.0811 -0.1126
14361W        W30435   8.033   4.234  13.489 -0.1497  0.2607  0.0771
14362W        W30436  12.963   0.258  12.050 -0.0716 -0.1794 -0.0288
14363W        W30437   5.009  13.627   3.889  0.0572  0.0439 -0.1628
14364W        W30438   8.297   4.633  15.695  0.2237  0.2236 -0.2099
14365W        W30439  13.657  12.005  12.862 -0.2380  0.0526 -0.0990
14366W        W30440   9.559   3.035  15.816 -0.0515  0.4208 -0.0156
14367W        W30441   6.879  17.151   0.751 -0.2729  0.0378 -0.0213
14368W        W30442   3.266   5.439  14.020  0.1767  0.0835 -0.1653
14369W        W30443  12.358  10.501  13.357 -0.0233  0.2973  0.1025
14370W        W30444  15.834  16.741  16.694 -0.2654  0.2667  0.0686
14371W        W30445   8.091  13.937   2.970  0.0644 -0.0676  0.0949
14372W        W30446   5.996   6.936  15.404  0.1469  0.1676 -0.1836
14373W        W30447   6.887   5.457  15.279 -0.0019 -0.0364  0.0621
14374W        W30448   1.829   8.676  14.053  0.0922 -0.0709 -0.1814
14375W        W30449  14.726   2.952  14.882 -0.0321 -0.0662 -0.1646
14376W        W30450   4.940   5.397  15.401 -0.1221 -0.1452 -0.0666
14377W        W30451  17.064   6.580  16.882 -0.2073 -0.1276  0.0210
14378W        W30452   8.253   3.650  12.948 -0.3719 -0.2216  0.0870
14379W        W30453  14.715   0.929   0.397 -0.0520  0.1006 -0.1216
14380W        W30454  12.064  12.933   2.659 -0.0385  0.1664  0.0093
14381W        W30455  10.216   5.401  15.727  0.2283 -0.0975 -0.1271
14382W        W30456  14.357   2.637   4.019  0.0534 -0.2374 -0.1970
14383W        W30457   3.146  17.029   4.914 -0.1437  0.1921  0.2928
14384W        W30458  14.626  11.583  13.361  0.0173 -0.1093 -0.0279
14385W        W30459   1.296   4.472  15.196  0.0216 -0.0252 -0.0392
14386W        W30460   0.399   8.992  11.986  0.0871  0.0846 -0.0929
14387W        W30461  12.526   4.211   2.223 -0.0871 -0.2365  0.2555
14388W        W30462  14.869  13.464   5.487  0.1968  0.0149 -0.0955
14389W        W30463   8.000  17.407   5.486  0.2468 -0.0128  0.1203
14390W        W30464  16.443   2.243   3.960  0.0859  0.0267  0.2423
14391W        W30465   8.757  10.236   3.502 -0.3234  0.0096  0.0227
14392W        W30466  17.317  14.945   1.285 -0.0371 -0.1557 -0.1118
14393W        W30467   5.289   8.493  14.478  0.1451  0.2250 -0.0866
14394W        W30468  16.605  15.613   1.438 -0.2258 -0.0712  0.0155
14395W        W30469  15.828   8.689  14.487 -0.2386 -0.1595 -0.1156
14396W        W30470  10.592  14.270  12.993  0.1077  0.1688 -0.1298
14397W        W30471  12.034   1.040  12.904  0.1546 -0.0036  0.1946
14398W        W30472  12.430   2.579   1.480  0.4472  0.0417  0.2221
14399W        W30473  10.072  12.351  14.187  0.2235  0.2800 -0.1468
14400W        W30474   1.729  12.726  12.450  0.1903 -0.0826 -0.1245
14401W        W30475  17.387  11.745   0.164  0.0105 -0.1872  0.2187
14402W        W30476  13.953   7.959  15.046  0.0571  0.1336 -0.0919
14403W        W30477   4.782  15.141   3.330 -0.0516  0.1079 -0.0175
14404W        W30478  10.492   0.790  13.605  0.1341  0.1706  0.0933
14405W        W30479  17.490  12.394  15.705 -0.1781 -0.2028  0.0383
14406W        W30480   4.871   1.806  14.740  0.0113 -0.0879  0.2118
14407W        W30481   7.602  17.770  13.975  0.2720  0.0759  0.2515
14408W        W30482  10.946   4.816   0.295  0.0915  0.0674  0.0141
14409W        W30483  16.506   5.907   3.062  0.0921 -0.0458  0.1136
14410W        W30484  15.005   8.283  16.835 -0.3139  0.0486 -0.2963
14411W        W30485   2.220  11.982   3.255 -0.0059  0.0573 -0.1201
14412W        W30486   0.043   5.488  11.609 -0.1133  0.0104 -0.0129
14413W        W30487  10.222  10.034   2.399  0.2453 -0.0524 -0.0659
14414W        W30488   3.046   7.502   5.337 -0.0530 -0.2756 -0.2425
14415W        W30489  14.274   3.566   3.968  0.0419  0.0428  0.2274
14416W        W30490   7.397   8.521  14.883  0.4052  0.0212  0.2497
14417W        W30491   1.268  11.214  12.884  0.0446 -0.2146  0.0779
14418W        W30492   6.986  12.006   4.746 -0.0468 -0.1316 -0.1047
14419W        W30493  13.809  17.357  15.383 -0.2047  0.0993 -0.1152
14420W        W30494  13.648   8.018  14.284  0.3593 -0.0394 -0.0518
14421W        W30495   1.210   7.167   5.598 -0.1596  0.0301  0.3527
14422W        W30496   6.112  16.193  13.872 -0.2084  0.0730 -0.0647
14423W        W30497   5.085  13.704   1.747 -0.0318  0.1683 -0.2227
14424W        W30498  10.561   9.459  11.982 -0.1859  0.0106  0.1649
14425W        W30499  15.227   7.850   4.266 -0.2580  0.2091  0.4729
14426W        W30500  13.786  12.955  12.230  0.1326 -0.0317 -0.0008
14427W        W30501   6.211  12.623   6.431 -0.1210  0.0807 -0.3999
14428W        W30502   7.440   0.814  11.749 -0.0901  0.0508  0.0106
14429W        W30503   5.814   9.686  11.679 -0.0092 -0.2858  0.1175
14430W        W30504  16.178  12.783  12.143 -0.2500 -0.0213 -0.1574
14431W        W30505  11.089   1.267   4.274  0.0401  0.0602 -0.0482
14432W        W30506   7.774  14.089  16.256  0.1821  0.0127  0.0385
14433W        W30507   5.667   1.030   3.760 -0.1724 -0.0293 -0.1627
14434W        W30508   9.587   7.204  12.822  0.1526 -0.1106  0.0544
14435W        W30509   6.189   0.875   0.647  0.4406 -0.2243  0.0897
14436W        W30510   6.081  10.666   2.741  0.0359  0.0038 -0.1964
14437W        W30511   8.603   4.792   5.491 -0.0333  0.0537  0.0850
14438W        W30512   5.096   6.410  14.118  0.3519  0.0174 -0.1058
14439W        W30513   2.453   6.209   2.929 -0.0669 -0.0697  0.0315
14440W        W30514  16.635  16.491  16.096  0.0954 -0.0244  0.1191
14441W        W30515  14.048   1.996  12.527 -0.0173 -0.2295 -0.1058
14442W        W30516  12.287   4.213  14.001 -0.2267 -0.0558 -0.1113
14443W        W30517   4.214  13.989  16.477 -0.0552  0.0007  0.1340
14444W        W30518  15.165  12.635  12.021 -0.0854  0.0392 -0.1947
14445W        W30519   8.366   9.177   4.338 -0.0881 -0.1898 -0.1194
14446W        W30520  10.964   7.375   0.310  0.5215  0.0327 -0.2061
14447W        W30521  14.041   4.192  16.899  0.1400 -0.1567  0.1181
14448W        W30522   0.730   4.082   5.450  0.2355  0.3253  0.2759
14449W        W30523  13.929  11.080   4.122  0.0805  0.1588 -0.0644
14450W        W30524   6.312  16.420   3.690  0.0869  0.0477 -0.2588
14451W        W30525   1.489   9.933   1.768 -0.2841  0.1218 -0.2659
14452W        W30526  14.749  11.181   2.346 -0.1743 -0.0938  0.0366
14453W        W30527  13.951  10.245   3.844  0.2422  0.0954 -0.0307
14454W        W30528   0.887   4.706  15.346 -0.0399 -0.3132 -0.0017
14455W        W30529  17.436   5.943   5.676 -0.1422  0.2522 -0.2485
14456W        W30530  11.048  10.549   0.648 -0.1660 -0.2789  0.3504
14457W        W30531  17.671   8.103  15.177  0.1624 -0.0635  0.0828
14458W        W30532  11.658  12.262  13.639 -0.0658 -0.0098 -0.2550
14459W        W30533   1.660  12.891   4.428  0.0379  0.0588  0.4070
14460W        W30534   9.461   6.429  16.710  0.3018 -0.2123 -0.3241
14461W        W30535   9.260   1.492  14.286 -0.0725 -0.1895  0.0120
14462W        W30536   7.648   5.986  13.710  0.0531  0.4113 -0.0226
14463W        W30537   0.702   6.999  13.085  0.3040  0.1440  0.0602
14464W        W30538  10.192   4.493   4.716 -0.0141  0.0587  0.3574
14465W        W30539  14.743   1.232  15.425 -0.0208  0.0956 -0.4235
14466W        W30540  10.066   6.641  15.612 -0.1188 -0.4091  0.1021
14467W        W30541  11.617  13.356   3.381 -0.3938  0.1809 -0.2555
14468W        W30542   2.261  14.633  16.324 -0.2826 -0.1123  0.1397
14469W        W30543  10.278   0.302   1.598 -0.3067 -0.0899 -0.0524
14470W        W30544  11.725   0.417   2.869 -0.0681  0.1750  0.2493
14471W        W30545   0.170  14.604   4.407 -0.1547 -0.3323 -0.0689
14472W        W30546  16.706  15.705  15.761  0.0050  0.1146 -0.1141
14473W        W30547  17.544  14.379   1.043 -0.0817  0.1187  0.0848
14474W        W30548   9.892  11.700  15.176  0.0081 -0.0816 -0.2337
14475W        W30549  10.292  13.221  11.848 -0.0114 -0.4392 -0.5912
14476W        W30550  11.771   8.810  13.314 -0.2657 -0.0775  0.2501
14477W        W30551   6.653   0.217  13.995  0.2813 -0.0257  0.0281
14478W        W30552   2.280  15.301  14.679 -0.4468 -0.0400 -0.1543
14479W        W30553  10.440   0.621   3.444 -0.1758  0.0850  0.1733
14480W        W30554   6.925  10.338  14.408  0.0689  0.0259  0.0065
14481W        W30555   2.636  15.992  13.216  0.1476 -0.0105  0.0028
14482W        W30556   6.165   3.451  14.511 -0.0925 -0.0160  0.1401
14483W        W30557  13.063   1.811   0.469  0.2400 -0.0851  0.0292
14484W        W30558   1.034   2.518   4.078 -0.2064  0.1672  0.1719
14485W        W30559  13.501   9.314  15.911  0.1678 -0.1861  0.1596
14486W        W30560   7.642   8.284  12.377  0.2792 -0.1891 -0.1831
14487W        W30561  14.294   1.393  16.338 -0.2002 -0.0070  0.4499
14488W        W30562   9.311   2.226  14.862  0.0500 -0.2433 -0.0117
14489W        W30563  10.738  11.868   3.296 -0.0111 -0.1102  0.2189
14490W        W30564   7.238   6.667   2.579  0.1970 -0.2722 -0.2215
14491W        W30565  14.233   3.117  13.337  0.1550  0.0511 -0.2041
14492W        W30566   3.135   8.671  16.368 -0.1599  0.3257  0.0190
14493W        W30567  12.461  17.553   3.768 -0.2190 -0.1206  0.0459
14494W        W30568   9.897   3.455  15.757 -0.4530  0.0574  0.1612
14495W        W30569   4.059  16.503   5.771  0.2098  0.0902  0.2724
14496W        W30570  17.219   7.331  14.958 -0.0357 -0.3694  0.1727
14497W        W30571  17.775   1.694  14.511 -0.1711 -0.0536 -0.1568
14498W        W30572  11.626  14.977   2.588  0.0694  0.2538  0.0205
14499W        W30573   5.541  15.160   4.446  0.2762 -0.0616  0.1679
14500W        W30574  13.385   4.727  12.083 -0.0832  0.1573 -0.0860
14501W        W30575  10.359   4.116   4.076  0.4963  0.0702  0.1889
14502W        W30576   5.387  14.382   2.268  0.3122  0.1461  0.0336
14503W        W30577   1.705   2.512   5.575  0.2473 -0.0372 -0.1982
14504W        W30578   5.632   1.590   1.193 -0.1159  0.1893  0.2084
14505W        W30579  11.005  17.486   3.225 -0.0268  0.1208  0.1576
14506W        W30580   2.696  17.081   5.071  0.2761 -0.1596 -0.0980
14507W        W30581   4.310   3.231   1.474 -0.0177 -0.0915 -0.2399
14508W        W30582   8.621  16.749  11.799 -0.1254 -0.0217  0.0369
14509W        W30583   8.127   8.200  15.316 -0.2153  0.2023  0.2696
14510W        W30584   2.333  15.038   5.654  0.1880  0.0279 -0.0968
14511W        W30585  17.663   5.119  14.250 -0.1883 -0.1923 -0.0257
14512W        W30586   8.003   1.520   4.766 -0.0364 -0.1410  0.0146
14513W        W30587   8.484   7.369  12.235 -0.1923  0.0967 -0.0958
14514W        W30588  17.013   1.787  12.803  0.1144 -0.0157  0.1096
14515W        W30589   9.128  14.937  13.298  0.0046 -0.2241  0.1119
14516W        W30590   0.936   1.912   1.643  0.0381  0.3923  0.2646
14517W        W30591  10.258   0.286  16.676 -0.1941 -0.2511 -0.0034
14518W        W30592   7.123  17.791  15.821  0.1511  0.3835 -0.0860
14519W        W30593   1.858  15.291   3.324 -0.0639  0.0965  0.0464
14520W        W30594  16.941   6.411  14.304 -0.0285 -0.0242  0.1662
14521W        W30595   0.244  15.458  16.211 -0.1395  0.1657 -0.2014
14522W        W30596   3.183   8.344   0.753 -0.0846 -0.2996  0.1317
14523W        W30597   8.406   7.435   3.268  0.1544  0.1973  0.2036
14524W        W30598  13.667   1.018  13.601 -0.3001 -0.0750 -0.0723
14525W        W30599  16.381   3.549   4.213  0.1503 -0.1277  0.3745
14526W        W30600   0.358  10.674   0.727 -0.2311 -0.1804  0.2116
14527W        W30601  17.084   7.224  12.074  0.0856 -0.1107 -0.0860
14528W        W30602  17.287  12.895  13.729  0.0381  0.0433 -0.0224
14529W        W30603  11.154  10.178  13.413 -0.2695 -0.1170 -0.2440
14530W        W30604   7.055   8.292   1.397 -0.2503 -0.3295  0.2913
14531W        W30605   0.348  12.755   5.492 -0.2012 -0.3940  0.0824
14532W        W30606   0.783   4.942  12.105  0.1685 -0.0062  0.1536
14533W        W30607   0.078  11.850   4.380 -0.0633  0.0155 -0.0724
14534W        W30608  10.573  15.302  15.322  0.0734  0.0454  0.0223
14535W        W30609  12.324   9.239  14.060  0.1576  0.2538 -0.1469
14536W        W30610  11.992  10.026  14.420 -0.0194 -0.2036 -0.2203
14537W        W30611   2.215  15.722   2.620  0.0508  0.0191  0.3586
14538W        W30612  13.292   6.493   1.283  0.0783 -0.1656  0.2645
14539W        W30613  12.023  13.968   0.680  0.2762 -0.1305  0.4221
14540W        W30614   4.942   1.127  12.303  0.2240 -0.1500  0.1715
14541W        W30615   8.346   7.290   0.214 -0.0254 -0.0609 -0.1238
14542W        W30616  16.043  16.198  12.568  0.0106  0.0429 -0.2244
14543W        W30617   9.719  11.987   5.500  0.2078  0.0143 -0.1754
14544W        W30618  12.332  12.223   0.318  0.3574  0.0341  0.2563
14545W        W30619   1.524   5.907   0.876 -0.1260 -0.1519 -0.2058
14546W        W30620  15.308   1.130   4.078 -0.0299  0.1249 -0.2449
14547W        W30621   0.662  17.005  13.119 -0.0420  0.1828 -0.0179
14548W        W30622  16.281   2.491  13.455  0.1018 -0.2706  0.0108
14549W        W30623  16.051   7.386  13.920 -0.3644  0.2147  0.3705
14550W        W30624   9.153   9.001  16.677 -0.4638 -0.0290 -0.2640
14551W        W30625   9.349  16.776   4.760  0.0198 -0.3049 -0.2738
14552W        W30626   3.117   5.941   1.173  0.1322 -0.1531 -0.2638
14553W        W30627   2.660   8.670  15.380 -0.1350 -0.1643  0.1456
14554W        W30628   7.666   5.214  15.913  0.0343 -0.2680  0.0281
14555W        W30629   2.097  11.978   1.175 -0.2336 -0.2177  0.2646
14556W        W30630   4.953   8.430  15.159  0.1474 -0.1533  0.1064
14557W        W30631   3.878   5.115   3.979 -0.0294  0.3022 -0.1632
14558W        W30632  13.860   9.025   3.475  0.1291 -0.0319  0.0575
14559W        W30633   3.024   7.011  14.948  0.1302 -0.1980 -0.2297
14560W        W30634  17.240   9.060  10.885  0.0886  0.0225 -0.1503
14561W        W30635   0.452  12.682  16.945 -0.0684  0.2586  0.1586
14562W        W30636   1.318  11.612   5.254  0.2035 -0.0921 -0.0267
14563W        W30637   2.354   5.091  16.059 -0.0625 -0.1364  0.3220
14564W        W30638   6.281   8.773  16.131  0.0638  0.1740  0.1715
14565W        W30639   2.865  12.445  13.098 -0.0522  0.0699  0.1425
14566W        W30640  17.568   4.455  16.472  0.1465  0.1757  0.1719
14567W        W30641   4.314  10.322   0.171  0.1103 -0.1697  0.0218
14568W        W30642  14.919  16.205   1.623 -0.1456  0.0593 -0.2154
14569W        W30643  16.263   2.930  12.550  0.2326 -0.2854  0.0691
14570W        W30644  13.462   8.082  13.814  0.0622 -0.1813 -0.0223
14571W        W30645   5.441   0.234   2.387  0.4718 -0.1943  0.0067
14572W        W30646   7.791   7.392   5.219 -0.0932  0.0801 -0.1400
14573W        W30647  17.044  11.967   2.252  0.3165  0.1125 -0.3745
14574W        W30648  17.673   0.701  16.421  0.1185  0.0440 -0.3382
14575W        W30649  12.055   3.759  15.213 -0.0280  0.0313  0.2280
14576W        W30650   3.661  15.803  11.827 -0.4652  0.1778 -0.2587
14577W        W30651   3.921   7.973  15.645  0.0098 -0.2366 -0.0650
14578W        W30652  10.392   2.581   5.635 -0.2628  0.2899 -0.0431
14579W        W30653  12.518  12.689  16.503  0.2359 -0.1575  0.0240
14580W        W30654  13.057   9.533   0.239  0.2107  0.0727  0.5306
14581W        W30655  11.649  15.240   5.343  0.0216 -0.3755  0.2337
14582W        W30656  14.770   9.754   5.018 -0.0702 -0.1259  0.2025
14583W        W30657  14.508  16.729   0.469 -0.3444  0.1314  0.3496
14584W        W30658  11.557  17.375   0.186  0.0332 -0.2968 -0.0464
14585W        W30659  16.656  15.001  14.561  0.0368 -0.0547 -0.2162
14586W        W30660   7.464  13.119   5.845 -0.1227  0.0684  0.1432
14587W        W30661  13.689   0.952  15.481 -0.1761 -0.2138  0.2190
14588W        W30662  16.173   8.377   5.307 -0.2545  0.2888  0.0743
14589W        W30663   6.795  12.732  12.041 -0.1856 -0.0905  0.2230
14590W        W30664  14.363   3.214   1.403  0.0043  0.2172  0.2050
14591W        W30665  17.417  12.366   1.419 -0.2402 -0.2153 -0.0858
14592W        W30666   9.415  16.210   0.939 -0.1285  0.3853  0.0228
14593W        W30667   6.514  11.677  12.051  0.3524  0.1168 -0.0985
14594W        W30668  13.926   6.765  15.302  0.0253 -0.1062  0.1780
14595W        W30669  11.415   9.208   3.697  0.2163  0.0531 -0.0152
14596W        W30670  15.445  15.650   0.316  0.0651 -0.1902  0.1864
14597W        W30671  16.917   4.022   3.564 -0.0749  0.1269 -0.1955
14598W        W30672  16.258  13.524   4.261 -0.0027 -0.3031  0.1362
14599W        W30673   3.803  14.284   0.735  0.1565  0.2339  0.0326
14600W        W30674   0.728  14.588   2.214  0.4093  0.0807 -0.0854
14601W        W30675   8.719   1.214   0.354 -0.0974 -0.0945  0.3321
14602W        W30676   9.037  13.675   4.751 -0.1215 -0.0398 -0.2558
14603W        W30677   5.025   2.576   4.975 -0.1035  0.1911  0.1467
14604W        W30678   2.985   6.092   4.309  0.1938  0.0664 -0.3181
14605W        W30679   4.298   8.537  14.204 -0.0354  0.1598 -0.1974
14606W        W30680   0.415   5.911   4.039 -0.1067  0.2341  0.3528
14607W        W30681  14.181   6.654   1.832 -0.1232 -0.2427 -0.1098
14608W        W30682   6.121   9.129   0.624 -0.1860  0.2275  0.0870
14609W        W30683   2.965   4.259   4.678 -0.0328 -0.0373 -0.1524
14610W        W30684  13.029  12.983   2.952  0.0658 -0.4155  0.0100
14611W        W30685   8.154   3.217  12.699  0.4043  0.0602  0.1131
14612W        W30686  11.564  11.592   6.132 -0.1401  0.0681 -0.0492
14613W        W30687  13.961   9.844   6.114 -0.2038 -0.0603  0.1211
14614W        W30688   6.400   6.254  14.814 -0.0910 -0.2183  0.2720
14615W        W30689  10.749   7.402  16.811 -0.0392  0.0666  0.3843
14616W        W30690  16.754   6.229  15.259 -0.0062  0.0987 -0.3457
14617W        W30691  11.310   4.158  14.949 -0.1701  0.0919 -0.0377
14618W        W30692   5.090  14.166  12.144  0.1492 -0.0036  0.3810
14619W        W30693   4.055   9.099  11.849  0.1634  0.1339 -0.0764
14620W        W30694  15.303   8.936   0.641 -0.1825  0.0734 -0.1168
14621W        W30695   6.848   1.990  12.554  0.0230  0.3044  0.1648
14622W        W30696   2.734   5.349  16.659 -0.1540  0.0502 -0.1828
14623W        W30697   7.092   5.081   2.671 -0.0467 -0.0490  0.0125
14624W        W30698  12.579  15.788   0.756 -0.1370  0.1880 -0.2034
14625W        W30699  11.484   1.962   2.801  0.0759 -0.0372 -0.2680
14626W        W30700   0.724  10.677   3.759 -0.0539 -0.2498 -0.2322
14627W        W30701   2.993   5.999   4.986 -0.0620 -0.1723 -0.2989
14628W        W30702  15.223   7.307  14.466 -0.0558  0.2021 -0.1213
14629W        W30703   6.377   9.677  12.377 -0.1656 -0.0630  0.2318
14630W        W30704   2.126   5.978   4.642 -0.2244  0.0343  0.0056
14631W        W30705   2.703  13.523   5.736 -0.2058 -0.1266  0.2814
14632W        W30706   7.422   4.467  15.809  0.1023  0.2937  0.0431
14633W        W30707  17.704  10.825   5.237  0.1132 -0.2183  0.1050
14634W        W30708   7.917  12.013  16.353 -0.1653 -0.1076  0.0702
14635W        W30709   0.524   2.818  15.014  0.0106  0.1769  0.1284
14636W        W30710   3.515   2.009   1.795  0.0596 -0.2710 -0.0444
14637W        W30711  16.399   5.591  12.141  0.2313  0.6018  0.1250
14638W        W30712  17.671   3.924  12.506  0.1204  0.0081  0.1906
14639W        W30713   9.880   9.524  10.728  0.1004  0.1228 -0.2689
14640W        W30714   8.329   7.453  13.075  0.0519  0.0203  0.1036
14641W        W30715   7.675   4.982   5.570  0.0243 -0.4149 -0.0854
14642W        W30716  13.028  16.779   0.709 -0.0186  0.0171  0.3725
14643W        W30717  16.092   2.654  15.494 -0.1430  0.0863 -0.0339
14644W        W30718   3.707   0.947   0.934  0.0223  0.1260 -0.3353
14645W        W30719   5.603  14.819  10.590 -0.0487  0.2891  0.3070
14646W        W30720   4.098  16.042  14.669 -0.0142  0.1760 -0.0334
14647W        W30721  10.055   3.418  11.008  0.3165  0.1446  0.1662
14648W        W30722   3.987  10.864  14.171  0.0611  0.0554 -0.0920
14649W        W30723  14.321   2.191   4.263  0.1531  0.1431  0.2227
14650W        W30724   4.958  14.463   3.512  0.1796 -0.1581  0.0134
14651W        W30725   0.470   9.025   4.724  0.2566 -0.1872 -0.2444
14652W        W30726  14.274   3.027   4.330 -0.3059  0.0784  0.1921
14653W        W30727  15.261  16.331  14.841  0.0546  0.0416 -0.1955
14654W        W30728   8.061  12.878  15.741  0.1397 -0.0986 -0.0435
14655W        W30729   3.795  11.761  14.650  0.3257 -0.1994 -0.1683
14656W        W30730  12.718   6.823   3.833 -0.3492  0.0052  0.2922
14657W        W30731  13.915  13.236  15.328  0.0238  0.0087 -0.1309
14658W        W30732   6.445   8.401   0.817  0.2503  0.3082 -0.0390
14659W        W30733   2.793  10.764   5.000 -0.1788 -0.0441  0.2123
14660W        W30734  12.562  14.959   6.255 -0.0785  0.4873 -0.0337
14661W        W30735   3.599   0.223  12.198  0.2386 -0.2414  0.1042
14662W        W30736   6.999  16.684  15.930 -0.2213  0.1062  0.1381
14663W        W30737   8.313   8.738  13.181  0.1008 -0.0662  0.2624
14664W        W30738  15.902  16.061  11.817 -0.0578  0.0510  0.2792
14665W        W30739   5.332   3.748   2.086  0.5034  0.0088  0.1827
14666W        W30740   5.039  10.970   3.148  0.0641 -0.0196  0.0178
14667W        W30741   3.164   6.303  14.187 -0.1591  0.2196 -0.3158
14668W        W30742  17.217   2.745  16.760  0.0398 -0.0861 -0.4971
14669W        W30743   1.837   5.051  16.309  0.3194  0.1249  0.0639
14670W        W30744   0.265   2.953   1.062  0.0095 -0.2144  0.1632
14671W        W30745   3.274  13.474  11.820 -0.0178 -0.1207  0.1406
14672W        W30746   1.809   4.200  15.053 -0.0049  0.2746 -0.2838
14673W        W30747  15.508   4.956  15.108 -0.4019  0.0846 -0.1155
14674W        W30748  15.323  17.619   2.681  0.1116 -0.2184  0.0786
14675W        W30749   1.280  11.813   1.679  0.0038  0.0753 -0.0887
14676W        W30750   4.586   2.675   1.759 -0.1371  0.1124  0.1414
14677W        W30751  14.413  17.775   1.077 -0.1556 -0.2011 -0.1506
14678W        W30752   7.418   2.107   1.625 -0.1865  0.2018 -0.0948
14679W        W30753  11.370   5.097  12.115 -0.1373 -0.1532  0.2970
14680W        W30754  13.437   4.406  13.316  0.1086  0.1049 -0.2484
14681W        W30755   6.128  12.960   6.112  0.0710 -0.0010  0.0111
14682W        W30756  17.324   8.817   4.622  0.0090  0.1660  0.1083
14683W        W30757   5.139  10.617   1.227  0.2801  0.3260 -0.0196
14684W        W30758   2.303   0.711  16.087 -0.1634  0.0352  0.0654
14685W        W30759   0.331   4.429   4.948 -0.1027 -0.0981 -0.2225
14686W        W30760  14.981  13.113   4.603  0.1736  0.1915  0.0220
14687W        W30761  10.844   2.578   0.983 -0.1345  0.1102 -0.0522
14688W        W30762   2.451  15.536   3.111  0.2674  0.1123 -0.1378
14689W        W30763   1.795  17.137   1.364 -0.0406 -0.0471  0.1271
14690W        W30764   4.967   3.080   0.975 -0.0165  0.1037 -0.5714
14691W        W30765  12.209   1.129  13.445 -0.1088  0.0710  0.1923
14692W        W30766   4.954   9.327   3.566  0.2716  0.2060  0.0345
14693W        W30767   0.767   1.949   5.863  0.1934  0.0130 -0.2846
14694W        W30768   5.890   0.897  13.702  0.3762 -0.0614  0.4010
14695W        W30769   9.512   2.684   0.880  0.0577  0.1043  0.2551
14696W        W30770   0.196  12.154  14.990 -0.0754  0.1241  0.0806
14697W        W30771   6.817  13.313   2.650 -0.0655 -0.0714 -0.0613
14698W        W30772  15.699  16.811   2.487  0.1914  0.1169  0.0763
14699W        W30773   5.940   2.398   5.072  0.1092 -0.1101  0.0240
14700W        W30774   2.325  10.724  13.247  0.3645  0.2349  0.1273
14701W        W30775   7.037  17.408   3.834  0.1187  0.2112  0.0805
14702W        W30776   4.952   3.139  12.315  0.0121 -0.2440  0.3110
14703W        W30777   2.848  17.160  13.677 -0.0406 -0.1470 -0.0529
14704W        W30778   1.733  17.141  12.254 -0.2033 -0.1127 -0.1216
14705W        W30779   1.150  11.123  16.677 -0.1020  0.3031  0.2807
14706W        W30780  17.040  16.261   0.205 -0.1564 -0.0794 -0.3288
14707W        W30781   7.532   5.791   5.697  0.0206 -0.3282 -0.1987
14708W        W30782   9.132  15.638  15.942  0.1292  0.1912 -0.3550
14709W        W30783  16.775  16.409   0.602  0.0328 -0.1185 -0.0484
14710W        W30784   9.248   3.681  14.531  0.1232  0.2053  0.2227
14711W        W30785   5.854   6.040   1.867  0.5375 -0.1331  0.2183
14712W        W30786   5.816  12.575   2.885 -0.2112 -0.0235  0.0421
14713W        W30787  10.906   6.068   0.202  0.0152  0.0746  0.0916
14714W        W30788  14.368   6.835  12.681 -0.3137 -0.0476 -0.0543
14715W        W30789   0.637  16.479  13.136  0.2048 -0.0143  0.0520
14716W        W30790  10.839  11.524  14.717  0.1908 -0.0345 -0.2407
14717W        W30791  16.393   8.064   3.687 -0.4418 -0.2496  0.2944
14718W        W30792   1.297  11.346   2.402 -0.0992  0.1583 -0.2736
14719W        W30793  11.047   9.992  14.533  0.0929 -0.2347 -0.0081
14720W        W30794   7.240  11.325   1.723 -0.0824  0.0252  0.1728
14721W        W30795   9.914  16.849  13.256  0.0642  0.0443  0.0919
14722W        W30796   2.277  13.816   3.377  0.2728  0.0968 -0.0308
14723W        W30797   9.529   9.623   4.989  0.0682 -0.2006  0.1245
14724W        W30798  11.113   1.637   3.953 -0.1515 -0.3095  0.0315
14725W        W30799   0.206   6.149   4.423  0.0119 -0.1518 -0.0547
14726W        W30800  12.564   9.324   2.237 -0.0566 -0.1592  0.0744
14727W        W30801   4.653   1.278  16.028  0.1080  0.3182  0.1465
14728W        W30802   6.184   0.540   3.009 -0.0018 -0.2010 -0.1305
14729W        W30803   9.126   6.347   4.291  0.0762 -0.0099 -0.1058
14730W        W30804  12.630  17.159  13.510 -0.1104  0.1369 -0.3788
14731W        W30805  16.112  12.187   2.961  0.2246 -0.0538 -0.2453
14732W        W30806   9.187  16.651  14.579 -0.0093  0.2326  0.2877
14733W        W30807   5.800  16.999  13.340 -0.1906  0.0628 -0.0546
14734W        W30808  10.053   6.021  14.157 -0.1336 -0.3777 -0.2399
14735W        W30809   5.996   7.549   3.893 -0.0832 -0.0741 -0.1991
14736W        W30810  17.392   5.227  14.769  0.1013 -0.0758  0.2342
14737W        W30811   8.674   8.747   2.311  0.0536 -0.1472 -0.0821
14738W        W30812  14.161   6.901  13.536 -0.2029  0.0847  0.2012
14739W        W30813  17.014   6.594  12.807  0.0188 -0.2285 -0.4141
14740W        W30814  17.109   2.985   3.966  0.2254 -0.0300 -0.0826
14741W        W30815   5.775  15.817  15.645 -0.0216 -0.0740  0.1776
14742W        W30816  17.524   3.455   4.750 -0.0579 -0.0098 -0.1240
14743W        W30817   4.345  10.249  15.880  0.1086  0.2692  0.0407
14744W        W30818  10.487  10.533  16.258  0.0352  0.0311  0.4965
14745W        W30819   1.877  14.807   6.406 -0.1685 -0.2066  0.1095
14746W        W30820   1.884   1.465   2.939  0.2145  0.2763  0.0316
14747W        W30821   7.966  10.212  14.748 -0.0351  0.2014 -0.1022
14748W        W30822  17.313  16.877  15.405  0.1307 -0.0383  0.0344
14749W        W30823   0.976   8.941   1.286  0.2102  0.0866  0.2699
14750W        W30824   9.644  12.633  14.968  0.0480  0.1264  0.0168
14751W        W30825   1.446  12.324   1.686 -0.2082  0.0192  0.1384
14752W        W30826  16.396  12.342  16.095  0.0579  0.0038 -0.3521
14753W        W30827   9.302  17.365   1.026 -0.1624  0.1102  0.0700
14754W        W30828   1.912   3.695   5.012 -0.0494  0.0754 -0.1054
14755W        W30829  16.232   6.500   0.613  0.1967  0.0436 -0.1689
14756W        W30830   5.665   8.474  14.121  0.0327 -0.2641  0.2184
14757W        W30831  13.516   4.811   4.462 -0.1044 -0.1495  0.2269
14758W        W30832   9.564   0.256   2.158 -0.2196  0.0651 -0.1828
14759W        W30833   6.721   8.856  16.447  0.2512  0.0255  0.2839
14760W        W30834   6.906   1.504  13.373 -0.0243  0.2307 -0.0894
14761W        W30835   7.011   1.094   3.216  0.0609  0.0130  0.0841
14762W        W30836   9.359  12.414  15.362  0.1286 -0.0334  0.4073
14763W        W30837  12.873   8.389  15.083  0.2798 -0.0404 -0.0393
14764W        W30838   5.202  14.540  16.332 -0.0600  0.1427  0.1832
14765W        W30839   1.166  11.516   4.740 -0.0157  0.0126 -0.3252
14766W        W30840   0.882  10.576  15.614  0.0415  0.2146  0.0207
14767W        W30841  15.128  13.849  16.437  0.1974 -0.0053 -0.2789
14768W        W30842  16.132  13.917   2.946  0.0050  0.2383 -0.0847
14769W        W30843  16.930   0.065  15.249 -0.0725  0.0605  0.2596
14770W        W30844   0.918  13.731  14.330  0.1102 -0.0894  0.0863
14771W        W30845   9.853  11.146   2.115 -0.2131 -0.0542  0.2003
14772W        W30846  13.192   8.799   4.850 -0.0549 -0.0593  0.1363
14773W        W30847  16.389  11.278   2.941  0.1277 -0.1891 -0.1624
14774W        W30848  12.160  10.343   3.825 -0.0643 -0.1378 -0.2287
14775W        W30849   1.557   2.552  12.703  0.0519  0.1755 -0.1715
14776W        W30850  14.851  13.058  11.963 -0.1095 -0.0852 -0.2743
14777W        W30851   3.502  16.718   2.268 -0.0577  0.0728  0.0367
14778W        W30852   3.701  14.931   3.988  0.2482 -0.2358  0.1833
14779W        W30853   2.283  16.433   1.896 -0.0452  0.1749 -0.0401
14780W        W30854   9.482   9.473   0.112 -0.1349  0.0160  0.0686
14781W        W30855   4.099  17.288  15.999  0.1341 -0.1127 -0.0065
14782W        W30856  13.737   2.317   5.831 -0.0519  0.0159  0.0167
14783W        W30857  15.394   4.720   2.310 -0.0070  0.1832 -0.0779
14784W        W30858  16.617  11.984  12.386  0.3022  0.2499 -0.0128
14785W        W30859  14.358  14.449  12.192 -0.0530 -0.2196 -0.1850
14786W        W30860   4.418   2.258  12.333 -0.2563  0.3086  0.3176
14787W        W30861  13.288   5.994  15.442 -0.0971 -0.2785 -0.1179
14788W        W30862   0.293  13.130  14.189 -0.2859  0.0142  0.0319
14789W        W30863  12.259  12.445   3.285 -0.2464 -0.0861  0.1203
14790W        W30864   4.550  15.465  15.842 -0.1974  0.0690  0.1386
14791W        W30865  16.541   2.272  16.814  0.2549  0.0160  0.1030
14792W        W30866  14.562  14.870   4.322  0.0808 -0.0382 -0.3527
14793W        W30867   5.040   0.149   0.955  0.0678  0.1013  0.0054
14794W        W30868  14.689   5.037   3.427  0.0326  0.0354 -0.3277
14795W        W30869   5.731   3.874  16.382 -0.1094 -0.0295 -0.0280
14796W        W30870  13.080   3.735   5.578  0.0205  0.0903 -0.3621
14797W        W30871  15.250   0.112   1.145 -0.0064 -0.0728 -0.1805
14798W        W30872  12.429   1.201   4.290  0.0332 -0.0830  0.1301
14799W        W30873   6.570   7.425  13.645  0.0626 -0.1433  0.2989
14800W        W30874  17.469  15.690   2.748 -0.0408  0.0198 -0.5777
14801W        W30875   4.495   9.045   3.530  0.3915 -0.0308  0.3592
14802W        W30876  11.616  17.780  11.505 -0.1627 -0.1389 -0.1932
14803W        W30877   4.902  12.744   3.116 -0.1364 -0.1289 -0.3830
14804W        W30878  13.439   8.286  12.387 -0.0632 -0.1743  0.0175
14805W        W30879   8.000   6.774   3.746 -0.0949  0.4118  0.0344
14806W        W30880   6.930   5.575   1.135  0.0251  0.0603 -0.1518
14807W        W30881   4.189  16.227   2.631  0.1832 -0.0027  0.2509
14808W        W30882   2.468  13.609  16.489 -0.0780  0.0641 -0.1264
14809W        W30883  10.814  11.767  11.992 -0.0272 -0.0682  0.3354
14810W        W30884   0.016  14.864   3.771  0.0638 -0.0240  0.1980
14811W        W30885  12.483  17.446   1.815 -0.3165 -0.3167  0.0611
14812W        W30886  14.607  12.521   3.025  0.2244  0.0756  0.2421
14813W        W30887  16.979   1.469   3.532  0.5861  0.0802  0.2587
14814W        W30888  13.795   1.627  12.868 -0.0339 -0.1861  0.0368
14815W        W30889  12.029  12.131   1.176 -0.0515  0.1513  0.2438
14816W        W30890   3.683   6.936  12.047  0.0482  0.0640  0.4872
14817W        W30891   9.445   2.060  11.613 -0.3012 -0.0236 -0.1578
14818W        W30892   4.928  17.417  15.708 -0.1232  0.0390  0.0110
14819W        W30893   7.209   9.181   4.964 -0.0476  0.1546  0.1427
14820W        W30894   6.393   0.629   5.206  0.2470  0.1388  0.1256
14821W        W30895  15.453   6.842  14.338  0.2590 -0.2821  0.3005
14822W        W30896  11.035  15.127  14.168 -0.0578  0.2016  0.2578
14823W        W30897   4.027  13.170  16.925 -0.3566 -0.1272 -0.0086
14824W        W30898  12.132   7.233  12.303  0.1287  0.2282 -0.0006
14825W        W30899   6.323  16.502  13.527 -0.1293 -0.1630 -0.0914
14826W        W30900   3.156   3.171  14.145  0.2705 -0.1809  0.2121
14827W        W30901   6.754   7.758  14.780 -0.1792 -0.0942  0.1202
14828W        W30902   2.206   5.830   2.698 -0.1100 -0.1989 -0.2316
14829W        W30903   5.038  17.150  14.486  0.0141  0.4122  0.2876
14830W        W30904   1.654   0.986   3.763 -0.0015 -0.2993 -0.2329
14831W        W30905   7.590   3.144  12.632 -0.0110  0.2397 -0.0583
14832W        W30906   9.464  16.058  15.989  0.0145 -0.0327  0.1990
14833W        W30907  14.482   8.967   4.534  0.0475  0.0864  0.1355
14834W        W30908  12.517   8.676   3.009  0.1700  0.1762  0.0227
14835W        W30909   9.544  13.345   4.720 -0.0282  0.2728 -0.1960
14836W        W30910  13.603   5.472   0.847 -0.2264  0.0588  0.1151
14837W        W30911  10.826  10.324   1.412  0.1132 -0.1916  0.2684
14838W        W30912  12.145   9.023   4.340 -0.1234  0.0833 -0.1678
14839W        W30913  14.275   9.988  16.296  0.0787  0.2959  0.1607
14840W        W30914  12.136   2.961  16.547  0.2094 -0.1873 -0.1775
14841W        W30915   9.249  13.068  16.208 -0.0144  0.1510  0.0750
14842W        W30916   0.815  15.972  14.697  0.0561  0.0067  0.2656
14843W        W30917   7.673   5.530  14.977  0.0056 -0.2913  0.3092
14844W        W30918   7.562   5.375   1.654  0.3801 -0.2345  0.3018
14845W        W30919   4.004  13.689  12.373 -0.0390 -0.1090  0.0608
14846W        W30920   3.002   2.356  15.070  0.1173  0.1389 -0.1916
14847W        W30921  13.337   1.427  15.806 -0.0417  0.1879  0.3082
14848W        W30922  11.414   6.005   0.082 -0.4568 -0.3593  0.1028
14849W        W30923   1.847  11.848   3.607 -0.0431  0.1085  0.1742
14850W        W30924  17.171   7.659  14.502 -0.2802  0.2424  0.1078
14851W        W30925   9.192   0.983  13.534  0.3420 -0.0536  0.2237
14852W        W30926   0.547  11.344   0.552 -0.1193  0.0135 -0.0365
14853W        W30927   2.070  11.020   1.422 -0.1080  0.1173  0.0789
14854W        W30928  12.743  17.017  16.492 -0.0382 -0.3442  0.1030
14855W        W30929   5.961  15.301  15.574 -0.1395 -0.1250 -0.2008
14856W        W30930   2.846  14.200  14.327  0.3633  0.1145  0.0436
14857W        W30931  12.338  14.262  15.863 -0.0620 -0.1062 -0.1299
14858W        W30932  11.923   3.190   3.606 -0.2371  0.0809  0.1600
14859W        W30933  11.506  11.076   1.539 -0.1292  0.0293  0.1327
14860W        W30934  14.484   9.435  12.424  0.1118  0.0669  0.2020
14861W        W30935   0.634   2.830   4.242  0.0392 -0.1409 -0.1495
14862W        W30936  17.316  14.571  16.781  0.2280  0.1610 -0.4641
14863W        W30937   6.471  15.710   3.266  0.1009  0.1044  0.1519
14864W        W30938   9.339  13.529   2.767 -0.2598  0.2765 -0.1062
14865W        W30939   7.293  12.392  13.855 -0.2518 -0.0076 -0.0322
14866W        W30940  12.597   5.415  12.137  0.0154  0.0360  0.1279
14867W        W30941  17.399  12.703   1.836 -0.2138 -0.0544  0.0765
14868W        W30942   4.851  12.429   0.925  0.0323  0.3448 -0.0268
14869W        W30943   0.067   3.374   5.165 -0.1794  0.0219 -0.1046
14870W        W30944  16.423  12.075   1.381 -0.0866 -0.1168  0.2783
14871W        W30945   4.424   4.777   6.016  0.2070  0.2021 -0.0936
14872W        W30946   1.739  11.141  14.262 -0.1242 -0.0198  0.2484
14873W        W30947   6.543  15.297   1.838  0.2336  0.0029  0.2105
14874W        W30948   1.024  10.984   3.320 -0.0654 -0.1399 -0.0895
14875W        W30949   1.458  15.680  12.496  0.0269  0.1101  0.0236
14876W        W30950  10.251  12.071  15.241 -0.0570  0.0097 -0.2457
14877W        W30951   0.273   0.657  13.042 -0.2748  0.0951 -0.0386
14878W        W30952   2.210  12.142   4.560  0.2892  0.1331 -0.1371
14879W        W30953  15.157   0.936   0.243 -0.0346  0.1532  0.0036
14880W        W30954   0.099  10.531  12.247  0.0789  0.0770  0.0473
14881W        W30955   3.336  15.026  15.882 -0.0010 -0.1570  0.1524
14882W        W30956  16.300   3.107   0.158  0.1439  0.0915  0.3367
14883W        W30957  13.616   8.300  14.796  0.0077  0.2372 -0.2135
14884W        W30958   9.871  14.124  12.791 -0.3123  0.0622  0.0051
14885W        W30959   4.705   0.051   5.623  0.1688 -0.0466  0.0927
14886W        W30960   2.809   5.441   4.120  0.2579  0.2938  0.0924
14887W        W30961  14.274   5.962   4.229 -0.1912  0.2204  0.2696
14888W        W30962  12.022   7.956  14.236  0.1069 -0.0110 -0.3844
14889W        W30963   4.210  16.282  16.067  0.0462 -0.3219 -0.2148
14890W        W30964   6.145  17.600   4.032 -0.0158 -0.2446  0.1076
14891W        W30965  11.751   5.936   1.803  0.0097  0.1317 -0.2030
14892W        W30966   4.493   0.401  16.946 -0.1469 -0.1001  0.0077
14893W        W30967  10.741  14.489   0.588 -0.0119 -0.3214  0.1605
14894W        W30968  17.350  16.217  11.516 -0.1485 -0.5176 -0.0195
14895W        W30969  16.177   8.534   1.382  0.1252 -0.1336 -0.2655
14896W        W30970   8.074   0.994   0.023  0.0827 -0.0312 -0.0325
14897W        W30971   6.258  14.554   2.945  0.1906  0.0923 -0.0409
14898W        W30972   4.700   5.471  12.332 -0.3959  0.0538  0.2513
14899W        W30973  13.346   2.298  14.040  0.1156 -0.2245 -0.0581
14900W        W30974   8.306  12.724   3.557  0.2726 -0.4639  0.0182
14901W        W30975   5.282  17.583   0.086 -0.0054 -0.0152 -0.1193
14902W        W30976  13.987  16.503  12.614  0.0738 -0.0877  0.5231
14903W        W30977   0.198   3.557   6.505  0.1341  0.0323  0.0238
14904W        W30978   6.781   2.997  14.616  0.2928  0.1795  0.1833
14905W        W30979  10.426  14.756   2.898 -0.2295  0.2461  0.2349
14906W        W30980  14.481  13.712   0.990 -0.0541 -0.0817  0.0457
14907W        W30981   5.165  15.091  12.741 -0.4757 -0.1048  0.0503
14908W        W30982  11.403   7.260  13.162  0.2633  0.3288  0.0136
14909W        W30983   3.743  11.855  11.998 -0.0672  0.1376  0.1951
14910W        W30984   3.580  15.559  13.671  0.1382  0.0886 -0.0571
14911W        W30985  16.773   4.886   6.350 -0.0899  0.0968  0.2204
14912W        W30986  10.872   0.509  15.354 -0.1181 -0.0518 -0.3738
14913W        W30987  12.139  15.123  11.884  0.1274  0.0038  0.0714
14914W        W30988   8.359  14.800   1.692 -0.0581  0.0694 -0.0701
14915W        W30989  10.313  16.922   1.422  0.0136 -0.0302 -0.0186
14916W        W30990  17.764   1.339   2.551 -0.2819 -0.1135 -0.0406
14917W        W30991  14.665  12.584   5.845  0.0528 -0.0891  0.1760
14918W        W30992  14.064   5.660  14.838  0.2124 -0.5581  0.2515
14919W        W30993   9.419   4.759   0.430 -0.0698 -0.0047  0.1787
14920W        W30994  10.598  10.168   3.804  0.3917 -0.1888  0.0498
14921W        W30995  13.947  10.847  16.142  0.0772  0.5585 -0.2960
14922W        W30996  11.169  14.227   0.696 -0.1751  0.0969  0.1317
14923W        W30997   0.139   4.466   1.365  0.0770 -0.0490 -0.1835
14924W        W30998  13.454  14.521  13.624  0.1934  0.2916  0.1083
14925W        W30999  13.278  11.588   4.704  0.0040  0.2935  0.0798
14926W        W31000  10.209  11.871  16.662 -0.0984 -0.0981  0.0021
14927W        W31001   1.724   3.385   1.060  0.0567 -0.0271  0.1467
14928W        W31002  14.039   5.740   1.003  0.2873 -0.2777 -0.0096
14929W        W31003   6.552  14.719   3.464 -0.0317 -0.1013 -0.0917
14930W        W31004   9.856  16.572   5.029 -0.1068  0.1685 -0.1578
14931W        W31005  10.712  17.707   0.915 -0.1650  0.0059  0.3462
14932W        W31006   3.651   1.023   2.818  0.0986  0.1199  0.0513
14933W        W31007   8.580  12.967  13.442  0.4242 -0.0705  0.0242
14934W        W31008   2.330  10.721  11.920  0.1263  0.1395  0.0732
14935W        W31009   1.951   1.413  13.658 -0.0414  0.0904  0.1703
14936W        W31010   1.799  17.099   2.640 -0.0074  0.2344 -0.0616
14937W        W31011  14.259  12.057  14.711  0.1629  0.0012  0.0609
14938W        W31012  14.441   8.220  15.138 -0.2099  0.1092  0.0016
14939W        W31013   4.633  17.019   4.622  0.0523 -0.1623  0.2337
14940W        W31014   2.650   3.473   1.486  0.1746 -0.0780 -0.1515
14941W        W31015  14.072   2.185  16.666 -0.2824  0.1941 -0.0687
14942W        W31016  14.198   2.493   1.628 -0.3093  0.0260 -0.3685
14943W        W31017  11.047  12.686   5.745  0.0041  0.0047 -0.3020
14944W        W31018  10.522  11.522  16.753 -0.2132 -0.0610 -0.0655
14945W        W31019  11.477   3.590   3.724  0.0697  0.0547  0.1455
14946W        W31020  17.690  15.177  16.192 -0.2968 -0.0384  0.2238
14947W        W31021  17.588  16.033   3.082  0.2537  0.1451 -0.1189
14948W        W31022  15.995   9.641  16.208 -0.2004 -0.1758  0.1185
14949W        W31023   6.448   6.693  16.147 -0.2083  0.2920  0.1375
14950W        W31024   1.702   5.700  15.229  0.0165 -0.2267  0.0500
14951W        W31025   9.384   2.101  12.640  0.0594  0.0170 -0.1786
14952W        W31026   7.494   3.126   3.738  0.0094  0.3694 -0.1763
14953W        W31027  13.628   4.424   0.366 -0.1165  0.0701  0.0623
14954W        W31028  12.065   1.500  12.683 -0.3004  0.3225  0.0849
14955W        W31029  14.317   2.529  11.757  0.0293 -0.2055  0.1494
14956W        W31030   0.752   3.979   0.342  0.2797  0.1113 -0.2472
14957W        W31031   2.100   1.058   2.004  0.2800 -0.0009 -0.0476
14958W        W31032   2.349   3.129  15.011  0.0710  0.4137 -0.2076
14959W        W31033  14.362   0.787   1.329  0.2637 -0.0183 -0.0584
14960W        W31034   3.033   6.943   2.156  0.0215  0.1572 -0.1288
14961W        W31035  13.487  14.747   3.624  0.1783  0.0487 -0.0565
14962W        W31036  10.539  16.907   2.204  0.0856  0.1801  0.0184
14963W        W31037   3.095  12.491  12.305 -0.1090 -0.0725 -0.0356
14964W        W31038  12.228   9.145  12.773  0.1461  0.2819 -0.0057
14965W        W31039  11.605  14.878   4.391 -0.1336 -0.2599 -0.1609
14966W        W31040   6.357   2.719   0.900  0.1785  0.2104 -0.2188
14967W        W31041  15.632   3.313  14.342  0.0214 -0.3292 -0.1271
14968W        W31042  15.921   6.887  14.032 -0.1703  0.0576 -0.1180
14969W        W31043  11.668  16.608   5.298 -0.0606  0.2751  0.0595
14970W        W31044  15.047   9.744  15.128  0.3660  0.2199 -0.1394
14971W        W31045  15.254   5.626  12.823 -0.2643  0.2024 -0.0755
14972W        W31046   6.452  13.766  12.944 -0.3974 -0.1199  0.1843
14973W        W31047  17.381  13.767   1.717  0.3985 -0.0125 -0.0686
14974W        W31048  12.640  12.217   3.063  0.3408 -0.2353  0.0003
14975W        W31049  16.251  12.870  13.158 -0.0237  0.2822  0.0587
14976W        W31050   4.615  11.285   4.570  0.0139  0.2202 -0.3318
14977W        W31051  12.668   7.733   4.115  0.1521  0.0768 -0.4827
14978W        W31052  13.031  11.414  14.088 -0.3094 -0.1043 -0.1247
14979W        W31053  12.051  11.180   3.449 -0.3501  0.1631 -0.0757
14980W        W31054  10.264  13.681   3.053 -0.0590  0.0157  0.0265
14981W        W31055  17.210   5.150  11.706 -0.0893 -0.2307 -0.2139
14982W        W31056  14.565   8.278   5.514  0.1574 -0.1019 -0.0477
14983W        W31057   1.708   9.765   2.557 -0.2220  0.2335  0.0301
14984W        W31058   9.016  12.618  15.069  0.0580  0.1168 -0.4038
14985W        W31059   6.402   7.366  16.467  0.2501 -0.2911  0.1478
14986W        W31060   1.692  14.972  15.294  0.0457  0.1148  0.4416
14987W        W31061  12.457   4.917  15.211  0.2042  0.2826  0.1036
14988W        W31062   2.584   4.650   3.707 -0.0990  0.0107 -0.3412
14989W        W31063  13.067  10.039   1.508  0.3427 -0.1151 -0.0818
14990W        W31064   0.483  15.453  16.685  0.0975  0.3216  0.2348
14991W        W31065  13.402  11.841   6.419  0.3984  0.2402  0.1590
14992W        W31066   4.349  14.490   3.787 -0.2743  0.1499 -0.1535
14993W        W31067   3.477   3.131   3.066  0.2462  0.0969  0.0301
14994W        W31068   6.083   4.951  15.545 -0.0051  0.0255  0.1074
14995W        W31069   2.494  17.304   1.863  0.2292 -0.2488  0.2212
14996W        W31070  12.565   3.709  16.184 -0.0053 -0.2801 -0.0876
14997W        W31071  14.517  16.470   1.936  0.0440 -0.0267  0.3453
14998W        W31072  17.027  12.925  16.511  0.1993 -0.0143 -0.0066
14999W        W31073  17.847   0.368   5.323  0.3071  0.1424 -0.2102
15000W        W31074   8.142   3.729  16.900  0.0115  0.0210  0.2193
15001W        W31075   7.920   3.750   4.984 -0.1427 -0.0032  0.0389
15002W        W31076   9.688  13.323   0.781 -0.0346 -0.0789  0.1998
15003W        W31077   1.985  13.466  11.765  0.2456  0.1146  0.3491
15004W        W31078   6.730  16.135   0.262  0.2118  0.1125 -0.0277
15005W        W31079  17.433   7.323   2.155  0.0262 -0.2523  0.1022
15006W        W31080  15.306   8.651  12.482  0.1553  0.2271 -0.2562
15007W        W31081  12.473   1.176   1.814  0.1339  0.1971  0.0276
15008W        W31082   8.143  11.760  13.563  0.0585 -0.1011  0.0031
15009W        W31083  13.277   9.215  13.855 -0.0660  0.1098 -0.2882
15010W        W31084   4.386  14.734  15.869  0.0785  0.1705  0.0467
15011W        W31085  13.244   3.741   1.238 -0.1263 -0.0803 -0.0204
15012W        W31086   8.305   8.675   4.047  0.4030 -0.1160 -0.1284
15013W        W31087  12.202  14.090  11.709 -0.0485  0.0162 -0.1019
15014W        W31088  14.594  14.076  16.026  0.0736  0.0133 -0.3053
15015W        W31089   1.689   4.621   3.178  0.1459 -0.3540 -0.1837
15016W        W31090  11.298  15.222   0.727 -0.1853 -0.0498 -0.1682
15017W        W31091  12.139   3.309   2.191  0.0062 -0.0763 -0.4143
15018W        W31092  12.918  16.078  15.011  0.2668  0.3657  0.2089
15019W        W31093   5.494   7.429   1.002 -0.0361  0.2007  0.0350
15020W        W31094   4.653   9.950   2.129 -0.1165  0.0516 -0.1056
15021W        W31095   4.799  12.417  14.882  0.1433 -0.2550 -0.1400
15022W        W31096   4.377  17.039   1.651  0.0406  0.3126 -0.0772
15023W        W31097   2.535  16.093   3.550  0.0515 -0.0679  0.1184
15024W        W31098  14.859  13.163  15.441  0.0396  0.2586 -0.1691
15025W        W31099   3.027   3.655   1.233 -0.0801  0.1561  0.0073
15026W        W31100   5.046  16.826  12.825  0.1389  0.0133 -0.4292
15027W        W31101   4.063   8.867  15.116  0.2829  0.0251  0.1022
15028W        W31102  17.665  14.710  14.941  0.0989  0.1664  0.0999
15029W        W31103  15.211   7.411  13.446 -0.0856 -0.1847 -0.1305
15030W        W31104   0.747  16.505   0.315 -0.1219  0.1611 -0.1235
15031W        W31105  16.449   5.381  15.172 -0.0300  0.0052  0.1791
15032W        W31106  17.802   5.537  14.682  0.2125 -0.1048 -0.0812
15033W        W31107   5.913   7.642  12.658 -0.1588  0.1308  0.0627
15034W        W31108   3.117   8.064   3.182 -0.2702 -0.0790 -0.0145
15035W        W31109   6.683   6.340   6.142 -0.0699  0.0921 -0.2250
15036W        W31110   6.625   1.449   0.914 -0.2351 -0.1171  0.2598
15037W        W31111   2.768  17.189   4.535  0.2889 -0.1921 -0.0989
15038W        W31112  16.361  16.229   3.997  0.0666 -0.2188 -0.1058
15039W        W31113  10.619  10.219   4.356 -0.0088 -0.0235  0.2387
15040W        W31114  16.914  12.793   1.848  0.1146  0.0002 -0.1757
15041W        W31115   9.841  16.647  11.979  0.1213  0.1253 -0.1487
15042W        W31116  10.845   3.348  12.983 -0.0953  0.0996  0.2344
15043W        W31117  10.249   1.457  13.195 -0.4137 -0.0289 -0.0700
15044W        W31118   3.909  17.004   5.674  0.0069 -0.0394  0.3529
15045W        W31119   6.041  11.174  14.237 -0.0692  0.1592 -0.3302
15046W        W31120  12.791  14.895   3.679 -0.1903  0.1810  0.1222
15047W        W31121   4.083  14.869   3.056  0.2435  0.0707  0.1657
15048W        W31122   4.763  15.926  12.641  0.0861 -0.0066  0.5314
15049W        W31123   5.537   2.591  12.684  0.1427  0.1133  0.1070
15050W        W31124   0.936  11.306   3.765  0.0147  0.0526 -0.3271
15051W        W31125  13.439   8.724  12.222 -0.3063 -0.1760  0.5638
15052W        W31126  10.005   9.819  14.950 -0.2875 -0.0077  0.1153
15053W        W31127   0.521   1.458  12.750 -0.0805  0.0428  0.0783
15054W        W31128   2.492  14.344   3.808 -0.3391  0.0529  0.0313
15055W        W31129  16.789  12.277  14.636  0.0014 -0.0219  0.0607
15056W        W31130   2.071   7.633   4.587  0.0488 -0.1167 -0.2436
15057W        W31131  13.424   5.310   5.951 -0.3071 -0.0377  0.3907
15058W        W31132  13.415   0.304   2.508 -0.1457  0.1129  0.1519
15059W        W31133   2.934  10.507   0.041  0.2499  0.1504  0.1247
15060W        W31134  13.720   1.234   3.613  0.1000  0.0127  0.0659
15061W        W31135   6.578   1.185   3.632  0.1483  0.0528 -0.0991
15062W        W31136   5.642   8.850   2.575  0.1813 -0.0712  0.0548
15063W        W31137   4.350   8.220  15.935  0.0077  0.1401 -0.0766
15064W        W31138  17.835   2.517  12.003  0.1770  0.0760 -0.0355
15065W        W31139   2.459  16.473   1.372 -0.0851 -0.1024 -0.1568
15066W        W31140   7.361  11.591   4.731 -0.1112 -0.3597  0.0949
15067W        W31141   3.563   3.570   5.075  0.0615 -0.2958 -0.0523
15068W        W31142  11.203  15.245   2.943  0.1311 -0.2560  0.2868
15069W        W31143  15.898   4.314   0.633  0.0138 -0.2374  0.0611
15070W        W31144  10.769  14.627  12.084 -0.1640  0.1803  0.0990
15071W        W31145   7.281  11.482  15.266  0.0750 -0.1840  0.0628
15072W        W31146  12.053  16.439  16.349 -0.0042  0.3274 -0.0310
15073W        W31147   6.830   1.853   5.385  0.2012 -0.0349 -0.0985
15074W        W31148  15.886  10.747   1.627 -0.0268  0.0940  0.1290
15075W        W31149  17.782   5.610  12.832 -0.1452  0.0819  0.0349
15076W        W31150  17.582   7.686   5.397  0.2459  0.0784  0.2524
15077W        W31151   5.088  12.035  11.739  0.0973  0.0058  0.1487
15078W        W31152   0.962   9.114   0.827 -0.2713 -0.1414  0.0657
15079W        W31153  12.554   0.991   6.107 -0.1138  0.0425  0.1964
15080W        W31154   3.625  13.333   0.336 -0.0377  0.0679 -0.0445
15081W        W31155   6.570   8.712  10.582  0.1670  0.0507  0.0235
15082W        W31156  11.159  10.017   1.794  0.3360 -0.1087  0.3160
15083W        W31157  10.440  14.126   1.579  0.0621  0.1220  0.0757
15084W        W31158   6.041   2.060   2.044  0.3493  0.1621 -0.2345
15085W        W31159  14.939   8.849   0.971 -0.2706 -0.1899 -0.0605
15086W        W31160   2.901   9.949  16.372 -0.2373  0.0206  0.0077
15087W        W31161  13.589  16.534   5.492 -0.0236  0.2506  0.2198
15088W        W31162  12.718   6.493  16.076 -0.2019 -0.1102 -0.4910
15089W        W31163  10.270   0.574   0.148 -0.1552 -0.0321 -0.2041
15090W        W31164   3.644  15.166  13.993  0.4915  0.1725  0.1993
15091W        W31165  14.976   3.568  15.574  0.1267 -0.2318  0.0314
15092W        W31166  15.652   6.177   0.488 -0.0516  0.0595 -0.0234
15093W        W31167   4.329   2.391   3.600  0.0943 -0.1327  0.0748
15094W        W31168  10.284   2.046   4.699  0.2213  0.0475 -0.0542
15095W        W31169   5.918  11.640  16.837 -0.0331  0.0162 -0.1761
15096W        W31170   1.361  12.649   4.065 -0.0811  0.1515 -0.2812
15097W        W31171  17.170   4.703   2.237 -0.0477 -0.3180 -0.1730
15098W        W31172   9.241   5.046  12.987 -0.1872  0.1178  0.1662
15099W        W31173   8.732   7.239  12.848  0.0478 -0.0062  0.1807
15100W        W31174  11.483   9.895  14.752 -0.2845 -0.2087  0.1166
15101W        W31175  16.952   8.249  15.222  0.1600 -0.2786 -0.2240
15102W        W31176   0.994   8.363   2.863 -0.1991 -0.2230  0.0983
15103W        W31177  16.957  16.542   4.617 -0.2957 -0.0186  0.2369
15104W        W31178  10.941   7.071  13.830 -0.1345 -0.0005  0.0864
15105W        W31179  13.541  13.548  13.747  0.1384  0.0326 -0.0910
15106W        W31180  10.747  11.333   2.280 -0.2771  0.2438  0.0306
15107W        W31181  16.118   1.681   2.947 -0.1473 -0.0441  0.0599
15108W        W31182   1.919   4.751  12.451  0.1074 -0.3542 -0.0613
15109W        W31183  16.075   3.154   4.401 -0.2451  0.0291 -0.1237
15110W        W31184   0.085   8.969   0.416  0.3300 -0.0434 -0.0772
15111W        W31185   3.628   2.947  15.730 -0.3483  0.0847  0.1526
15112W        W31186   5.407   8.045  13.467 -0.1073 -0.2762  0.1927
15113W        W31187   9.180   8.072   0.055 -0.2703  0.1613 -0.0940
15114W        W31188   8.182   3.279   4.803 -0.0519 -0.3946  0.1492
15115W        W31189  15.087   9.002  14.268 -0.0918  0.2666 -0.0641
15116W        W31190  11.013   5.906   5.932  0.1745 -0.0953  0.1282
15117W        W31191  14.866   7.036  13.478  0.1400  0.0486 -0.2643
15118W        W31192  10.132   1.153   3.827 -0.3277 -0.0841 -0.1591
15119W        W31193  10.476  16.668  12.531  0.0649  0.3104 -0.2095
15120W        W31194  10.688  15.754  15.477 -0.0577 -0.0803  0.0727
15121W        W31195  11.599   5.437  14.064  0.0576  0.0287  0.0309
15122W        W31196  14.849  10.862  16.661 -0.0392 -0.0109 -0.0225
15123W        W31197  17.375  13.994   2.182 -0.0443 -0.3056  0.1332
15124W        W31198  16.998  17.339   4.760 -0.1835 -0.1481  0.2209
15125W        W31199   7.723  14.240  14.332  0.0731 -0.0062 -0.0162
15126W        W31200   4.570  10.504  13.447 -0.2421  0.2193 -0.0119
15127W        W31201   7.677   7.836  14.879  0.1018  0.0980 -0.0122
15128W        W31202  17.631  13.711   2.980 -0.1744 -0.0066 -0.1284
15129W        W31203   0.023  10.843   4.264  0.3477 -0.0904  0.1904
15130W        W31204  16.936  15.338  13.698 -0.0597 -0.1686  0.0373
15131W        W31205   4.638   1.738  11.766 -0.3946  0.1683 -0.0705
15132W        W31206   5.230   2.673   3.536  0.0643 -0.0528 -0.0106
15133W        W31207   2.156   3.146   1.024 -0.0351 -0.3332  0.1453
15134W        W31208   8.124   8.576   2.223 -0.1803 -0.1131 -0.2216
15135W        W31209   3.503   8.994   2.725 -0.1486  0.1277  0.1770
15136W        W31210  13.352  11.718  12.515  0.2213  0.0455 -0.0604
15137W        W31211   7.567  16.643   4.835 -0.1118  0.2929 -0.1551
15138W        W31212   4.430  10.079   3.285  0.0817 -0.1738  0.2158
15139W        W31213   0.339   6.163   0.785 -0.2700  0.0617 -0.2148
15140W        W31214   3.960   2.412   4.312 -0.1880  0.0792  0.0032
15141W        W31215  17.283  16.447   0.773  0.0185  0.0112 -0.0169
15142W        W31216   6.227  14.040   0.180 -0.1686  0.0408 -0.2445
15143W        W31217  14.014   5.124  11.546  0.2204 -0.1750  0.0894
15144W        W31218   6.329   1.414  13.541  0.2100  0.3828  0.1213
15145W        W31219  14.332   0.898   2.614 -0.3420  0.3753 -0.0752
15146W        W31220  10.864   5.251  13.250  0.1153  0.0883  0.1793
15147W        W31221   9.253   3.835  12.893  0.1841 -0.0226 -0.1972
15148W        W31222  15.903   1.340   5.832  0.0718  0.0362  0.0295
15149W        W31223  13.443   3.544   3.660 -0.0087 -0.0339 -0.2484
15150W        W31224   3.812   4.152  15.694  0.0260 -0.1413  0.2012
15151W        W31225   8.004   7.312   3.547 -0.0434  0.1683  0.0122
15152W        W31226  11.455   6.477  14.515  0.2929  0.1677 -0.1015
15153W        W31227  16.385   5.169   0.988 -0.2703 -0.3257 -0.1188
15154W        W31228  13.138   3.054  14.085  0.2199 -0.1250 -0.0037
15155W        W31229  11.672  14.792  12.380  0.3763 -0.2136 -0.0332
15156W        W31230  12.937   2.572   2.668  0.2035  0.0154  0.2803
15157W        W31231   9.958   1.894  11.881  0.0692  0.2010  0.0600
15158W        W31232   2.804  13.658   5.132 -0.2502 -0.1376 -0.1217
15159W        W31233   9.879  12.912   1.125 -0.1774 -0.0995  0.0328
15160W        W31234  14.035  16.845  15.272 -0.1577  0.0358  0.2174
15161W        W31235   3.723   2.547  13.991  0.1003  0.0652  0.1540
15162W        W31236   0.590   0.258  13.300  0.0392 -0.0345 -0.0706
15163W        W31237  16.762   5.616  16.945  0.0275 -0.0423  0.0348
15164W        W31238  11.489  15.892  12.594 -0.3059  0.2692 -0.0578
15165W        W31239   1.968   3.188  12.368  0.0315  0.1189  0.2056
15166W        W31240  11.924  16.342   0.292  0.2898  0.0549 -0.0260
15167W        W31241  17.064   0.120  13.541  0.1784  0.1275  0.0762
15168W        W31242   3.927   4.530   0.640  0.0125 -0.2926  0.0998
15169W        W31243   2.403  15.825   4.555  0.1222 -0.0884 -0.2241
15170W        W31244   2.665   0.890  13.359 -0.1949 -0.0949 -0.1023
15171W        W31245  10.333  16.843  11.584 -0.0894  0.2421  0.2501
15172W        W31246   5.239   6.950  13.039 -0.0330  0.3191 -0.1473
15173W        W31247  14.135  14.847   1.120 -0.1512  0.1235 -0.0023
15174W        W31248  14.247   5.567  13.032  0.2414 -0.1262 -0.3078
15175W        W31249   3.814  16.439   3.721 -0.0887 -0.0584 -0.2646
15176W        W31250  10.961  11.277   4.954 -0.0846 -0.1444  0.4644
15177W        W31251  15.585   8.216  15.264  0.2468  0.0085 -0.0036
15178W        W31252   5.822   1.082  15.585 -0.0429  0.2685  0.0971
15179W        W31253   6.815  16.620   0.935  0.1220  0.0808 -0.1437
15180W        W31254   3.926  13.451   2.876  0.0224  0.0106  0.0038
15181W        W31255   0.794  17.698  12.340  0.0369 -0.0538  0.1040
15182W        W31256   7.148  10.371  16.059  0.0626  0.1008  0.2648
15183W        W31257   6.247  16.876  15.721  0.0960  0.1586  0.0968
15184W        W31258   2.677  16.470  13.297  0.2108  0.0076 -0.2042
15185W        W31259   7.429  16.185   3.626 -0.0769 -0.1225 -0.3984
15186W        W31260   3.102   5.488   3.552  0.2042  0.0886  0.0032
15187W        W31261   5.908  14.933  12.644  0.0639 -0.2497 -0.1407
15188W        W31262  15.548  16.158   4.750  0.0850 -0.1451  0.3985
15189W        W31263   7.988   5.070   6.423 -0.0044 -0.0069 -0.0844
15190W        W31264   0.669  17.490   5.455 -0.1611 -0.1349  0.2653
15191W        W31265  11.403  14.157   3.667 -0.0220 -0.3397 -0.0434
15192W        W31266  10.982  11.217  13.317 -0.2326  0.0624 -0.0054
15193W        W31267  11.737  17.165  14.089 -0.1117 -0.0517  0.2150
15194W        W31268  14.850   2.489   4.423  0.2856  0.0070  0.0564
15195W        W31269   3.528   8.852  13.504  0.1097  0.2152  0.1312
15196W        W31270   6.129   1.481   3.538 -0.0202  0.0213 -0.2194
15197W        W31271   9.219   3.252  14.254 -0.2520 -0.2824 -0.0287
15198W        W31272   7.420  11.249   5.945 -0.0279  0.0701 -0.0083
15199W        W31273   6.581  10.159   0.747  0.0480  0.1781  0.2415
15200W        W31274   6.976  12.339  11.880  0.2219  0.3137 -0.2548
15201W        W31275  16.116   0.721  16.113 -0.0253  0.1881  0.3335
15202W        W31276   8.465   0.090  11.097  0.2110  0.0397  0.0603
15203W        W31277   4.744   7.058   3.318  0.1778  0.0164 -0.0926
15204W        W31278  13.572   8.754  11.655  0.0800  0.2236  0.1505
15205W        W31279  15.974  13.571  16.214  0.1451 -0.1065  0.1683
15206W        W31280  16.688  16.861  12.197  0.0805 -0.0508  0.0809
15207W        W31281   2.487   0.472   1.103  0.3448 -0.0659  0.0052
15208W        W31282   2.207  16.111   5.054 -0.5281  0.0593  0.1184
15209W        W31283  17.404   3.646  16.046  0.2497 -0.0256  0.1914
15210W        W31284   5.684   8.561  12.339 -0.1369  0.1214  0.1511
15211W        W31285   1.532  14.064  12.901  0.1141  0.0099 -0.1195
15212W        W31286   8.212  10.065   4.944  0.0246  0.0193 -0.0541
15213W        W31287   9.252   0.085  13.759 -0.2821 -0.4020 -0.0896
15214W        W31288   2.616  15.592  15.514 -0.1440 -0.0713  0.0552
15215W        W31289   8.117   5.973  14.773 -0.0290 -0.3464  0.2010
15216W        W31290  10.243  13.075  15.489  0.1315  0.0668 -0.2797
15217W        W31291  16.264   3.780  12.220  0.0606  0.1963 -0.1984
15218W        W31292   3.945   5.059   2.642 -0.0345  0.0270  0.0544
15219W        W31293  15.955  11.807   5.497 -0.2075 -0.1809 -0.2461
15220W        W31294   9.488   1.242   2.515 -0.3000  0.0949 -0.1139
15221W        W31295   8.961  14.949  14.740  0.0231  0.3636  0.0777
15222W        W31296   1.030  13.645   1.344  0.1503 -0.1007  0.2472
15223W        W31297  15.759  10.564  15.308  0.4088 -0.1396 -0.0695
15224W        W31298   2.190  15.171   2.826 -0.1102 -0.1511  0.1299
15225W        W31299   2.435  12.779   1.305 -0.1006  0.0233 -0.2791
15226W        W31300   6.931   3.720   2.470  0.0897 -0.0375 -0.0976
15227W        W31301  12.985  12.042   0.955 -0.2529 -0.0402  0.2262
15228W        W31302   8.852   7.927  16.680 -0.0249  0.0066  0.1773
15229W        W31303  12.242   1.478  11.757  0.2135 -0.0353 -0.0943
15230W        W31304   1.746  17.239  16.300  0.0474 -0.0535  0.1246
15231W        W31305   5.152   8.216  16.454 -0.0287  0.0421  0.0500
15232W        W31306   7.265  14.387  15.128 -0.0246 -0.3137  0.0778
15233W        W31307  16.104   7.595   1.057 -0.3400  0.2705  0.0975
15234W        W31308   6.941   4.478  16.034  0.2307 -0.0308  0.3508
15235W        W31309   3.916   7.605  12.628 -0.1027 -0.2220 -0.0070
15236W        W31310   4.949   6.848   1.325  0.2148 -0.0923 -0.1670
15237W        W31311   9.652  13.117   5.191  0.3971 -0.1834 -0.1430
15238W        W31312   8.547   4.652  12.884  0.3430  0.0220  0.0268
15239W        W31313  17.744   2.788  13.129 -0.1366  0.1809 -0.1118
15240W        W31314   7.440   2.194  15.892 -0.1254  0.0753 -0.1202
15241W        W31315  11.298  11.086   0.647 -0.2739 -0.3132  0.2360
15242W        W31316   1.188   0.966  15.716  0.2854  0.1449 -0.2579
15243W        W31317  15.110   4.965  14.755 -0.1455  0.0851 -0.1560
15244W        W31318   3.359   5.307  12.300 -0.3115 -0.1530  0.1792
15245W        W31319  16.498   2.561   3.029 -0.3791  0.0318 -0.1564
15246W        W31320  15.080   8.249   5.406 -0.2100  0.0435  0.2928
15247W        W31321   0.578   8.170  12.148 -0.1741 -0.3753 -0.0478
15248W        W31322  12.259   3.993  11.603  0.0964  0.3810 -0.3014
15249W        W31323   8.313   7.455   5.498  0.0401  0.0608 -0.1586
15250W        W31324  12.785   3.630   4.035 -0.0487  0.1015 -0.0427
15251W        W31325   8.943   7.247  16.416 -0.3518 -0.2240  0.4754
15252W        W31326  10.085  14.093   1.188  0.0540  0.0834  0.2558
15253W        W31327  17.183   4.301  14.576 -0.0476 -0.0030 -0.1180
15254W        W31328  10.174   3.030   3.937 -0.0546 -0.0453 -0.1713
15255W        W31329   9.305   0.591   6.019 -0.2928 -0.4164  0.1243
15256W        W31330  16.677   1.571   3.125 -0.0785  0.2001 -0.2868
15257W        W31331  14.079   2.240   2.062  0.1346 -0.1985 -0.1195
15258W        W31332   7.875   9.262  14.470 -0.0173 -0.0444 -0.0863
15259W        W31333   2.584   5.034  14.614  0.0183  0.1927  0.0711
15260W        W31334  11.511  15.531   1.867  0.5019  0.2222  0.0422
15261W        W31335   3.250   8.759   3.893  0.0164 -0.0783 -0.1454
15262W        W31336  13.881  11.120  14.428 -0.2478  0.1016  0.1425
15263W        W31337  15.161  13.966  15.413 -0.1663 -0.1848 -0.1108
15264W        W31338  15.096   3.831   2.634  0.0286 -0.2604  0.0983
15265W        W31339   2.077  14.880  12.185 -0.1278 -0.2213  0.3992
15266W        W31340   2.715  11.942   3.284 -0.0770 -0.0413  0.0549
15267W        W31341  15.984  11.970   4.279  0.0114 -0.0237 -0.2452
15268W        W31342   4.012   6.041   0.113  0.0680  0.4524 -0.0174
15269W        W31343  11.649   5.101  12.521 -0.0472  0.2462 -0.1144
15270W        W31344   8.332   9.963   3.247 -0.1501  0.1757 -0.0568
15271W        W31345  14.613  10.670   2.113  0.0100 -0.0986  0.0189
15272W        W31346   7.250   3.969   2.836  0.0878  0.1881 -0.1213
15273W        W31347  13.143  12.652   0.761  0.2688  0.1965  0.1675
15274W        W31348  11.016   8.388  11.434 -0.1072 -0.2370  0.0445
15275W        W31349   8.830   1.784   4.311  0.2568  0.2183 -0.3400
15276W        W31350   2.950  11.487  14.660 -0.0283 -0.1118  0.0066
15277W        W31351   9.651   6.183   2.504 -0.1796 -0.0844 -0.2898
15278W        W31352   3.080  10.453   1.732  0.0797  0.1353  0.0564
15279W        W31353  15.048   9.829  12.095  0.3664  0.2871  0.1343
15280W        W31354   9.686   3.815   2.195  0.0877 -0.4774 -0.2067
15281W        W31355   8.874   3.475   4.114  0.0146  0.3124  0.2018
15282W        W31356  11.550  15.051  15.384 -0.1913 -0.1020 -0.2540
15283W        W31357  14.485   6.994   2.713  0.1641 -0.2263  0.1242
15284W        W31358   9.932   0.470   0.655 -0.0284  0.2490  0.3480
15285W        W31359   0.854  11.575  16.538  0.0955 -0.2700 -0.0813
15286W        W31360   2.945  14.849  11.925  0.0891  0.0569 -0.2133
15287W        W31361  13.349  17.162  14.197  0.0401  0.3139 -0.1526
15288W        W31362   6.549   7.071  15.324 -0.0132  0.2970 -0.0196
15289W        W31363   3.306   1.831   6.426  0.1527  0.1022 -0.1596
15290W        W31364  17.249  11.983   5.041 -0.2065 -0.1003 -0.4864
15291W        W31365   8.239   1.806   1.972  0.3569 -0.2124  0.2650
15292W        W31366   9.899  14.734   0.040 -0.0255  0.1944 -0.1318
15293W        W31367   3.844  15.118  16.464 -0.1774 -0.1638 -0.2928
15294W        W31368  16.035  11.394  14.634 -0.1110 -0.0916 -0.2919
15295W        W31369   4.991   1.568   2.839  0.2232  0.0629  0.1416
15296W        W31370   6.125  16.705   0.676 -0.1837  0.0763  0.0065
15297W        W31371   5.618  16.074   0.040  0.0627 -0.0326 -0.2549
15298W        W31372   2.521  16.507   5.126 -0.2581  0.0186 -0.3703
15299W        W31373   7.809   4.851  16.563  0.0237  0.2862  0.1020
15300W        W31374   1.254   2.990   2.521  0.1731  0.0113 -0.0558
15301W        W31375  15.688   4.677  12.468  0.1554 -0.0625  0.0769
15302W        W31376  10.331  16.400   1.666 -0.1345 -0.4498 -0.1051
15303W        W31377   2.603   9.534  16.601  0.0065  0.2263  0.2418
15304W        W31378  10.324   8.927   3.114  0.2221  0.1254 -0.0747
15305W        W31379   6.009  17.483  15.279  0.0995  0.1487 -0.2793
15306W        W31380   6.208  17.622   4.936 -0.3006 -0.1913  0.0879
15307W        W31381  15.468   0.184   4.364 -0.2329  0.0684  0.1834
15308W        W31382   2.043   0.377  16.437  0.0010  0.3496  0.2685
15309W        W31383   0.846  12.485   2.996  0.2934 -0.4036 -0.0917
15310W        W31384   1.360  16.508  16.717 -0.0075  0.1260 -0.1741
15311W        W31385   5.768   7.168  13.799 -0.0440 -0.3187  0.0516
15312W        W31386   2.694   8.297  14.990 -0.3579 -0.2818  0.1264
15313W        W31387  11.447  16.005   2.664 -0.1262  0.3843 -0.0109
15314W        W31388  10.910  13.287   1.052  0.0322  0.1494  0.1896
15315W        W31389   5.421  15.463  11.774  0.2891 -0.0439  0.2531
15316W        W31390  12.282  15.629  12.012 -0.2080  0.2606  0.0036
15317W        W31391   3.271  11.864   4.495 -0.1564  0.1637  0.2596
15318W        W31392   7.395  14.110   3.403  0.1128  0.0222 -0.3195
15319W        W31393  15.650  17.214  16.712 -0.2355 -0.0720 -0.2277
15320W        W31394   5.918  12.913  14.686  0.1018  0.0845 -0.2635
15321W        W31395  16.313   5.641  14.327 -0.2028 -0.0806  0.2947
15322W        W31396  15.329   8.901   1.777  0.0036  0.1395  0.3043
15323W        W31397  17.435  13.385   1.270 -0.0197 -0.0077  0.0480
15324W        W31398  16.567   7.756   1.852 -0.1546 -0.0284 -0.0196
15325W        W31399  16.748   8.077  13.836 -0.1676  0.1541 -0.1320
15326W        W31400   6.101   0.390   3.463 -0.1439 -0.0889  0.2163
15327W        W31401  14.929  11.653  15.073  0.1267  0.0885 -0.1126
15328W        W31402  14.650   5.941   4.559 -0.4120 -0.0264 -0.2077
15329W        W31403   7.142   2.119  14.877  0.1800  0.1449  0.0102
15330W        W31404  11.441  15.945  11.948 -0.2178  0.0651  0.2542
15331W        W31405   0.599   6.950   3.142  0.0536  0.0566 -0.1018
15332W        W31406   9.777   6.773   2.736 -0.2083 -0.1403 -0.0639
15333W        W31407  13.230  10.938  15.296  0.1232 -0.1745  0.2913
15334W        W31408   8.998  13.880   4.225  0.2932 -0.0061  0.1554
15335W        W31409  12.214   8.560  16.064  0.1602  0.0621 -0.4417
15336W        W31410  16.314  17.221  13.969  0.0692 -0.0191 -0.1095
15337W        W31411   2.297   3.685   1.704  0.4480  0.1199  0.0425
15338W        W31412   0.868  17.217   2.518  0.0815  0.0386  0.0319
15339W        W31413   4.894   6.947  13.408  0.0202 -0.0655 -0.0675
15340W        W31414  17.712   1.908  16.030 -0.1148 -0.3038  0.2413
15341W        W31415   8.032   2.053  14.075 -0.1507  0.2459  0.0271
15342W        W31416  13.615   6.285  13.478  0.1368  0.3059  0.1446
15343W        W31417  16.762   0.107   5.305  0.2965  0.2986  0.2012
15344W        W31418   9.670  13.868  16.022 -0.0857  0.2520  0.0537
15345W        W31419  16.938   5.571  12.916 -0.1010 -0.1553 -0.0222
15346W        W31420  11.067   6.797   3.306 -0.0897  0.1776 -0.0367
15347W        W31421  14.521  15.140   1.208  0.0612 -0.0055 -0.1875
15348W        W31422  15.300  16.902  15.893  0.0320 -0.0829  0.0354
15349W        W31423  17.457  17.799  12.003  0.1369  0.0810 -0.1318
15350W        W31424   9.239   7.678  15.214  0.0013  0.0244 -0.1357
15351W        W31425   9.281  11.548  16.358  0.0721 -0.0224 -0.2644
15352W        W31426  14.727  14.829  16.793  0.1392 -0.4697 -0.0185
15353W        W31427  13.159   6.731  13.818  0.2470  0.2145  0.1445
15354W        W31428  15.469   5.808   6.266  0.1319 -0.0602 -0.0373
15355W        W31429   5.039  15.757   3.831 -0.0974 -0.0939 -0.2000
15356W        W31430   9.751   1.782   4.214  0.4807 -0.0999  0.0427
15357W        W31431  17.513  10.234   2.119  0.0916 -0.0333 -0.0363
15358W        W31432   9.841   5.325  12.321  0.0802  0.4167 -0.2392
15359W        W31433  10.647  10.841  13.011 -0.1758  0.1979  0.1782
15360W        W31434   7.039   7.110  13.394  0.1202  0.1717 -0.3197
15361W        W31435   8.336   8.427   1.154 -0.1095 -0.0159  0.1871
15362W        W31436  16.291   9.543  14.334  0.3686 -0.1286 -0.3356
15363W        W31437   0.038   0.361   4.774 -0.2433  0.0365  0.1160
15364W        W31438   7.961   7.531  14.600  0.1150  0.1071  0.0570
15365W        W31439   9.806  12.592   4.372  0.0262 -0.2347 -0.0612
15366W        W31440   5.454   1.352   0.791  0.1173  0.0254  0.0468
15367W        W31441   3.912   3.730  13.250  0.0184 -0.4181  0.1942
15368W        W31442  10.522   9.221   2.175  0.0670  0.0931 -0.1139
15369W        W31443  13.231  10.558  13.126  0.0600 -0.0535  0.0284
15370W        W31444  16.807  10.503  16.956 -0.0694  0.2204 -0.1756
15371W        W31445   3.037   2.132   1.824  0.3233  0.0391 -0.0138
15372W        W31446  16.230  15.077   2.158  0.1871  0.0292  0.0352
15373W        W31447  12.755  13.420  15.086  0.0923 -0.2937 -0.1049
15374W        W31448   4.068   5.598  15.193 -0.1352  0.1395  0.1529
15375W        W31449   2.255   2.013  16.904  0.1810  0.0761 -0.1463
15376W        W31450   0.087   4.804  16.456  0.3285 -0.0406  0.2499
15377W        W31451  11.365  13.622  12.409  0.0776  0.2186  0.2075
15378W        W31452  15.275   6.607  15.585 -0.0946 -0.2285  0.0912
15379W        W31453   4.075   7.598  14.330 -0.0019 -0.0123  0.0320
15380W        W31454  14.779   4.541  15.691  0.2529  0.1234 -0.3114
15381W        W31455   8.347   9.446   3.430 -0.1724  0.1344  0.0553
15382W        W31456   1.782  10.133   1.441  0.0781  0.1814  0.0070
15383W        W31457  17.105   1.670  14.787 -0.1172  0.3222 -0.1170
15384W        W31458   5.598   5.023  15.834  0.0913  0.1314 -0.2005
15385W        W31459  17.226  13.702  11.879  0.0547 -0.0296 -0.1012
15386W        W31460  13.920  13.889  14.554 -0.2295 -0.0502  0.2167
15387W        W31461  13.389   6.812   3.571  0.3905 -0.2987  0.2593
15388W        W31462  16.612   3.307   1.116 -0.1356  0.1766  0.0215
15389W        W31463   9.307   8.386  14.185  0.1132 -0.0558  0.2222
15390W        W31464   4.696  11.651  12.467 -0.2656  0.0400 -0.0793
15391W        W31465   1.804  14.325   1.878  0.1486 -0.2663 -0.1303
15392W        W31466  14.753  16.090  16.485 -0.1483  0.2885  0.2036
15393W        W31467   1.532   1.918  14.627  0.3827  0.1491  0.1794
15394W        W31468   5.504   9.865  14.443  0.0120  0.0511  0.3390
15395W        W31469   5.419   8.457   2.328 -0.0131 -0.0836 -0.5699
15396W        W31470   0.869   6.405  13.526  0.2367 -0.0155 -0.1146
15397W        W31471  16.904  15.520  16.828 -0.0033 -0.0971  0.0807
15398W        W31472  10.564  14.897  13.792  0.1098  0.0770  0.3676
15399W        W31473   9.368  16.757   4.194 -0.2240 -0.1040 -0.1127
15400W        W31474   1.579  15.857  14.191  0.3331  0.1211  0.2034
15401W        W31475   1.478   6.481  12.685 -0.0681  0.2349 -0.3697
15402W        W31476   3.134   2.548   4.486  0.2321 -0.0303 -0.0862
15403W        W31477  10.223  12.017   4.881  0.0503 -0.0293  0.0881
15404W        W31478  10.597   1.520  12.699 -0.0327 -0.0365 -0.1342
15405W        W31479  11.135   0.901  15.410  0.1096 -0.2145 -0.0161
15406W        W31480   7.266   8.321   5.625 -0.0985 -0.0833  0.2434
15407W        W31481   0.455   3.307  14.807 -0.0694 -0.3036  0.0362
15408W        W31482  17.098  10.990   2.239  0.1582  0.1071 -0.1492
15409W        W31483   7.518  16.220   4.564  0.2239 -0.0936  0.0023
15410W        W31484  11.912  10.291  11.663  0.0199 -0.0243  0.0949
15411W        W31485   2.299  12.643   4.723  0.1988 -0.1009  0.0425
15412W        W31486  12.776  12.076   3.918 -0.1294 -0.0700 -0.0583
15413W        W31487   5.754   2.017  15.870  0.1914  0.1103  0.0408
15414W        W31488  16.069   0.181  14.814  0.3124 -0.0953  0.1768
15415W        W31489   5.751  14.141   3.644 -0.0312  0.0486  0.3453
15416W        W31490   5.129  15.803  13.510  0.0594  0.1206 -0.2086
15417W        W31491  16.748   5.969  13.152 -0.4447  0.3398  0.1222
15418W        W31492   9.897  13.540  14.747  0.0615 -0.3045  0.1288
15419W        W31493  16.671   0.092  12.082 -0.0493  0.1695  0.0735
15420W        W31494  13.976  16.948  12.246 -0.3242 -0.2858  0.0090
15421W        W31495  12.344   1.083  12.123  0.3219 -0.0167 -0.0974
15422W        W31496  15.739   2.000  13.940 -0.1344 -0.0938  0.2764
15423W        W31497   7.820  11.430   2.589  0.0985  0.2434 -0.1190
15424W        W31498   5.027  14.465   4.492  0.0370 -0.1190  0.1658
15425W        W31499  13.434   0.746   5.241  0.1095 -0.0349  0.2772
15426W        W31500  11.499   3.582  14.366  0.3244  0.2101 -0.0395
15427W        W31501   8.216   6.023  12.011  0.2574  0.1792 -0.3911
15428W        W31502   1.446   5.920  11.857 -0.3047  0.1135 -0.2383
15429W        W31503   8.967   4.292  15.228 -0.0894  0.2241  0.4274
15430W        W31504  17.507  16.211  16.072 -0.0033 -0.1747  0.2552
15431W        W31505   6.787   2.795   1.723  0.1178 -0.0935 -0.3374
15432W        W31506   6.671   8.090  14.427  0.1855  0.4393  0.0655
15433W        W31507   2.510   7.677   4.366  0.0848 -0.0193  0.3710
15434W        W31508  16.023  15.751  13.901  0.1920  0.0448 -0.1556
15435W        W31509   9.232   5.765   6.211 -0.0373 -0.1890 -0.1074
15436W        W31510   7.968  17.581  15.474 -0.1528  0.1734 -0.0380
15437W        W31511  10.372   6.347   2.001 -0.0112 -0.1827  0.0717
15438W        W31512   0.600   7.001  16.475  0.0640  0.0318  0.0735
15439W        W31513   8.534   8.409  15.421  0.0455  0.0016 -0.1930
15440W        W31514   1.136  16.687   3.199 -0.1348 -0.0716 -0.1288
15441W        W31515  17.048   4.998  12.508 -0.2361  0.2600  0.1790
15442W        W31516  16.189   9.870  13.943 -0.1243 -0.1529 -0.0532
15443W        W31517  10.920   5.791  14.323  0.2404 -0.0938 -0.0398
15444W        W31518  16.301   2.687   4.322  0.2059 -0.0025  0.0973
15445W        W31519   5.454   5.413  12.502 -0.0580  0.1640 -0.0501
15446W        W31520   5.745   9.658   5.535  0.0007 -0.0715  0.0120
15447W        W31521   5.668  13.680   2.023  0.0463  0.0751  0.0708
15448W        W31522  13.348   9.165  14.887  0.1095  0.1675  0.1671
15449W        W31523   6.584   5.151  13.285 -0.1398 -0.1123 -0.0899
15450W        W31524  10.990   1.334  15.926 -0.2666  0.1048  0.2626
15451W        W31525  13.239   6.971   4.019  0.0343  0.0016 -0.0361
15452W        W31526  11.066  10.147   4.160 -0.0672 -0.2304 -0.2730
15453W        W31527  10.324  12.786  14.309  0.1084 -0.0248  0.0327
15454W        W31528  10.563   7.876   4.751 -0.0601  0.0126 -0.1230
15455W        W31529  14.394   0.642   4.504  0.1382 -0.0647 -0.1064
15456W        W31530  13.480   1.604  16.289  0.1190 -0.1725  0.0661
15457W        W31531   3.045  16.823   3.031  0.1007  0.1127 -0.1392
15458W        W31532  10.791   6.483   0.834 -0.0473  0.0373 -0.0206
15459W        W31533   0.308  15.689   5.146  0.0187  0.0414 -0.1607
15460W        W31534  12.955  11.805  16.896 -0.1254  0.1347 -0.1585
15461W        W31535  11.865  11.378   5.206  0.2424 -0.3324  0.0609
15462W        W31536  16.244  16.292  13.214 -0.2161 -0.0473 -0.0491
15463W        W31537   6.739  17.295  13.456 -0.0182  0.1303  0.0130
15464W        W31538   1.005   9.363  14.866  0.0508  0.2917 -0.0595
15465W        W31539   4.296  14.939   0.227  0.0940  0.1421 -0.0019
15466W        W31540   6.070  14.042  12.205  0.1910 -0.1395 -0.3078
15467W        W31541   9.458   4.871  12.622  0.3377 -0.0053  0.3784
15468W        W31542   1.752   4.039   1.564 -0.0335 -0.2102 -0.2869
15469W        W31543  11.640   5.227   5.730  0.3346  0.0862  0.0912
15470W        W31544   0.300  10.300   1.170  0.0060  0.0511  0.0954
15471W        W31545   1.239   3.661   3.707  0.1329  0.0690 -0.1054
15472W        W31546   7.873   9.172   5.759 -0.0741 -0.1319  0.1869
15473W        W31547  10.796  16.336   4.393 -0.2888 -0.1108 -0.3193
15474W        W31548   6.620   4.736  14.684  0.2940 -0.4998 -0.1896
15475W        W31549   2.015  11.488   4.046  0.2585  0.0872  0.0349
15476W        W31550   4.569   4.256  14.724  0.2103 -0.1978  0.0251
15477W        W31551   5.226   5.483  14.520  0.0748  0.2971 -0.0044
15478W        W31552   6.495  17.809  10.219  0.4103 -0.0104  0.0990
15479W        W31553  14.067   5.699  15.828  0.0875  0.0277 -0.6187
15480W        W31554   5.409  14.514   0.965 -0.0056 -0.1332  0.3422
15481W        W31555  14.928  16.862  15.141  0.0309 -0.2598 -0.2141
15482W        W31556   4.845  13.961  12.611  0.0080 -0.2156  0.1942
15483W        W31557  12.140   4.461  11.850  0.2839  0.3711 -0.0757
15484W        W31558   3.065  13.810   2.545 -0.1224  0.3752 -0.1915
15485W        W31559   1.992   5.808  12.726 -0.1001  0.0437  0.0764
15486W        W31560  11.363  17.459  13.824 -0.3770 -0.0958  0.0164
15487W        W31561   7.667  11.612   5.087 -0.1549  0.0992 -0.1354
15488W        W31562   5.199   5.378  15.897 -0.1718 -0.0970  0.0237
15489W        W31563   8.947   4.776  15.017  0.2077  0.0042 -0.1433
15490W        W31564   5.979   7.403   0.176  0.0018  0.0462  0.2639
15491W        W31565   1.872  16.290   0.927 -0.0217  0.1680 -0.1643
15492W        W31566  14.412   7.333  13.339 -0.1460 -0.0886 -0.2201
15493W        W31567   6.146   1.344  15.164  0.1149  0.0216  0.0676
15494W        W31568  15.959  14.490   4.847 -0.0070  0.2015  0.0188
15495W        W31569  10.822   9.069   2.947 -0.1358  0.2249 -0.0256
15496W        W31570  14.791   3.418  14.565 -0.0083 -0.1912  0.0578
15497W        W31571   9.555   8.499   2.219 -0.0322  0.0693 -0.1998
15498W        W31572   9.809   8.797  16.791  0.5380 -0.0056 -0.2242
15499W        W31573  15.380  16.332   0.601 -0.1350 -0.0824 -0.0969
15500W        W31574  16.004  12.754  16.222 -0.0758 -0.0331  0.1808
15501W        W31575  17.625   2.086  12.010  0.0691 -0.0599  0.0741
15502W        W31576   7.866  13.402  14.481  0.0719  0.0454 -0.1493
15503W        W31577   9.173  13.086   5.032 -0.1005  0.2156  0.2059
15504W        W31578  11.431  12.736   3.912  0.2688  0.0792 -0.2362
15505W        W31579   9.915   9.531   4.253 -0.1312 -0.0633  0.0576
15506W        W31580   4.248   3.335   4.515  0.1429  0.1419 -0.0530
15507W        W31581  12.846   4.530   1.439 -0.3291 -0.1883 -0.0847
15508W        W31582   0.180   5.159  12.926  0.0344  0.2303 -0.1364
15509W        W31583   9.190  12.113  16.330  0.1739 -0.1198  0.2959
15510W        W31584  12.253   6.260   0.368  0.2204 -0.1409 -0.1721
15511W        W31585   3.973  12.296   5.134 -0.1512 -0.0548 -0.1062
15512W        W31586  14.986   3.470  12.642 -0.1439  0.0749  0.0669
15513W        W31587  10.799   9.302  15.610 -0.0133  0.0122 -0.0623
15514W        W31588   5.529  11.323  12.502 -0.1451 -0.0717 -0.3315
15515W        W31589   7.697  17.051  14.051 -0.1244 -0.0189  0.0016
15516W        W31590   9.147  15.321  14.990  0.0832  0.0098 -0.0553
15517W        W31591   1.516   5.195   4.310 -0.1519  0.0936  0.1151
15518W        W31592   0.394   0.422  14.319  0.2034  0.0154 -0.2220
15519W        W31593  14.283  13.030   1.143  0.3394  0.0231  0.0109
15520W        W31594  16.836   4.146   5.548 -0.0454 -0.0876 -0.5602
15521W        W31595   3.865   0.654  13.612  0.0660  0.2429 -0.0741
15522W        W31596   9.057  16.747  15.045 -0.1186  0.0529 -0.0441
15523W        W31597  17.363   0.611  14.536 -0.0096  0.0001 -0.0011
15524W        W31598   8.478  10.295  12.778 -0.1258  0.0434 -0.2280
15525W        W31599   3.144  16.998   1.442  0.1197  0.0523  0.0260
15526W        W31600   4.648   4.605   3.217  0.1065 -0.2189  0.2574
15527W        W31601   2.790   5.282  15.748  0.1480 -0.0279 -0.1464
15528W        W31602   3.388   7.373   2.323 -0.1704 -0.0633 -0.1429
15529W        W31603   3.188   0.188   1.313  0.1055 -0.2926  0.4167
15530W        W31604   1.483  12.678   1.310 -0.2804 -0.1825  0.2354
15531W        W31605  12.139   8.596   0.474  0.1894  0.0868  0.4049
15532W        W31606   7.850   4.240  13.961 -0.2632  0.0692 -0.2294
15533W        W31607  13.191   5.153   0.987  0.0386 -0.1720 -0.1349
15534W        W31608   1.465   1.499   2.479  0.1856  0.2293  0.0383
15535W        W31609   8.414   6.218   0.201 -0.2029  0.1036 -0.1332
15536W        W31610   9.190   6.307   1.960 -0.4696  0.0144  0.2001
15537W        W31611   2.590   2.684   4.475  0.0860  0.1619 -0.3274
15538W        W31612  11.109   5.009  16.016  0.0557 -0.3545  0.0506
15539W        W31613   7.165   0.202   2.036  0.0124 -0.0968 -0.0493
15540W        W31614   3.113   7.786  16.748 -0.0792  0.1080 -0.1127
15541W        W31615   6.690   6.336   4.537 -0.1621  0.3875  0.2304
15542W        W31616   5.788   6.714   1.047 -0.2365  0.3851 -0.1754
15543W        W31617  16.300   7.031   0.135 -0.2708 -0.2376 -0.0367
15544W        W31618   0.758  13.515  13.027  0.0848  0.4329 -0.3911
15545W        W31619   5.215   4.576   3.350 -0.1566  0.0333  0.2609
15546W        W31620   4.614   6.927   5.033  0.0868  0.0870 -0.2092
15547W        W31621  14.025   9.886  13.411 -0.1233  0.3012 -0.1998
15548W        W31622   0.841   1.342   5.343 -0.0326  0.2955  0.0538
15549W        W31623   3.001  16.862  12.344 -0.0942 -0.3004  0.0557
15550W        W31624   6.131   8.838  12.147  0.2988 -0.2894 -0.2318
15551W        W31625  12.286  12.043  11.615  0.0375  0.1207 -0.1063
15552W        W31626  13.393   8.276   4.506  0.0715  0.0952  0.0798
15553W        W31627   5.472  17.167   2.288  0.0031  0.3733  0.0216
15554W        W31628  16.015  14.012  15.172  0.2024 -0.0381  0.2151
15555W        W31629  16.832   1.801  12.295 -0.1500 -0.0432  0.1619
15556W        W31630  15.827   1.582   0.314 -0.0311  0.2343 -0.0103
15557W        W31631   9.899  13.870  14.327  0.2320 -0.2585  0.1234
15558W        W31632   2.982  12.867  13.352  0.1388 -0.1315  0.2316
15559W        W31633   1.203   4.058  16.079 -0.1014  0.0561 -0.1938
15560W        W31634  13.539  17.021  13.158 -0.0533 -0.0455 -0.0113
15561W        W31635   7.510  12.084   5.003 -0.2203 -0.2304 -0.5247
15562W        W31636   0.635   3.788   1.601 -0.0021 -0.2659 -0.0939
15563W        W31637  13.138  17.814  13.411  0.1877 -0.0245 -0.1548
15564W        W31638  17.355  16.086   2.388  0.0161  0.0267  0.0351
15565W        W31639   8.536  10.402  15.817 -0.0516  0.0044  0.3131
15566W        W31640   6.358   6.838   3.708  0.1932  0.0994 -0.1006
15567W        W31641   7.991  10.494  13.825  0.5934 -0.1532 -0.0002
15568W        W31642   1.957   2.339  12.868  0.2892 -0.1615  0.0612
15569W        W31643   6.090   4.791  14.742 -0.1291 -0.1074  0.2052
15570W        W31644   0.079  11.249   1.318  0.1118 -0.2780  0.0161
15571W        W31645  16.323   5.703   2.518  0.1254  0.2353 -0.0378
15572W        W31646   7.922   9.177  15.849  0.1958 -0.1900 -0.2400
15573W        W31647   8.841   9.603  13.169  0.2688 -0.0611  0.1810
15574W        W31648  16.947   9.148  16.262  0.0422 -0.0011 -0.1378
15575W        W31649  13.086   5.387  16.971 -0.0121  0.0017 -0.3564
15576W        W31650   5.869   3.697   2.300 -0.1915  0.2260  0.3962
15577W        W31651  12.682   2.615   0.215  0.0578 -0.0833  0.1324
15578W        W31652   7.482   0.270  15.999  0.0551  0.3234 -0.1024
15579W        W31653   2.679   9.884   0.568 -0.0155 -0.1340  0.0793
15580W        W31654   1.352   9.865  16.796 -0.0914  0.1598  0.2677
15581W        W31655  12.904  13.508  14.248  0.0045 -0.0503 -0.0496
15582W        W31656   4.040  14.955   5.406  0.2371  0.2096  0.1970
15583W        W31657  15.438   3.377   5.277  0.2184  0.1655 -0.0405
15584W        W31658  11.737   0.047   1.285 -0.3372  0.0036 -0.0209
15585W        W31659  15.895   2.142   2.596 -0.1616 -0.1476 -0.0649
15586W        W31660  16.476   5.303  12.900  0.0146 -0.2343 -0.0313
15587W        W31661   9.246   1.535   4.196  0.0625  0.0205  0.1951
15588W        W31662   1.038   4.096  14.333  0.2293  0.1285 -0.3087
15589W        W31663  16.764  13.738   0.636  0.2041 -0.1409  0.2489
15590W        W31664   9.396   1.550  15.276  0.0466  0.3344  0.2200
15591W        W31665  16.042   6.804   2.238  0.1741  0.0672 -0.0923
15592W        W31666  16.141   6.639   1.326 -0.0935 -0.1926  0.0489
15593W        W31667   6.019  16.638  14.839 -0.0944 -0.1173  0.0323
15594W        W31668   3.582  13.588  13.177 -0.0553  0.0920  0.1435
15595W        W31669   8.921   3.259   4.730  0.0536  0.2726 -0.1569
15596W        W31670  15.261  14.030   1.517 -0.0660  0.0021  0.2265
15597W        W31671  13.477  15.926   5.942 -0.0890 -0.0568 -0.0969
15598W        W31672   8.647   1.335  16.846 -0.3647 -0.1013 -0.1932
15599W        W31673   9.749   3.289   1.979 -0.0166  0.2346 -0.1114
15600W        W31674  17.423  16.647  13.703 -0.1818 -0.3559 -0.0814
15601W        W31675  11.850   1.054  12.309  0.1763  0.0985 -0.0241
15602W        W31676  11.300  14.042   5.445  0.2158 -0.1922  0.0323
15603W        W31677   7.181   4.449  12.866 -0.0454  0.1446  0.1036
15604W        W31678  12.203   9.895   3.077 -0.1925 -0.0098  0.1892
15605W        W31679   1.853   3.666  14.514 -0.2740 -0.0664  0.1604
15606W        W31680   4.576   7.316  16.121 -0.1077  0.0129 -0.0319
15607W        W31681  11.990   2.660  14.893  0.3063  0.0726  0.0278
15608W        W31682   6.622  14.973  13.675  0.3192  0.0389  0.1041
15609W        W31683  17.133   3.228  11.578 -0.2650  0.0481 -0.1249
15610W        W31684   3.832   9.017   5.464  0.2623  0.1036  0.2076
15611W        W31685   5.398   1.254  12.474  0.1249  0.0475  0.2955
15612W        W31686  15.606   0.142  16.500  0.4318  0.0571  0.1350
15613W        W31687  13.082   8.127   2.532  0.1718  0.0233 -0.0477
15614W        W31688   9.233   0.653  15.838  0.1723  0.0801  0.0335
15615W        W31689  13.109  15.857  12.705  0.0930 -0.1868  0.2477
15616W        W31690   4.901   1.883   5.427 -0.0003  0.3398 -0.2290
15617W        W31691   8.234   7.728   4.611 -0.0921  0.2320  0.0016
15618W        W31692  14.142   0.936  16.066  0.3172 -0.1676 -0.0851
15619W        W31693   1.110   8.753  13.191  0.1778 -0.0040 -0.0411
15620W        W31694  10.171  10.431   3.145 -0.4628 -0.2582 -0.6696
15621W        W31695   5.354   3.628  15.582  0.0541 -0.0453  0.1464
15622W        W31696  11.831   7.906   1.159  0.1067 -0.2172 -0.3025
15623W        W31697   1.622   7.539   5.611 -0.0798  0.1197 -0.1439
15624W        W31698   1.386   9.266   4.088  0.1127  0.1175 -0.1093
15625W        W31699  13.554  11.702  14.922  0.1295 -0.1630  0.2596
15626W        W31700   7.447   4.531  11.887  0.0138 -0.0411 -0.4037
15627W        W31701  13.307   7.886   2.978 -0.0212 -0.1444 -0.0969
15628W        W31702  14.790   4.687  12.744 -0.1558 -0.0103  0.2959
15629W        W31703  16.132   1.839   3.903 -0.0638 -0.0087  0.0422
15630W        W31704   6.302   2.769  13.825  0.1659 -0.1183 -0.1127
15631W        W31705   6.202   5.798  12.808  0.1367  0.2469  0.1571
15632W        W31706  10.449   8.476  13.868  0.0888  0.0858  0.0549
15633W        W31707  11.955  10.101  13.957  0.0517 -0.0266  0.2048
15634W        W31708  16.278   0.382  15.655  0.0463  0.2357 -0.2845
15635W        W31709  14.324  12.938   6.089  0.3032  0.0229 -0.2291
15636W        W31710   6.642   7.414   0.893 -0.0479  0.0937 -0.0233
15637W        W31711   4.811   1.346  14.938 -0.1750  0.3976  0.1282
15638W        W31712  15.150  17.519   5.032  0.0765  0.0936 -0.2903
15639W        W31713   9.776  15.332  13.405 -0.0811  0.2926 -0.0137
15640W        W31714  14.221  13.335   4.359  0.0027  0.0790  0.0152
15641W        W31715  14.604   9.850  14.883 -0.3342 -0.1475 -0.1104
15642W        W31716  12.553  15.561   5.412 -0.4808  0.2105 -0.0987
15643W        W31717  13.053  17.212   4.345 -0.3825  0.0127  0.0257
15644W        W31718   8.621  11.220   1.833  0.0241  0.0337  0.0262
15645W        W31719   7.603  10.045   2.693  0.3903 -0.2355 -0.0618
15646W        W31720  13.571  10.662   2.178  0.0824  0.1253 -0.2595
15647W        W31721  11.515   6.841   3.093 -0.0050 -0.0552 -0.1401
15648W        W31722  10.514   2.375   0.669  0.0109  0.1347  0.0608
15649W        W31723   3.058   7.044  11.478 -0.2002 -0.1560  0.2278
15650W        W31724  10.199  17.714  16.947 -0.2993 -0.1613  0.1134
15651W        W31725   6.145   2.870   4.946 -0.2066  0.1715  0.0670
15652W        W31726  16.693   3.622  11.925  0.0849 -0.1293  0.0416
15653W        W31727  17.427  16.599  11.858  0.1547  0.0495 -0.0202
15654W        W31728   6.137   5.156   1.389 -0.3116  0.0139  0.0226
15655W        W31729   6.437   3.775   3.960  0.1474  0.2242  0.3104
15656W        W31730  12.401  11.300   1.682 -0.0547 -0.0375 -0.0040
15657W        W31731   9.631   6.133   3.539 -0.1095  0.2158  0.1256
15658W        W31732   3.076  16.448   3.353  0.1495 -0.0370  0.1899
15659W        W31733  16.641   8.227   4.391  0.1440 -0.1629 -0.2513
15660W        W31734  12.542   5.054  12.509 -0.0137 -0.2160  0.4459
15661W        W31735   4.335   4.779   4.763  0.2051  0.4045  0.0628
15662W        W31736  10.521   9.779  16.925  0.1238  0.2410  0.2452
15663W        W31737  11.343   2.021  12.450 -0.1584  0.2181 -0.2954
15664W        W31738  14.782   3.255   3.339  0.3647 -0.0757 -0.1315
15665W        W31739  13.131   6.861   1.551 -0.0530  0.2469 -0.1453
15666W        W31740   9.595   2.749   4.985 -0.0731  0.2900 -0.1186
15667W        W31741   5.909   3.085  14.112 -0.0447 -0.1958 -0.0109
15668W        W31742   5.013  16.846   4.951  0.1462 -0.0864  0.1609
15669W        W31743   6.314  10.269   0.334 -0.3097 -0.4994 -0.2926
15670W        W31744   9.175   3.404   1.184  0.0419 -0.1490  0.4066
15671W        W31745  12.572  15.782  14.092  0.0489  0.1466 -0.1868
15672W        W31746   4.321  12.320   1.028 -0.0100  0.0491  0.0600
15673W        W31747  11.204  16.655   4.663 -0.2497  0.2590 -0.0736
15674W        W31748   8.908   8.373   6.744  0.0695 -0.1032 -0.0675
15675W        W31749  13.526  11.997   5.595  0.1328 -0.4126  0.1003
15676W        W31750  10.828   6.821  14.339 -0.0633 -0.0281  0.0308
15677W        W31751   8.661  16.119   0.483 -0.1321  0.2011 -0.2146
15678W        W31752   9.402   6.450  16.096 -0.0549 -0.0039 -0.1065
15679W        W31753   8.472  17.302   1.532  0.0516 -0.2293 -0.0594
15680W        W31754   5.323   9.076   5.736 -0.2715  0.0316  0.1057
15681W        W31755   3.069  13.989   2.040 -0.0668  0.0180  0.0921
15682W        W31756   4.433   4.128  16.740  0.1220  0.2546 -0.0275
15683W        W31757   0.155   2.809  15.457 -0.0182  0.1964 -0.0014
15684W        W31758   3.260   0.564   2.231  0.1197  0.2030 -0.3634
15685W        W31759   5.564   3.663  11.949  0.3362  0.1692  0.0713
15686W        W31760   4.269  11.025  12.244  0.0079  0.0960 -0.0415
15687W        W31761   2.501  16.891   0.718 -0.2944  0.0162  0.1008
15688W        W31762   4.376   3.418  15.460  0.2573 -0.0777  0.0765
15689W        W31763   3.495   3.995   1.393 -0.1458 -0.3034  0.0407
15690W        W31764  12.137   8.242   2.908  0.0314  0.0597  0.1683
15691W        W31765   3.777   6.644   5.239 -0.3272  0.1748 -0.1292
15692W        W31766   5.118   0.786  14.911 -0.0712 -0.1061 -0.1766
15693W        W31767  13.426  15.571   2.530  0.2448 -0.2636  0.0218
15694W        W31768  14.847  14.179  14.771  0.0046 -0.1986 -0.1938
15695W        W31769  16.630  15.053   0.140 -0.1233 -0.1147  0.1948
15696W        W31770   3.290   9.319  12.848 -0.0662  0.0170 -0.0860
15697W        W31771   4.075  16.200   5.297  0.2440  0.1909 -0.0216
15698W        W31772   6.591   3.403   5.273  0.1741 -0.1788 -0.1299
15699W        W31773  14.074   8.536  14.970  0.1622 -0.0159  0.2180
15700W        W31774  12.139   3.188  13.954  0.2508  0.1473  0.0859
15701W        W31775   1.172   3.192   1.381 -0.2596 -0.0466  0.3131
15702W        W31776  11.189   9.561   2.914 -0.0423  0.0971 -0.1064
15703W        W31777   8.414   1.264  15.326  0.0710 -0.0696  0.0273
15704W        W31778   8.838  17.270   5.896 -0.1005  0.0782 -0.1876
15705W        W31779   2.880   0.238   2.313 -0.2318  0.0419 -0.1505
15706W        W31780  11.067  13.394   2.796  0.0424  0.0979 -0.2246
15707W        W31781  15.638   2.753   1.804  0.1489  0.0793 -0.1054
15708W        W31782  10.456  17.406   1.380 -0.0192  0.2811 -0.0594
15709W        W31783  11.189   4.305  12.316  0.1165  0.3484 -0.1005
15710W        W31784   4.064  15.672  14.278 -0.2300  0.1423 -0.1320
15711W        W31785  11.147   8.147   0.424  0.0465  0.3556  0.0612
15712W        W31786  17.554  17.015   3.988 -0.3423 -0.1164  0.2493
15713W        W31787   6.320   0.624  13.974  0.0533 -0.1166  0.0912
15714W        W31788   0.273   3.788   0.100  0.0062 -0.0025  0.0520
15715W        W31789  13.663  14.788   4.086 -0.1515 -0.0522 -0.1424
15716W        W31790  12.777   0.144   4.948 -0.0444  0.0588  0.1565
15717W        W31791   6.489   4.059   3.550  0.2534  0.0348 -0.0196
15718W        W31792   2.974   9.444  14.127  0.3899  0.4424 -0.1333
15719W        W31793  13.044   0.078   4.449  0.1201 -0.3268  0.2042
15720W        W31794   1.493  14.514  12.853  0.3571 -0.2520 -0.0271
15721W        W31795  15.369   6.003   4.057  0.0236 -0.1940 -0.0611
15722W        W31796   6.769  12.946   4.664  0.1243  0.0876  0.1123
15723W        W31797   3.239   7.058   3.864 -0.0597  0.0122 -0.0784
15724W        W31798  14.093  10.124   3.351 -0.3544  0.0697 -0.0335
15725W        W31799  13.637  15.348   4.135 -0.0534  0.0591  0.1472
15726W        W31800   5.263   8.992  14.609  0.0558 -0.0767  0.2117
15727W        W31801  15.375   4.154   4.182  0.0530 -0.2859 -0.0387
15728W        W31802   9.919   4.841   3.718  0.3454 -0.2670  0.1787
15729W        W31803   6.728   9.568   5.700 -0.0102  0.3713 -0.1290
15730W        W31804   9.374  12.247   4.757 -0.0894 -0.0824 -0.0831
15731W        W31805   4.909   1.660   4.955  0.3683 -0.0128 -0.1790
15732W        W31806  13.130   8.862   3.238 -0.3381 -0.1531  0.0676
15733W        W31807   3.605   0.746  12.156 -0.1676  0.1293  0.1694
15734W        W31808   5.825   4.873   5.991 -0.0316  0.0732  0.1283
15735W        W31809  14.309   5.816   2.074 -0.2356  0.0489 -0.0248
15736W        W31810  17.078  11.580  13.023 -0.5191  0.0524 -0.1027
15737W        W31811   2.611   6.303   4.573 -0.1597 -0.0732 -0.0245
15738W        W31812  15.392  17.787   0.704  0.0475  0.1665 -0.3391
15739W        W31813   3.576  14.273   4.665  0.1560  0.1004  0.0907
15740W        W31814  16.364   9.684   5.112 -0.0713 -0.1106  0.1870
15741W        W31815   8.789  16.377  14.293 -0.3303  0.1170 -0.1046
15742W        W31816   8.719  15.009  12.483  0.0756  0.0411 -0.0420
15743W        W31817   3.665  16.935   3.704 -0.1173 -0.1001 -0.2339
15744W        W31818  15.008  15.542   0.519  0.1967  0.3280  0.2018
15745W        W31819  11.240  16.743  14.924  0.0146 -0.1030  0.2097
15746W        W31820  15.853   6.041  13.233  0.1254 -0.1575 -0.1544
15747W        W31821  13.987  11.434   0.773 -0.1328 -0.2799  0.1399
15748W        W31822  14.104   7.243  15.356 -0.1985 -0.1533 -0.0258
15749W        W31823   6.871   0.651  14.162  0.0037  0.3314  0.1327
15750W        W31824  13.591   3.576  15.481 -0.0743  0.1136  0.2502
15751W        W31825  10.476  14.390   1.031  0.1037  0.0769  0.3148
15752W        W31826   9.444   6.286  13.487  0.1457  0.1069  0.1807
15753W        W31827  16.291   5.811  16.876 -0.1831  0.1138  0.1935
15754W        W31828  14.562   2.470  12.609 -0.1035 -0.1502  0.0700
15755W        W31829   7.909   5.636   4.663 -0.1799  0.0542 -0.4316
15756W        W31830  11.357   9.129   0.038 -0.0685 -0.2113  0.0485
15757W        W31831  16.709  11.381  15.103  0.0611 -0.0461 -0.1969
15758W        W31832  16.439  14.431  15.296 -0.1499 -0.0346  0.3067
15759W        W31833   3.775  16.590   0.642 -0.0791  0.0588  0.0015
15760W        W31834  13.892  17.048  12.762 -0.0320  0.0097 -0.0732
15761W        W31835   5.553  13.897  11.834  0.1613  0.0894  0.3095
15762W        W31836   0.200  11.762  15.837  0.0092 -0.0645  0.1636
15763W        W31837   4.300  12.526   5.884  0.0009  0.2027 -0.2196
15764W        W31838  12.590   1.718  14.333  0.2180 -0.1749 -0.0259
15765W        W31839   0.319   9.620  15.151  0.0999  0.0302 -0.0959
15766W        W31840  13.561   0.542  13.466 -0.0581  0.0142  0.2440
15767W        W31841   4.271  10.524  12.371  0.1152 -0.2092 -0.0982
15768W        W31842  16.280   4.894  11.900  0.1747 -0.0828  0.0733
15769W        W31843   5.840   1.556  12.791 -0.4561 -0.2494 -0.3119
15770W        W31844  12.599  17.373   5.113  0.0332 -0.1700 -0.0581
15771W        W31845   7.569  14.805  14.974  0.3996  0.2738  0.1041
15772W        W31846   4.455   5.826   4.550 -0.1119 -0.0108 -0.2649
15773W        W31847  14.275  17.228   0.342  0.0553  0.0382  0.3042
15774W        W31848  17.443   0.338   1.372 -0.1384  0.4055  0.1184
15775W        W31849  13.713   0.594   0.801  0.0600  0.1732  0.0064
15776W        W31850  13.044  13.638  16.572 -0.0753 -0.3364  0.2543
15777W        W31851  10.180   4.743   0.006 -0.2078 -0.2792 -0.2055
15778W        W31852  12.365  10.195  15.252 -0.0341 -0.1028  0.1989
15779W        W31853   1.411   3.468   2.733 -0.1090  0.2397 -0.3913
15780W        W31854   1.369   3.121  16.850 -0.1167 -0.2114 -0.0581
15781W        W31855  15.254   9.201   2.805  0.2329 -0.2778  0.2780
15782W        W31856  15.940  12.381  14.416 -0.0446 -0.5170  0.0027
15783W        W31857  15.872  14.833  13.607  0.1626 -0.1876 -0.1314
15784W        W31858   4.947  12.852   2.582  0.1001 -0.1452 -0.3952
15785W        W31859   4.826  15.009   6.465 -0.0527 -0.1543  0.1235
15786W        W31860  11.935   2.828  15.686  0.2652  0.0064 -0.0496
15787W        W31861   4.785   0.447   4.739 -0.0212 -0.0883 -0.3579
15788W        W31862  11.417  13.605   1.301 -0.0367  0.2105 -0.3237
15789W        W31863  11.704  13.009   2.075 -0.2148 -0.1028  0.0999
15790W        W31864   9.891  14.172   3.767  0.1738 -0.1700  0.0377
15791W        W31865   3.646   7.092  12.546 -0.2558  0.2691  0.0639
15792W        W31866  12.799  16.391  15.645  0.0787 -0.0841  0.2927
15793W        W31867   4.778   1.246  15.452 -0.0166  0.3951  0.1333
15794W        W31868   3.112   4.317   5.652  0.1719 -0.2116  0.0452
15795W        W31869   5.664   8.900   0.399 -0.2318 -0.1225 -0.3435
15796W        W31870  14.254   2.838   4.828 -0.0197 -0.0723  0.0646
15797W        W31871   5.458   5.677  16.650  0.0800 -0.0257  0.2614
15798W        W31872  13.624   0.303   5.474 -0.1265  0.1531 -0.1334
15799W        W31873   5.891  11.183  16.916 -0.1469 -0.0336  0.3700
15800W        W31874  14.180  16.382  12.120 -0.2705  0.2624  0.2479
15801W        W31875   0.650  11.758   0.803 -0.2896  0.3221  0.1008
15802W        W31876  12.711  15.297  11.189  0.1833  0.1754 -0.0388
15803W        W31877   4.422   4.533  12.547 -0.0487  0.0179 -0.1656
15804W        W31878   2.749   3.971   0.883  0.1588  0.0786  0.1704
15805W        W31879   3.366   3.278  16.522 -0.1707  0.0086 -0.3278
15806W        W31880   7.570   1.835   4.870  0.3517  0.2635  0.0283
15807W        W31881  13.199   6.344  15.875  0.1101 -0.2430 -0.0978
15808W        W31882   5.916  11.155  15.419  0.4595  0.1834  0.0210
15809W        W31883  16.476  16.183   0.958 -0.0142  0.3315  0.4107
15810W        W31884  16.308  15.822  13.471 -0.1904  0.0508  0.3366
15811W        W31885   1.011   1.327  12.649  0.1871  0.0346  0.0791
15812W        W31886   6.263   1.986  15.883 -0.2002  0.0941 -0.3130
15813W        W31887  13.182   5.597   5.533 -0.1798  0.0165 -0.1937
15814W        W31888  17.542  10.933  14.847  0.0279 -0.2376  0.1332
15815W        W31889  17.199   1.929   1.458  0.0982  0.0102 -0.0838
15816W        W31890   5.870  15.465  16.484 -0.1692  0.0267 -0.0087
15817W        W31891   2.925   5.117   2.800  0.0283  0.0144 -0.1866
15818W        W31892  10.408  14.462  13.493 -0.1696 -0.1547 -0.4069
15819W        W31893  17.452   8.035   5.763  0.2183  0.2940 -0.1559
15820W        W31894   1.343  17.404   1.332  0.0712 -0.3819 -0.2571
15821W        W31895   9.790   7.840  14.830  0.0251 -0.2812 -0.1653
15822W        W31896   0.724   2.973   0.922  0.0178  0.2669  0.0545
15823W        W31897   4.898   6.298  12.247 -0.2351 -0.0039  0.0091
15824W        W31898   8.114  16.818   4.493 -0.2295 -0.4484  0.1678
15825W        W31899   7.120   0.384  11.633 -0.0181 -0.0155  0.0498
15826W        W31900   2.639   5.609   2.799 -0.0963 -0.0709 -0.0439
15827W        W31901   1.342   5.988   2.223 -0.0987  0.3661  0.3531
15828W        W31902  11.678   4.978   3.280 -0.2425 -0.0942  0.2366
15829W        W31903   2.494   2.258  13.421 -0.1853  0.3362 -0.0341
15830W        W31904  10.788   2.904   0.598  0.1286  0.2013  0.0992
15831W        W31905  10.408  12.891  13.755 -0.0344  0.2155  0.1762
15832W        W31906   6.584   1.991   3.789 -0.0962  0.1015  0.0961
15833W        W31907  17.271   9.665  12.485 -0.1011  0.2114 -0.0228
15834W        W31908   3.116   0.958   3.052 -0.2094 -0.3432  0.0530
15835W        W31909  17.280   7.853   4.945  0.0167 -0.0366  0.3055
15836W        W31910   1.773   3.159   0.209 -0.1575  0.2330  0.0738
15837W        W31911   2.411   4.996  15.460 -0.3424 -0.1950  0.0944
15838W        W31912  17.726   7.011   0.850 -0.0659 -0.2354 -0.0645
15839W        W31913   4.810   5.655   1.820  0.2022 -0.0079  0.1916
15840W        W31914   5.434   4.157   0.177  0.0201  0.0070 -0.1908
15841W        W31915   0.510  16.368   2.664  0.0085 -0.0390  0.0297
15842W        W31916   4.830   9.071  16.078 -0.3270  0.2620 -0.0277
15843W        W31917  15.918   3.096   0.602 -0.3000 -0.1395  0.1622
15844W        W31918   2.026   4.685   1.971  0.5081  0.2041  0.1188
15845W        W31919  16.721  15.745   5.895  0.2148  0.1107  0.2147
15846W        W31920  13.094   1.171  15.392  0.1121  0.3121  0.0187
15847W        W31921   7.298   5.327  12.908  0.4567  0.2502 -0.1209
15848W        W31922   6.704   3.551  13.057 -0.2270  0.0791  0.0882
15849W        W31923   3.658   3.746  16.032  0.2231  0.1569  0.0963
15850W        W31924   3.771   7.150   5.586  0.2612  0.0123  0.0996
15851W        W31925   8.853  12.507   1.039  0.1972 -0.2848  0.0095
15852W        W31926  17.773  11.547  11.763 -0.1512  0.1756  0.1305
15853W        W31927   7.577   6.741   0.459  0.1189 -0.2008 -0.0149
15854W        W31928   2.191   2.970   2.868  0.2754  0.0271  0.0886
15855W        W31929   6.469   7.584  14.386 -0.2779 -0.4162 -0.0501
15856W        W31930  13.703  10.038   0.680 -0.2943 -0.0217 -0.0052
15857W        W31931   1.273  15.063   2.623 -0.2802  0.2936 -0.0482
15858W        W31932  16.614  15.817   2.775 -0.3107 -0.1469  0.1460
15859W        W31933  11.728   5.663   3.215 -0.0394  0.1691 -0.2250
15860W        W31934  17.431   0.143   3.608  0.3690 -0.0036 -0.1640
15861W        W31935   1.505   3.472   5.393  0.0921  0.1135 -0.1589
15862W        W31936   0.352  16.627  15.368 -0.1841 -0.0557 -0.2698
15863W        W31937  14.981  17.747   5.423 -0.1161  0.0095 -0.1565
15864W        W31938  14.139  10.388  13.771 -0.2818  0.0824 -0.0956
15865W        W31939  10.408   5.986   1.674 -0.1309  0.0309  0.2851
15866W        W31940   6.564   9.985   5.447 -0.1537 -0.0909  0.3714
15867W        W31941  13.945   6.721  12.133  0.3143  0.1598  0.5494
15868W        W31942   4.539   5.640  16.786  0.2100 -0.2202 -0.1599
15869W        W31943  13.958   7.402  13.518  0.0651 -0.3526 -0.1809
15870W        W31944  17.623   1.480  16.778 -0.0889  0.0414 -0.0696
15871W        W31945   8.371  14.398   5.234  0.0329 -0.0356  0.1764
15872W        W31946   6.466   0.859  16.806 -0.0808  0.0045 -0.1939
15873W        W31947  17.786   6.291   2.620 -0.2303  0.1791 -0.1792
15874W        W31948   1.961   7.353  12.327  0.0442 -0.1976  0.5051
15875W        W31949  14.444  11.065   6.199  0.0747 -0.1599 -0.1154
15876W        W31950   2.923   7.621  16.166 -0.2193  0.0429 -0.0717
15877W        W31951   4.661   1.667   1.621 -0.4112  0.2322  0.0291
15878W        W31952   1.714   4.939   5.591 -0.1563 -0.3017  0.0138
15879W        W31953   0.949   6.100   2.566 -0.2325  0.0262 -0.0171
15880W        W31954   0.133   1.165   0.075  0.1173 -0.0174  0.2522
15881W        W31955  14.770  11.867  12.838 -0.0582 -0.0597  0.1172
15882W        W31956   2.835  16.706   4.731  0.3518  0.1455 -0.1286
15883W        W31957   0.049  10.414   3.432  0.0306  0.1345  0.1195
15884W        W31958   1.186   9.893   2.640  0.3331 -0.1139 -0.2448
15885W        W31959  16.657   1.151   2.364  0.3354  0.0296  0.1231
15886W        W31960  12.513  16.827   5.765 -0.0979 -0.1158 -0.0290
15887W        W31961  17.096   9.037  14.189 -0.1058 -0.0082 -0.1301
15888W        W31962  15.302  14.991   0.463  0.0507 -0.1964 -0.0784
15889W        W31963   3.164  16.745   0.765  0.0262  0.1587  0.2618
15890W        W31964  12.095   0.273   2.447  0.0231 -0.0752  0.1300
15891W        W31965   6.253  12.112   2.070  0.1103  0.1774 -0.3192
15892W        W31966   1.772  16.066  12.453  0.0888 -0.3921  0.0735
15893W        W31967  10.349   0.921  11.814  0.1357 -0.0280 -0.0475
15894W        W31968   7.274   2.502  13.272  0.1721 -0.0635  0.2477
15895W        W31969  15.985   1.089   1.553 -0.2945  0.0318 -0.1131
15896W        W31970  10.837  14.627  13.303 -0.2158 -0.2584  0.4443
15897W        W31971   1.060   2.958  16.420  0.1573  0.0427  0.0837
15898W        W31972   8.335  11.227   2.778  0.0621  0.1436 -0.2517
15899W        W31973   6.908   1.185   1.615  0.0751  0.1289 -0.0298
15900W        W31974  11.340  17.659  14.792 -0.0273  0.2164  0.2572
15901W        W31975   8.499  12.419  14.180  0.4499  0.1684 -0.2112
15902W        W31976  15.835   3.042   0.029 -0.0868  0.0273  0.3167
15903W        W31977   1.006   9.209  15.800  0.0157 -0.2737 -0.1682
15904W        W31978   3.517  13.125   2.965  0.0217 -0.0949 -0.0256
15905W        W31979  12.967   8.352  14.611  0.0070 -0.1827 -0.0481
15906W        W31980   9.866   8.358   3.614  0.0891  0.1502 -0.1158
15907W        W31981  16.759   0.007   3.021  0.1217  0.2606 -0.0339
15908W        W31982   7.427   6.656  14.464 -0.0563 -0.1360  0.2158
15909W        W31983   5.805  13.773   3.273  0.0124  0.1083 -0.1682
15910W        W31984   5.487  10.727  16.325 -0.1953  0.0143 -0.0939
15911W        W31985   6.432   2.714   4.447  0.0393  0.0202 -0.1773
15912W        W31986   5.052   1.594  11.597  0.0095  0.0927 -0.2609
15913W        W31987  11.672   5.237   2.441 -0.2792  0.0018 -0.0365
15914W        W31988  17.791   6.391   4.792 -0.1003  0.2345 -0.4281
15915W        W31989  17.593  15.167   4.906  0.1406  0.0953  0.2262
15916W        W31990   7.735  13.218  15.320  0.3880  0.1287  0.1107
15917W        W31991   0.914  17.806   4.246 -0.0933 -0.0654 -0.2151
15918W        W31992   5.265  13.015   5.096 -0.0325 -0.0159 -0.0437
15919W        W31993   8.221   5.991  12.561  0.0207  0.3939 -0.1208
15920W        W31994   3.578   6.466  15.680  0.0584 -0.2793 -0.0673
15921W        W31995   0.704  15.750  16.231 -0.1125  0.0898  0.0111
15922W        W31996   0.708  15.398   3.757 -0.0999 -0.0577  0.0348
15923W        W31997   3.489   7.000   1.930 -0.0539  0.0240 -0.0172
15924W        W31998   6.659  17.422   5.568 -0.0331 -0.1740  0.1138
15925W        W31999   3.634  14.048   4.157  0.1351  0.2285  0.0962
15926W        W32000  15.919   4.221  12.321 -0.1361 -0.0057 -0.1154
15927W        W32001   9.060   8.746   5.033 -0.0581 -0.2506  0.2599
15928W        W32002  13.455   6.414  14.492 -0.2677 -0.0615 -0.2118
15929W        W32003  10.798  12.750  13.378  0.0733  0.3840 -0.1801
15930W        W32004   4.634  16.481   5.321  0.3797 -0.0029  0.2407
15931W        W32005   0.649  10.003  14.316  0.1630 -0.0725 -0.1608
15932W        W32006   9.633   7.244  13.945 -0.1348 -0.1461  0.1425
15933W        W32007  15.832  13.015  13.020  0.3018  0.0861 -0.3168
15934W        W32008   7.843   3.426   3.837 -0.0854 -0.0709 -0.2342
15935W        W32009   1.154   3.291  11.955  0.1742 -0.0678 -0.2355
15936W        W32010   5.444   7.127  11.993 -0.1445 -0.0756  0.0453
15937W        W32011  11.100  17.800   1.770 -0.3135 -0.0206  0.0370
15938W        W32012   2.514  11.267   1.679 -0.0491  0.1760 -0.1348
15939W        W32013   3.346   2.263   2.200  0.0960 -0.1355 -0.2603
15940W        W32014   5.786   5.033  13.013 -0.3072  0.1246 -0.2218
15941W        W32015   0.270   9.943   2.485  0.1563  0.0171 -0.0443
15942W        W32016  12.111  12.755   4.053  0.5659  0.0954  0.0503
15943W        W32017   1.280   0.329   4.203 -0.3175 -0.1174  0.2765
15944W        W32018   7.285  11.772   3.764 -0.0761 -0.0247 -0.1036
15945W        W32019   5.097  14.600  14.572  0.2571  0.1157 -0.0143
15946W        W32020   8.389   6.816   1.599  0.1292 -0.2101  0.1415
15947W        W32021   0.373   4.149  14.208 -0.0219  0.0578  0.0000
15948W        W32022   4.918  15.580  11.730  0.2601  0.0718  0.0972
15949W        W32023  10.008  11.648   1.117 -0.2348  0.0051  0.1904
15950W        W32024   9.460   8.931   1.901 -0.1482 -0.2280 -0.1032
15951W        W32025   3.455  16.602  12.634  0.0414  0.0352 -0.1834
15952W        W32026  14.753  17.208  13.126  0.2880  0.0455  0.3148
15953W        W32027   6.167   3.251   3.254 -0.0019  0.3996 -0.1099
15954W        W32028   5.039   0.406  14.444  0.1617  0.1603 -0.1213
15955W        W32029  10.283   9.573   2.613 -0.0450  0.0247 -0.1502
15956W        W32030   2.988  15.638   5.978 -0.4934  0.2344  0.0336
15957W        W32031  17.332   4.960  15.184  0.0180  0.1387  0.0366
15958W        W32032   5.151   9.452   5.441  0.0878 -0.1699  0.1268
15959W        W32033  16.897   7.036   4.451  0.1133  0.1180  0.0621
15960W        W32034  10.263   3.081  13.142  0.2018 -0.3725 -0.1149
15961W        W32035   7.186  11.723   0.547 -0.0406 -0.1068  0.1148
15962W        W32036  10.301   8.835   4.345  0.0049 -0.0919  0.0215
15963W        W32037  10.651   3.862  13.430  0.1213 -0.1481  0.0483
15964W        W32038  16.998  12.023  13.239 -0.1281 -0.1295 -0.2209
15965W        W32039  11.882   5.517  15.691 -0.0281 -0.1325  0.1629
15966W        W32040   4.733   4.733   4.478  0.0407  0.0169  0.0761
15967W        W32041  11.024   3.040  13.843 -0.1428  0.0457  0.2343
15968W        W32042  10.916  17.317  13.807  0.1033 -0.0913 -0.0147
15969W        W32043  15.967   7.031   4.494 -0.1963  0.0858  0.1363
15970W        W32044   7.320   3.156  13.836 -0.0095 -0.0039  0.0181
15971W        W32045  14.777   1.431  14.096  0.0538  0.1120 -0.0475
15972W        W32046  15.222   5.208   3.542  0.1496  0.3132 -0.1521
15973W        W32047   4.942   0.988   2.203  0.1024 -0.0481 -0.0625
15974W        W32048   3.595   7.560  16.904 -0.1043  0.0856  0.1366
15975W        W32049   6.024   2.455  14.703 -0.0411  0.2174 -0.0560
15976W        W32050  12.313  11.810  13.781  0.0495  0.1278 -0.2131
15977W        W32051   6.199   8.403   1.689 -0.0507  0.1052  0.1777
15978W        W32052   6.982  10.821  16.258  0.2911  0.1993 -0.4400
15979W        W32053   5.621   9.539   1.721  0.3236 -0.0206 -0.1611
15980W        W32054   4.332   8.416   5.947  0.2159  0.0750 -0.0377
15981W        W32055   9.018   9.537   2.044  0.1643  0.0219  0.1032
15982W        W32056  15.795  13.658   5.256  0.2466 -0.1830 -0.0338
15983W        W32057  16.224   5.308   2.251 -0.2818 -0.1667  0.0508
15984W        W32058   1.170   4.945   4.670 -0.1696 -0.1748 -0.0050
15985W        W32059  11.905  16.018  15.174  0.4112  0.0401  0.0789
15986W        W32060  11.992  15.953   4.077  0.4056  0.0937  0.1423
15987W        W32061   2.976  13.985   3.007 -0.1149 -0.1073  0.0091
15988W        W32062   2.512  11.508  12.727 -0.1372  0.0405 -0.3599
15989W        W32063  11.208   0.834  13.052  0.0187 -0.0947  0.0265
15990W        W32064  10.810   8.407   6.409  0.1569 -0.3611  0.1390
15991W        W32065   1.960   0.514   1.866 -0.1542 -0.3062  0.0101
15992W        W32066  15.413   1.705   5.201  0.1676 -0.1233 -0.1985
15993W        W32067  14.783  11.638  12.357 -0.1776 -0.0875  0.3075
15994W        W32068   0.473  12.298   3.615 -0.1575 -0.2604  0.1356
15995W        W32069  10.391   2.749   2.370  0.1181  0.4378  0.1247
15996W        W32070  13.730   8.556  12.976 -0.3941 -0.3487  0.1221
15997W        W32071   6.832   7.395  12.467 -0.2016 -0.2223 -0.2075
15998W        W32072  10.437  16.511   4.073  0.1380  0.0939 -0.1314
15999W        W32073   4.097  10.925   3.903 -0.2493 -0.1223  0.2242
16000W        W32074  15.045   5.417  14.942 -0.3399  0.2519 -0.2356
16001W        W32075   0.646   3.319   1.770  0.2244 -0.1096 -0.1416
16002W        W32076   7.687  12.670   3.464  0.0801  0.0235 -0.1829
16003W        W32077  15.641   9.789   3.345  0.0496  0.0864  0.0695
16004W        W32078  13.928   4.177   1.524 -0.1250 -0.3168 -0.0500
16005W        W32079   5.645  16.354  13.995  0.0675  0.1385  0.0983
16006W        W32080   0.990  15.821  11.481 -0.0387 -0.0187 -0.1233
16007W        W32081  14.173   8.745  12.917 -0.3494 -0.0962  0.2838
16008W        W32082  10.014  14.364   4.410  0.0770 -0.1641  0.0167
16009W        W32083  16.525  10.349   1.721  0.0234  0.1494 -0.3431
16010W        W32084  13.121  11.316  14.962  0.2135 -0.1661 -0.0539
16011W        W32085   0.639   4.515   2.098  0.1289  0.2128  0.1133
16012W        W32086   6.041   0.240   5.298 -0.1966 -0.1725  0.3256
16013W        W32087  11.847  13.755  11.780  0.2119 -0.0120  0.0384
16014W        W32088   4.153  11.974  15.011 -0.1319 -0.0299  0.1638
16015W        W32089  13.697  14.643  15.755  0.3085  0.2425 -0.0993
16016W        W32090  12.304   6.962  14.212  0.2941 -0.2880  0.0797
16017W        W32091  10.802   0.803  15.815 -0.0863  0.1378 -0.0019
16018W        W32092   8.315  10.733   0.148 -0.2211  0.0460  0.0484
16019W        W32093   6.158  13.690  16.780  0.0705 -0.0862 -0.1328
16020W        W32094   7.330  10.822   3.266 -0.2202 -0.2368  0.2487
16021W        W32095   4.165  12.298   4.370  0.0609  0.2023  0.0738
16022W        W32096  12.514  16.674   0.794 -0.3462 -0.0656 -0.1123
16023W        W32097   4.199   3.797  15.749 -0.0754 -0.0552 -0.0693
16024W        W32098   9.935  10.905  12.449 -0.2169 -0.2437  0.0543
16025W        W32099  13.720   4.917   4.960  0.0400 -0.0617  0.0627
16026W        W32100   2.620  16.654  13.807  0.0291 -0.1074 -0.1247
16027W        W32101  14.475   0.117   0.106 -0.1793  0.0585  0.0369
16028W        W32102  13.443  17.059  16.052 -0.3976 -0.1936  0.0246
16029W        W32103   5.534   1.745  11.833  0.2594  0.1524 -0.2003
16030W        W32104   9.742   3.142   5.214  0.2382  0.0307 -0.1414
16031W        W32105  14.466   3.451  15.743 -0.1961  0.1908 -0.0606
16032W        W32106   5.747   2.501   3.747  0.1530  0.4500  0.2486
16033W        W32107   2.790  11.863  16.031  0.4572 -0.0331 -0.3116
16034W        W32108   2.698   2.816  14.245  0.1111 -0.0787  0.1990
16035W        W32109  10.322   8.514  14.668  0.0535 -0.0156 -0.2150
16036W        W32110   8.586  10.268  13.696 -0.0456  0.2025 -0.1045
16037W        W32111   5.201   0.699   4.898  0.0486 -0.1799  0.3481
16038W        W32112  11.075  15.082  15.132  0.1198  0.1391  0.0053
16039W        W32113   1.789   2.304  15.010  0.1327  0.0329  0.3109
16040W        W32114  12.549  14.767  16.707 -0.0086 -0.3470 -0.0232
16041W        W32115   8.675   8.267  14.239  0.1113  0.3426 -0.4217
16042W        W32116   1.370   6.520   4.145 -0.2266 -0.2857  0.0152
16043W        W32117  10.497   2.952   1.349 -0.0667 -0.1221 -0.2239
16044W        W32118   5.381  14.168  13.556 -0.0786  0.0935 -0.0217
16045W        W32119   8.505   4.679   0.861 -0.1521 -0.1869 -0.0521
16046W        W32120  16.931  12.843   0.467  0.2048 -0.0316  0.0389
16047W        W32121   3.761   1.802   0.736 -0.1273 -0.1928  0.2901
16048W        W32122  17.846   3.552   2.406 -0.1199  0.0233 -0.0064
16049W        W32123  11.572   0.334  12.233  0.2626 -0.2270  0.1740
16050W        W32124  17.722  11.033  12.071 -0.0524  0.1099  0.0023
16051W        W32125   6.657   3.051   3.188 -0.1370 -0.0202  0.1579
16052W        W32126   5.646   4.236   2.190  0.0875 -0.0489  0.1038
16053W        W32127   5.979  16.867   0.180 -0.0519  0.1398 -0.1243
16054W        W32128  13.459  12.092   4.294  0.0490 -0.0669 -0.2865
16055W        W32129  17.705  15.684   1.592 -0.1660  0.0253  0.0363
16056W        W32130   7.407  17.696   3.623 -0.0748  0.0176 -0.0701
16057W        W32131   5.714   0.492   2.028 -0.3755  0.3672 -0.1232
16058W        W32132   0.720  15.242   5.093  0.1360  0.1359 -0.0219
16059W        W32133   5.213   9.148   0.100  0.0255 -0.2295 -0.2522
16060W        W32134  15.739   1.541  12.584 -0.1132 -0.0943 -0.0142
16061W        W32135  12.767  13.359   0.460 -0.0586  0.1110 -0.0580
16062W        W32136  15.903  13.173   5.475  0.0853 -0.0052  0.1195
16063W        W32137   2.299  15.779  12.841  0.1110  0.2075  0.0804
16064W        W32138  14.848  12.414  13.583  0.1977 -0.4128  0.1919
16065W        W32139   3.173  17.736   5.456  0.0494 -0.0652 -0.1591
16066W        W32140   2.580   7.058   6.362  0.1837 -0.0365  0.2061
16067W        W32141   7.724   9.569   2.116 -0.3977  0.0520 -0.1559
16068W        W32142   4.349   0.468  14.243  0.0271  0.1119  0.3937
16069W        W32143   2.258  14.357  16.758  0.1432  0.3227 -0.1622
16070W        W32144  14.927   2.575  16.851 -0.0009 -0.1478  0.1951
16071W        W32145  12.027   6.741  15.758 -0.2446 -0.1223  0.0699
16072W        W32146  15.688   7.007  15.785 -0.1761  0.0179  0.2183
16073W        W32147   7.336   8.102  15.231 -0.5263 -0.0227 -0.1825
16074W        W32148   2.833  15.568   1.638 -0.0607 -0.1774  0.0372
16075W        W32149  13.679   7.396   2.846  0.4702  0.1431  0.2071
16076W        W32150  10.053  13.752   4.634  0.1610 -0.1707 -0.1086
16077W        W32151   6.566   3.127  13.276 -0.1601 -0.4701  0.1625
16078W        W32152  13.152  11.774   1.830  0.4678 -0.1915 -0.3499
16079W        W32153  14.290   1.770  15.916 -0.1143  0.0697 -0.2072
16080W        W32154   4.183   0.926   5.481  0.1478  0.2995  0.0965
16081W        W32155   2.326   2.293  11.957 -0.1794 -0.2681  0.0062
16082W        W32156  11.652   3.240  12.551  0.4069 -0.1366  0.3176
16083W        W32157   1.064   3.755  15.725  0.3213 -0.0351 -0.2301
16084W        W32158   4.586  15.670  13.127 -0.2416  0.2114 -0.0513
16085W        W32159  10.175  15.770  13.310 -0.1600  0.3821  0.1041
16086W        W32160  10.766  17.065  14.269  0.2032  0.1992 -0.1310
16087W        W32161   4.326  15.810   4.028  0.0098  0.0163 -0.3180
16088W        W32162  17.754   2.559  14.834  0.0994 -0.0582  0.1329
16089W        W32163   5.947   6.439  12.727 -0.0007 -0.1634  0.1180
16090W        W32164   2.061   6.038  13.511  0.0287 -0.0525  0.0269
16091W        W32165   9.869  12.707  16.732 -0.0319  0.1963  0.0322
16092W        W32166  16.784  13.696   0.160  0.0420 -0.1274  0.4648
16093W        W32167  10.596  12.949  16.145 -0.2833  0.3032 -0.3734
16094W        W32168  16.765   0.454  13.832  0.0692 -0.2737  0.1351
16095W        W32169   7.641   2.576  11.514 -0.1553  0.3383  0.0919
16096W        W32170   8.519   5.138  14.856  0.1352 -0.1731  0.0409
16097W        W32171  15.735  13.515   4.311 -0.0149 -0.0378  0.1344
16098W        W32172   8.246  11.055   3.376 -0.2667  0.3429 -0.3937
16099W        W32173  17.095  11.322   6.035 -0.0457  0.0363  0.1333
16100W        W32174   0.438   4.148   3.995  0.0547 -0.1700  0.1044
16101W        W32175   9.875  13.930   3.339  0.0061 -0.0663 -0.2815
16102W        W32176  17.307  14.334   6.055 -0.3511 -0.0118  0.3286
16103W        W32177   1.887  17.383   4.075 -0.0288  0.1102  0.1670
16104W        W32178   8.551   1.862  12.282  0.1119 -0.0059 -0.0595
16105W        W32179   0.234  12.247   0.107 -0.2327  0.0260  0.3050
16106W        W32180   7.562  13.466  14.931 -0.0170 -0.2398 -0.2600
16107W        W32181   9.579   4.592  11.934  0.3000 -0.1329 -0.0578
16108W        W32182   2.255   7.430   0.406 -0.0368  0.4401  0.2083
16109W        W32183  12.930   4.557  15.766  0.0183  0.1133  0.0116
16110W        W32184   8.528  16.881  15.115  0.0277 -0.2479  0.2295
16111W        W32185   2.516   7.833   4.862  0.3971 -0.0706 -0.1694
16112W        W32186  11.738  13.169  13.633  0.3879 -0.0764 -0.0570
16113W        W32187  16.068   4.988   1.395 -0.1661  0.0671  0.1157
16114W        W32188   0.451   9.611  16.454  0.1159  0.1180  0.3524
16115W        W32189   2.255   4.163  16.391  0.0634 -0.1402 -0.1882
16116W        W32190  11.442   7.836  16.397  0.1366 -0.1407 -0.0026
16117W        W32191  13.643   8.807   0.173 -0.1736 -0.0890 -0.2090
16118W        W32192   9.940  17.085   2.858  0.0077 -0.1157  0.1536
16119W        W32193  15.305   8.076  13.235 -0.1237  0.0459 -0.1181
16120W        W32194  16.888  17.248  12.443  0.1921 -0.0479  0.0941
16121W        W32195   3.196  11.819   2.540  0.3848  0.1277  0.0594
16122W        W32196  15.334   6.301   1.220 -0.1966 -0.2142  0.1059
16123W        W32197  16.614  12.424   0.480  0.0304 -0.0131  0.2183
16124W        W32198  15.693   2.272   3.878 -0.1234  0.0405  0.0101
16125W        W32199  14.754  15.048  13.001  0.0762  0.0268  0.1541
16126W        W32200  15.759  12.656  15.277 -0.1394  0.0091  0.1292
16127W        W32201  10.791   0.257   3.403  0.1002  0.1067  0.0599
16128W        W32202   3.502  12.328   0.239 -0.0983 -0.0878  0.1144
16129W        W32203   0.103   1.083  16.531  0.0792 -0.1124 -0.2292
16130W        W32204   2.700  10.274   6.055 -0.2310 -0.3349  0.0588
16131W        W32205  15.377  12.189  12.193 -0.1717 -0.3695 -0.0110
16132W        W32206  16.269  10.755  12.122  0.0103 -0.2200  0.1388
16133W        W32207  14.513   2.320  16.868 -0.2169  0.1183 -0.0382
16134W        W32208   9.150   1.532   0.634 -0.2340 -0.1635 -0.1688
16135W        W32209  10.205   8.144  15.161 -0.1530  0.3229  0.1354
16136W        W32210   4.505   0.246   3.244 -0.0738  0.1727 -0.0333
16137W        W32211   6.816   4.414  15.504  0.0062 -0.0890 -0.2976
16138W        W32212  14.998   3.567  13.408 -0.1016 -0.1373 -0.2220
16139W        W32213   5.500   9.015   1.641  0.2442 -0.2126  0.3324
16140W        W32214  10.030  11.892   3.917  0.0538 -0.0102  0.0214
16141W        W32215   9.472   3.580   5.210  0.0318 -0.0076 -0.0754
16142W        W32216   8.456   7.941  15.609 -0.2814  0.3637  0.0702
16143W        W32217  17.767   6.081   5.306 -0.0137  0.0910  0.2188
16144W        W32218  10.979   1.369  13.051 -0.2397 -0.2199 -0.2098
16145W        W32219  13.024   1.842   1.950 -0.0639  0.0931 -0.2081
16146W        W32220  10.241   0.361  15.423  0.1513  0.0941  0.1043
16147W        W32221  12.579  12.505   4.196 -0.1143 -0.2096  0.0988
16148W        W32222  10.268   2.109  15.748  0.0562  0.1288  0.0721
16149W        W32223  14.936  12.006   2.441  0.1087  0.1488 -0.0163
16150W        W32224  16.401   4.130   1.851  0.0618 -0.1132  0.1914
16151W        W32225  14.914  17.839  16.886  0.0593  0.1184 -0.0704
16152W        W32226  12.151   9.138   6.435  0.1608  0.0693 -0.0998
16153W        W32227  11.701   0.978  13.774 -0.1537  0.1297 -0.1429
16154W        W32228   7.003  10.868   1.817 -0.0124  0.0344 -0.0912
16155W        W32229   3.578  13.165   2.069 -0.0621 -0.0765  0.0562
16156W        W32230  15.625  14.654  15.004  0.1622  0.0274 -0.0753
16157W        W32231   9.997   5.174  14.955  0.2637  0.0086  0.0840
16158W        W32232   7.879  16.914   5.493 -0.2282  0.1163  0.2969
16159W        W32233  12.165   8.813   3.784 -0.3071  0.0916  0.2010
16160W        W32234   4.899  14.211   0.090 -0.1603 -0.0103 -0.0110
16161W        W32235  10.385   8.211  16.899  0.1264  0.1749 -0.0104
16162W        W32236  10.723  17.667   0.001  0.1610 -0.0819 -0.2982
16163W        W32237   8.810  10.866  14.924 -0.0633 -0.2071 -0.1835
16164W        W32238  11.078   5.898   6.388 -0.0077  0.1291  0.6235
16165W        W32239   2.918  13.625  16.842 -0.0634 -0.0094 -0.0451
16166W        W32240  14.441   0.632   0.054 -0.1544  0.1623  0.0799
16167W        W32241   1.822  13.074  12.077 -0.2295 -0.2857  0.0151
16168W        W32242   2.048   9.645  13.277 -0.1222 -0.2350 -0.0089
16169W        W32243  13.023  14.490  16.800  0.3505  0.1507  0.0417
16170W        W32244  15.317  12.206  13.667  0.3331 -0.2435  0.1840
16171W        W32245   8.442   0.886   3.348  0.1108 -0.2465 -0.1352
16172W        W32246  11.404  14.854   5.178  0.0111 -0.0011 -0.1714
16173W        W32247  13.139  14.246   2.566  0.1034  0.0924  0.1320
16174W        W32248  12.446  13.588  14.130 -0.0270 -0.0919 -0.2495
16175W        W32249   1.420   9.906  13.683 -0.0747  0.0803 -0.0024
16176W        W32250  12.006  12.191   2.201 -0.0988  0.1109 -0.4009
16177W        W32251  12.870   0.594   5.976 -0.0781  0.0268  0.0347
16178W        W32252  10.304  13.784   5.769  0.1060  0.0029 -0.0840
16179W        W32253  13.064   5.087   2.450 -0.2945  0.3753 -0.2357
16180W        W32254  11.014   8.448   3.440 -0.1175  0.0775 -0.2130
16181W        W32255  10.665   1.742  16.058 -0.1001 -0.1530 -0.2152
16182W        W32256  15.398   9.546  15.414  0.1279 -0.1955  0.0014
16183W        W32257   4.588   1.827  16.888  0.1636  0.3474 -0.0910
16184W        W32258  13.072  11.055  16.699 -0.3391  0.1803 -0.0330
16185W        W32259  13.779   3.169  15.286 -0.1109 -0.2641  0.0804
16186W        W32260   3.189  11.144  11.793  0.0671 -0.2437  0.0551
16187W        W32261   0.168   7.146  13.394  0.1340 -0.0811 -0.3949
16188W        W32262  12.729  12.406  12.294  0.0162 -0.1491 -0.0765
16189W        W32263   7.145   1.765  16.497 -0.1146  0.0263  0.0991
16190W        W32264  15.309   4.843   4.906 -0.2127  0.3127  0.0668
16191W        W32265   0.457   7.823   5.574  0.5026 -0.0152 -0.0920
16192W        W32266  16.776  13.593   4.422 -0.2150  0.1135 -0.3083
16193W        W32267   6.730   8.280   0.364 -0.1413  0.0518 -0.2786
16194W        W32268   6.334   9.697   1.316  0.2956 -0.2653  0.0814
16195W        W32269  15.635  11.882  12.491 -0.0263 -0.0815  0.0823
16196W        W32270   4.159  10.180  11.974  0.0472  0.4070  0.4059
16197W        W32271  12.633  13.127  14.100 -0.0496  0.0824 -0.1878
16198W        W32272  10.921   0.032  13.793 -0.1126 -0.2142  0.0148
16199W        W32273  15.866   6.386   0.943  0.0535 -0.0965  0.3109
16200W        W32274   5.896  14.370   2.319  0.0907 -0.0479  0.1501
16201W        W32275   3.096  13.627   1.646 -0.1485  0.0288  0.1479
16202W        W32276   2.771   4.895   4.175  0.1739  0.3118  0.0050
16203W        W32277   0.250  15.940  10.914  0.1906 -0.1997  0.3217
16204W        W32278  13.573  10.667   2.887 -0.1226 -0.2166 -0.2567
16205W        W32279  14.597   3.961  15.750 -0.1749 -0.3444 -0.1017
16206W        W32280   3.995  13.543  15.341 -0.2609  0.0936  0.2994
16207W        W32281   4.997   6.560   5.782 -0.2719 -0.0931  0.1576
16208W        W32282  12.903   4.848  15.008  0.3750 -0.1162  0.0755
16209W        W32283   6.501   6.340   3.530  0.0598  0.1324  0.0518
16210W        W32284   8.358   7.823   0.999 -0.0456 -0.0988  0.0746
16211W        W32285   0.400   2.109   4.920 -0.0214 -0.2118 -0.1310
16212W        W32286  16.064   3.530   3.820 -0.0983 -0.1389 -0.1766
16213W        W32287  12.704   5.965  12.746 -0.0549  0.0931  0.4400
16214W        W32288  10.130  12.171   2.573 -0.1893 -0.0647  0.2428
16215W        W32289   7.635  11.691  16.042 -0.0114  0.0698  0.2119
16216W        W32290  15.083   7.479   0.807 -0.2967  0.0199 -0.4274
16217W        W32291  14.319  12.919  15.162 -0.0936  0.0863 -0.1327
16218W        W32292   6.909   9.063  14.452 -0.1134  0.0052  0.6461
16219W        W32293  16.238   7.141  12.950  0.2066  0.1034 -0.3387
16220W        W32294   7.834   1.215   0.484  0.2848 -0.0914  0.2164
16221W        W32295   9.340   6.283  14.371  0.0555  0.0187  0.1443
16222W        W32296   8.451   6.285   2.500  0.1813  0.1788 -0.0851
16223W        W32297   6.468  11.983   2.517 -0.0753  0.0195 -0.0603
16224W        W32298   0.967  17.090  15.693  0.0604  0.0428 -0.0006
16225W        W32299  13.186  13.116   4.537 -0.2061  0.0041  0.1913
16226W        W32300   1.797  16.410   1.966 -0.2495  0.0070  0.2830
16227W        W32301  17.155   6.870   1.763 -0.1847  0.2157  0.2015
16228W        W32302   2.169   0.435   4.384 -0.3739  0.0323  0.0976
16229W        W32303   2.343  11.013  16.683  0.0549  0.1307  0.2765
16230W        W32304   8.524   7.129  15.147  0.1133  0.0936 -0.6287
16231W        W32305  15.235  17.251  16.354 -0.0389 -0.1881 -0.1688
16232W        W32306   7.194   7.730   2.155  0.2338  0.0496  0.1386
16233W        W32307  10.071   6.472  12.947  0.0609 -0.1703  0.3107
16234W        W32308   9.740   9.233   3.338  0.0882  0.4126 -0.1810
16235W        W32309  11.864   7.820   1.787 -0.1879 -0.4025  0.0736
16236W        W32310  10.577  14.805  15.989  0.1431 -0.0546  0.0303
16237W        W32311  13.492   6.406  12.055  0.1524 -0.0018 -0.0728
16238W        W32312  10.702   2.065  15.076  0.0145 -0.1266  0.3204
16239W        W32313   2.651  15.249   2.567  0.3479  0.0725 -0.0363
16240W        W32314   3.158   3.655   2.863 -0.0222 -0.1012 -0.0458
16241W        W32315   3.658   4.841   5.216  0.1079  0.0029  0.1367
16242W        W32316  12.606   5.317   2.543 -0.1711 -0.0212 -0.1750
16243W        W32317  13.330   4.322  11.627  0.0696  0.1709  0.0840
16244W        W32318  17.352  12.526   3.758  0.0955  0.0212 -0.2467
16245W        W32319   1.409   8.177   4.891  0.3449  0.0684  0.0876
16246W        W32320  11.104  17.090   3.841 -0.1569  0.1333  0.3970
16247W        W32321  16.403   4.614  14.352  0.0359  0.2385  0.2279
16248W        W32322   7.405  10.241   0.864 -0.3704 -0.0012  0.1058
16249W        W32323   1.778  13.468   2.551  0.3680 -0.1000 -0.2079
16250W        W32324   1.852   9.265  15.254  0.2812  0.0294  0.2592
16251W        W32325   1.557   4.963  14.499  0.0781  0.0126 -0.1971
16252W        W32326   7.131   5.532   0.635  0.2877  0.1025 -0.2885
16253W        W32327   5.143  15.329   1.347  0.1517  0.2987 -0.1165
16254W        W32328   1.554   5.434   0.931 -0.3945  0.3542 -0.1720
16255W        W32329   6.396  12.291   0.245  0.1408  0.0472 -0.0834
16256W        W32330  13.197  11.720  11.920  0.0485  0.1159 -0.1169
16257W        W32331   5.338   9.365  15.140  0.0616 -0.1064 -0.1985
16258W        W32332   0.903   6.482  14.169  0.2290 -0.1636 -0.2443
16259W        W32333  16.448  13.521   3.491  0.2512 -0.0331  0.1297
16260W        W32334  12.850   0.800  13.841 -0.2532  0.1111  0.1305
16261W        W32335   2.591   5.419  13.222  0.0744  0.4250 -0.0873
16262W        W32336   9.069  10.287  15.993 -0.2436 -0.0420 -0.3590
16263W        W32337   3.374  12.693  13.664  0.1717  0.1131  0.1951
16264W        W32338   1.000   2.642  12.600 -0.1065 -0.2481  0.1331
16265W        W32339   8.441   1.677  15.059  0.0110 -0.1093  0.1960
16266W        W32340   7.562   8.597  11.922  0.1232  0.1820 -0.3929
16267W        W32341   1.244  12.027  16.663  0.0566  0.2041 -0.0615
16268W        W32342  13.784  12.932  14.960  0.1747 -0.0086  0.1080
16269W        W32343   7.664  12.611  12.689 -0.0953  0.1598  0.2450
16270W        W32344   3.939  15.445   5.552 -0.0593 -0.0531 -0.0717
16271W        W32345   6.090  14.054   1.269 -0.2626  0.0709  0.0757
16272W        W32346  13.987   4.137  12.821  0.0525  0.0491 -0.1382
16273W        W32347  16.311   6.631  15.320 -0.0655  0.0428  0.2301
16274W        W32348   0.906  16.554  12.244  0.3716 -0.6961  0.1271
16275W        W32349  12.708   6.628  13.622 -0.0401  0.0764  0.0902
16276W        W32350   3.261   1.832   3.999 -0.0085 -0.0820 -0.0050
16277W        W32351  12.112  15.599  13.780 -0.2391  0.1013  0.1195
16278W        W32352   3.900   5.974   1.709  0.1036  0.0843  0.2028
16279W        W32353  17.219   5.609   2.434 -0.1181  0.0034 -0.2131
16280W        W32354  10.190   5.286   0.493 -0.0159  0.1824  0.2512
16281W        W32355  11.984   1.483   4.373  0.1203 -0.3426  0.1863
16282W        W32356   8.002   5.927   3.274  0.0232  0.3807 -0.0043
16283W        W32357  13.706  12.319   0.291 -0.1550  0.0506  0.0344
16284W        W32358  17.489  12.765   3.359  0.1127 -0.2719  0.0156
16285W        W32359  12.655   4.246   2.735 -0.3954  0.2360 -0.3143
16286W        W32360   8.361  17.498   4.680  0.2855 -0.0376  0.1601
16287W        W32361  16.505   8.553  16.263 -0.1250  0.2613 -0.0181
16288W        W32362   1.120   4.788  12.591 -0.1328  0.0043  0.1071
16289W        W32363   6.515  17.246  12.899 -0.4878  0.1154  0.0731
16290W        W32364   1.017  17.290   5.809 -0.1558 -0.1244 -0.0219
16291W        W32365  16.789   4.395  15.653 -0.0980 -0.2069 -0.1134
16292W        W32366  10.741  16.936   1.748 -0.0317  0.0667  0.1352
16293W        W32367   9.472   5.673   1.629 -0.2520 -0.0478 -0.1214
16294W        W32368   4.929  11.286  11.735  0.0715  0.0056 -0.0025
16295W        W32369  12.004  16.119   1.253  0.0607 -0.3332 -0.0268
16296W        W32370   7.363  12.341   5.437 -0.1089 -0.3723  0.1374
16297W        W32371   9.259   2.578   2.302  0.0993  0.0181 -0.1555
16298W        W32372   0.068   2.157   0.043  0.2339 -0.0263 -0.0685
16299W        W32373  14.428  16.267   0.922 -0.0400 -0.3060  0.3007
16300W        W32374  11.963   3.699   3.414 -0.1077  0.0228 -0.0204
16301W        W32375  15.183  17.441   1.247  0.3364 -0.0023 -0.0194
16302W        W32376  15.850   6.175   4.749 -0.3050  0.1469 -0.5370
16303W        W32377   1.044  14.893   4.694  0.0570  0.0561 -0.0833
16304W        W32378   7.579  14.452  10.550  0.0599 -0.3101 -0.2607
16305W        W32379   4.543   9.968  16.590  0.2457 -0.1293  0.2633
16306W        W32380   8.210   8.229   4.555  0.0795  0.0661  0.2143
16307W        W32381   5.059  10.055   3.312  0.1779  0.0852 -0.0062
16308W        W32382   4.653   7.524   1.500 -0.3393 -0.4138  0.0527
16309W        W32383   6.911  15.312   2.237  0.0639  0.3715 -0.2920
16310W        W32384  13.605   6.397  16.212 -0.1666  0.2516 -0.0679
16311W        W32385   3.649   9.185  13.163  0.0094  0.0413 -0.3654
16312W        W32386  15.523   4.936   2.724 -0.0919 -0.5333  0.0748
16313W        W32387  12.897   6.485   0.995  0.0621  0.2124 -0.2073
16314W        W32388   0.920   1.451   4.825 -0.1243 -0.0501  0.0551
16315W        W32389  12.764  16.317  16.143  0.3412  0.1140  0.2498
16316W        W32390  13.297   6.431   0.421 -0.0243 -0.2771 -0.3043
16317W        W32391   5.400   0.379  11.729 -0.3056  0.1481 -0.1615
16318W        W32392  10.240  12.364   4.488 -0.1228  0.0193 -0.1237
16319W        W32393   4.896   1.428  16.717 -0.0245 -0.1258 -0.0608
16320W        W32394   7.614   4.403  16.777  0.0167 -0.1061  0.1009
16321W        W32395   8.168  13.739   6.321  0.0164 -0.1410 -0.0529
16322W        W32396   0.106   0.912  13.585  0.1101 -0.0559  0.3561
16323W        W32397  10.127   9.718   5.870  0.2198  0.2319  0.0849
16324W        W32398  14.550  13.833   5.374  0.3030 -0.1051  0.3120
16325W        W32399   7.055   1.593  14.218  0.2771 -0.1010 -0.3669
16326W        W32400  11.094   1.218  15.013 -0.0429  0.0052  0.2282
16327W        W32401   8.363   2.627  13.043  0.2786 -0.1382 -0.0207
16328W        W32402  12.722   0.214  13.176  0.0877 -0.0787 -0.1240
16329W        W32403   1.510  13.708   0.135  0.2591 -0.1939 -0.0737
16330W        W32404   6.580  13.084   3.903  0.0107 -0.1947 -0.2939
16331W        W32405   8.038   4.139  16.568  0.0018 -0.0198 -0.1325
16332W        W32406   4.872   9.806  14.353  0.0657 -0.0452  0.0425
16333W        W32407   5.118   5.409  12.070 -0.0153 -0.2122 -0.1693
16334W        W32408   1.495   3.728  16.421  0.1614 -0.0506  0.3458
16335W        W32409  11.935   4.424   1.723 -0.4646 -0.0319 -0.0108
16336W        W32410  10.537   0.644   1.245 -0.1545 -0.1480  0.0858
16337W        W32411   8.532  17.613  13.517 -0.1044 -0.1050  0.0958
16338W        W32412  17.600   8.643  15.955 -0.0976  0.3080 -0.0449
16339W        W32413   0.862  17.734   2.691 -0.1726 -0.2466  0.1287
16340W        W32414  17.021  16.336  12.821  0.0930  0.0407  0.2907
16341W        W32415   9.983   8.755  13.191 -0.1009  0.0317 -0.2378
16342W        W32416  15.624   8.674  14.941  0.2589 -0.2379 -0.0908
16343W        W32417   7.437   8.446   3.753  0.3935 -0.1420  0.1381
16344W        W32418   0.659   9.326  12.645  0.0919  0.0750 -0.1497
16345W        W32419   8.532  10.118  11.483 -0.0531  0.0297 -0.2728
16346W        W32420  13.168   2.533  15.327 -0.3872  0.3660 -0.0405
16347W        W32421   7.161   3.456  13.436  0.0137 -0.0746  0.0516
16348W        W32422  11.596   3.693   1.416  0.1927  0.1732  0.0497
16349W        W32423   6.975   5.824   2.146  0.3307 -0.2711 -0.0787
16350W        W32424  14.493  14.538  16.473 -0.0264 -0.0116  0.0086
16351W        W32425  12.835   3.113   3.322  0.1359 -0.0082 -0.2304
16352W        W32426   8.115   3.658  14.660  0.2369 -0.0397  0.3917
16353W        W32427  10.861   2.047  13.440 -0.1114 -0.3468  0.0004
16354W        W32428   5.715   7.641   0.555  0.1955  0.0423  0.1052
16355W        W32429  12.781   7.094   4.259 -0.0117  0.1991 -0.1013
16356W        W32430  13.234  10.904   4.714 -0.0484 -0.0357  0.0567
16357W        W32431   0.703  17.600  15.404 -0.5108  0.0381  0.1833
16358W        W32432  13.077  14.005  11.720 -0.3735  0.2852  0.2889
16359W        W32433   3.593   0.523   5.734 -0.1785  0.1357 -0.1001
16360W        W32434   1.169   5.871   3.559 -0.0270 -0.0155  0.0434
16361W        W32435   2.035  16.041   6.020  0.1751  0.1390 -0.2235
16362W        W32436  13.002   4.383  13.068 -0.0169  0.4613  0.2604
16363W        W32437  16.780   4.109  12.071  0.1188 -0.0484 -0.1203
16364W        W32438  14.285   8.723   3.591  0.3315 -0.4527  0.1003
16365W        W32439   9.083   5.185  15.825 -0.1521  0.2874  0.0701
16366W        W32440  13.464  16.943   3.358 -0.0956 -0.0966  0.1185
16367W        W32441   5.647  10.061   3.769 -0.3187 -0.0226 -0.0818
16368W        W32442   1.079   5.827  15.217 -0.4374 -0.0619  0.4008
16369W        W32443  17.012   5.946   2.841  0.1101  0.0615  0.1459
16370W        W32444   9.762  10.878   2.926  0.0675  0.1596  0.0256
16371W        W32445   1.586  10.818  15.768  0.0560 -0.1425 -0.1542
16372W        W32446   8.306  13.205  12.057  0.0431 -0.0883 -0.1117
16373W        W32447  15.488   0.603  16.343  0.0170  0.2932  0.2424
16374W        W32448   5.821   5.078  15.068 -0.0799  0.3361 -0.1259
16375W        W32449   6.222  12.902   5.598 -0.0805  0.0017  0.0028
16376W        W32450  13.569   8.336  15.808  0.3366 -0.2203  0.3248
16377W        W32451   2.349   3.703  16.790 -0.1140 -0.0724  0.0147
16378W        W32452   1.054   5.715   1.277  0.1653  0.1285 -0.0143
16379W        W32453   0.663  10.135  15.548 -0.1333 -0.2000 -0.1756
16380W        W32454   7.249  17.098   3.021  0.3892 -0.0570  0.1080
16381W        W32455  16.562   8.999  14.026 -0.2045  0.4546 -0.1325
16382W        W32456   3.425   7.145  13.168 -0.0054 -0.3274  0.1433
16383W        W32457   4.467  12.356  15.251 -0.2205  0.2246  0.0023
16384W        W32458  11.578  14.369   3.229  0.1068 -0.2650  0.1458
16385W        W32459   5.656   7.195  15.135  0.1004  0.3067 -0.0628
16386W        W32460   2.482   5.703   1.622  0.0904  0.1175 -0.0931
16387W        W32461  16.587   6.280  12.828  0.2974  0.0385 -0.5022
16388W        W32462   3.853   9.728  14.584  0.1928 -0.2477 -0.0098
16389W        W32463   8.748   1.734   2.079 -0.1107 -0.0587  0.0019
16390W        W32464   3.754   8.414   0.825  0.2740  0.0767  0.0177
16391W        W32465   1.863   8.234   1.890 -0.0271  0.3750 -0.3349
16392W        W32466   5.513  10.369  14.987  0.2467  0.0179  0.2581
16393W        W32467  14.288  15.808   3.409  0.4823 -0.0214 -0.1293
16394W        W32468  14.003   6.230   3.794 -0.1049  0.2368 -0.0176
16395W        W32469  11.693   5.287  14.620  0.0295  0.0354  0.0865
16396W        W32470   7.445  12.320   3.098 -0.1169  0.1565 -0.3733
16397W        W32471  14.460   0.061  13.507  0.2267 -0.3162  0.1331
16398W        W32472   6.496  11.200   3.239 -0.1070  0.1098  0.1682
16399W        W32473   0.608   0.871  15.811 -0.1224 -0.0304 -0.1337
16400W        W32474  10.260   6.311   5.420 -0.1445 -0.2269 -0.1697
16401W        W32475  12.190   6.257   4.652  0.1003  0.0137  0.0399
16402W        W32476   0.996  14.436   1.820 -0.1836  0.4265 -0.1820
16403W        W32477  10.103  16.187  13.769  0.0099  0.0216  0.0210
16404W        W32478   0.187   1.593   3.638  0.1690 -0.0399  0.2985
16405W        W32479  14.381  10.411  12.034 -0.2099 -0.2614  0.2253
16406W        W32480  17.186  14.776   2.306 -0.3346 -0.1206  0.0270
16407W        W32481   3.426  15.738  15.126  0.1636 -0.0975 -0.3432
16408W        W32482   0.753   8.679  12.254 -0.1051  0.1762  0.1161
16409W        W32483  13.625  15.559   4.581 -0.2986  0.2140  0.0295
16410W        W32484   6.082   1.672  11.763 -0.1003  0.2835  0.1901
16411W        W32485   0.011   2.460   4.751  0.1552 -0.0860 -0.3169
16412W        W32486   4.357  13.418   3.113 -0.0237  0.0177  0.3010
16413W        W32487  13.402  10.068  11.510 -0.0566  0.1142 -0.4838
16414W        W32488  17.441   3.280   3.070 -0.1528 -0.1191  0.0707
16415W        W32489  14.604  11.724   4.819  0.1319 -0.1843 -0.0293
16416W        W32490   0.229   6.877   0.343 -0.0400  0.1514  0.1420
16417W        W32491  12.143   1.420   1.437 -0.0612  0.3613 -0.1523
16418W        W32492  10.443   0.805  15.228  0.2005  0.0496 -0.0021
16419W        W32493  12.336  11.315  13.775  0.3133 -0.0378  0.2000
16420W        W32494  11.502   9.999   3.804  0.0667  0.2002  0.1273
16421W        W32495   1.299   6.434  13.226  0.0346 -0.2043 -0.2312
16422W        W32496   4.582   2.340  13.636  0.0805  0.0345  0.4075
16423W        W32497  15.309   4.244   1.962  0.0884 -0.0856  0.1690
16424W        W32498   2.624   4.154   3.498 -0.2433  0.3288 -0.1754
16425W        W32499   8.119  16.060  15.066 -0.0670  0.0014  0.0536
16426W        W32500   5.774  15.814   1.056 -0.0991  0.1321  0.0897
16427W        W32501  16.142   7.857   2.095 -0.1331 -0.1998 -0.1220
16428W        W32502  11.383  12.921   6.056 -0.2307 -0.0089  0.1415
16429W        W32503  11.502   5.239   4.636 -0.0754  0.3833  0.0639
16430W        W32504   9.765   9.283  16.745  0.3375  0.1752 -0.0783
16431W        W32505  12.076   3.536  13.265 -0.0108  0.1212  0.1452
16432W        W32506   2.340   9.409   1.395  0.2252  0.3160 -0.0280
16433W        W32507  17.591   2.841   3.949 -0.2417  0.1622 -0.0722
16434W        W32508   0.441  16.841  14.860 -0.3844 -0.0722  0.0284
16435W        W32509  11.617   2.209  11.609  0.0115  0.0935 -0.3106
16436W        W32510  13.666   1.897   5.545  0.0012 -0.0556 -0.1102
16437W        W32511  15.195   8.590   0.282  0.3606  0.0318  0.2265
16438W        W32512  10.419   6.632  13.331 -0.0872 -0.0014 -0.0398
16439W        W32513  12.622   6.222   2.887 -0.1401 -0.1998  0.0471
16440W        W32514   0.614  16.311  16.197 -0.1375 -0.0870 -0.0243
16441W        W32515   4.624  10.637   0.392  0.0449  0.3280  0.1124
16442W        W32516  10.584   8.511   5.509  0.3537  0.0946  0.2584
16443W        W32517   6.484  12.530  11.581  0.3052 -0.2422 -0.0367
16444W        W32518  16.149   7.186  16.009 -0.0049 -0.1642  0.0009
16445W        W32519   6.342  14.393   5.544  0.0211 -0.0266 -0.2185
16446W        W32520   7.700  16.687  16.281 -0.0303 -0.1123 -0.1658
16447W        W32521   4.858   6.659  15.242 -0.2473 -0.0774 -0.0174
16448W        W32522   1.861  12.943   0.078  0.1247 -0.1912 -0.2329
16449W        W32523   8.016  10.730   5.284  0.0646 -0.0512  0.0676
16450W        W32524  15.107   1.970   4.425 -0.5069  0.0318 -0.0832
16451W        W32525  15.433   9.445  11.948  0.0253  0.1184 -0.0584
16452W        W32526   3.577   6.710  12.834 -0.2775  0.1481  0.0451
16453W        W32527  10.379   9.198  16.051  0.2039  0.0292 -0.1599
16454W        W32528   1.316  13.325   4.374 -0.3019 -0.1290  0.3216
16455W        W32529   1.029  13.880   0.042 -0.0992  0.0736  0.0436
16456W        W32530   2.338   2.014   2.481 -0.0142 -0.3492 -0.0814
16457W        W32531   3.699   8.972  15.498  0.0674  0.1638  0.0242
16458W        W32532   4.455  13.910  14.653  0.1222 -0.0246 -0.1326
16459W        W32533  11.127   8.273  12.764 -0.3494 -0.1755  0.2039
16460W        W32534   9.757   6.409  13.978  0.1452  0.1509  0.0198
16461W        W32535   9.393   7.512   4.543 -0.0714 -0.0066 -0.0062
16462W        W32536   0.909  15.104  14.117  0.0734  0.0465  0.1180
16463W        W32537   4.726  13.085  12.778  0.1373 -0.0173 -0.0989
16464W        W32538   0.836  16.356   2.278 -0.1118  0.0980  0.1444
16465W        W32539  16.077  13.358   3.832  0.1022  0.1225  0.0107
16466W        W32540  12.456  12.132   5.991 -0.3701  0.1539 -0.0442
16467W        W32541   2.664   9.499   4.087 -0.0306  0.1451  0.2029
16468W        W32542  16.017  14.859   0.670  0.0562  0.4311 -0.1110
16469W        W32543   5.331   7.657   3.325 -0.1023  0.2333 -0.0550
16470W        W32544  12.574   7.931  14.421 -0.0878  0.0662  0.0108
16471W        W32545  11.383  15.608   0.457 -0.1634  0.1011  0.0115
16472W        W32546   1.419   8.887   0.717 -0.1294  0.0387  0.3148
16473W        W32547   0.701   0.335   5.498 -0.1854  0.3031  0.1873
16474W        W32548  17.140  10.055  14.699  0.0640  0.2096  0.0657
16475W        W32549   8.939  17.087   1.237 -0.1092 -0.0622  0.0349
16476W        W32550   3.067   5.746   0.727  0.0145 -0.0605  0.0495
16477W        W32551   4.475   3.521  12.609  0.0784 -0.2359  0.0909
16478W        W32552  14.828  15.673   2.007  0.3806 -0.1507 -0.0250
16479W        W32553   3.273   4.145  16.884 -0.0248  0.0403  0.0658
16480W        W32554  16.612  16.607  14.264 -0.1744  0.4012 -0.1198
16481W        W32555   5.787  16.131   6.360 -0.1226  0.1018  0.1319
16482W        W32556   5.888  16.237   4.373  0.0052 -0.1431  0.4156
16483W        W32557   3.027   2.534  11.641 -0.0959 -0.3609 -0.0378
16484W        W32558   9.229   4.483  12.407 -0.0017 -0.1300  0.3000
16485W        W32559  11.823   6.968  16.239  0.0528 -0.1663  0.0661
16486W        W32560   6.330   1.591   3.966 -0.1240  0.1754 -0.1275
16487W        W32561  17.180  12.071   3.754  0.0557  0.0643 -0.1427
16488W        W32562  15.327  10.598  12.566  0.4888  0.0136  0.1964
16489W        W32563  11.868  17.596   5.791 -0.1157 -0.2714  0.1387
16490W        W32564   0.535  15.127   3.378  0.1046 -0.0780  0.1819
16491W        W32565  11.059   3.150   0.946  0.1296  0.0902  0.1157
16492W        W32566  10.850   3.461   5.177  0.0570  0.1158  0.1023
16493W        W32567   6.451  16.995  14.011  0.1183 -0.2096  0.0772
16494W        W32568  11.409  12.323  14.049  0.1530  0.0892 -0.3025
16495W        W32569   0.905   3.961  13.855 -0.4111  0.1092  0.2621
16496W        W32570   3.380   6.374  13.737  0.3064 -0.0910 -0.1365
16497W        W32571  12.239   4.258   0.024  0.0182 -0.1416 -0.1075
16498W        W32572  17.314  11.760   2.628  0.0069 -0.3983 -0.0697
16499W        W32573   5.723  17.799  11.830  0.1916  0.1196 -0.0004
16500W        W32574   1.732  10.105   3.714 -0.2215  0.1102  0.1122
16501W        W32575  17.772   8.391   5.029 -0.0299 -0.1887  0.1946
16502W        W32576  11.361  17.665   5.119  0.3162  0.0031 -0.0988
16503W        W32577   5.533   6.426  16.296 -0.0238 -0.0520  0.0209
16504W        W32578   5.770   8.330  12.820 -0.1157  0.1748 -0.5796
16505W        W32579  14.454  11.090  14.685 -0.0811 -0.4794  0.1076
16506W        W32580   9.598   6.641   5.574  0.1411  0.0247  0.1454
16507W        W32581   6.245  10.821  13.818  0.1661  0.0582 -0.0434
16508W        W32582   3.583  13.534  15.587 -0.1473 -0.0142  0.0532
16509W        W32583   0.310  15.937   1.766  0.2318  0.1100  0.0420
16510W        W32584   1.467  11.323  15.652 -0.0605 -0.0623  0.1165
16511W        W32585   2.595   0.111   4.855 -0.2171  0.0379  0.0743
16512W        W32586   5.668   0.581   5.052  0.2178  0.2278  0.2708
16513W        W32587  17.651  12.756  14.902 -0.0396  0.0669 -0.2809
16514W        W32588   5.898  14.198   5.614  0.0242 -0.0551 -0.1086
16515W        W32589  16.641  14.353   0.082 -0.0567  0.1711  0.0528
16516W        W32590  17.833  10.873  14.428 -0.0245  0.2926  0.0243
16517W        W32591  10.820   8.987   0.182  0.1688 -0.1949 -0.0080
16518W        W32592  10.653   7.416   0.818  0.0151 -0.1466  0.1558
16519W        W32593   3.399  14.869   0.315 -0.2630  0.0244  0.0028
16520W        W32594  16.927  12.037  14.169 -0.1016  0.0009  0.1676
16521W        W32595   0.596  14.984  13.198  0.1229  0.2294  0.3811
16522W        W32596   9.805  10.929   1.608 -0.3051  0.1440 -0.1355
16523W        W32597   8.339   9.055  12.783  0.0070  0.0690  0.3701
16524W        W32598   8.252  13.126  15.364 -0.1792  0.2732 -0.1253
16525W        W32599  17.106   4.729  11.991 -0.2779  0.2203  0.0140
16526W        W32600   5.637   5.364   0.603  0.1054  0.1369  0.1487
16527W        W32601   1.454   7.116  10.890 -0.0730  0.0616 -0.2455
16528W        W32602   4.025   4.579  13.376  0.1301 -0.0345  0.3876
16529W        W32603   5.903   4.977   4.339 -0.0585 -0.1795 -0.0499
16530W        W32604   0.532  12.953  14.623  0.0430 -0.0166 -0.1436
16531W        W32605   8.282   1.425   4.255 -0.0886  0.0908 -0.2076
16532W        W32606   1.987   5.639   0.663 -0.1469 -0.2315 -0.1036
16533W        W32607   0.545   4.688   1.649  0.0938 -0.2221  0.0548
16534W        W32608  12.794   9.747   5.923  0.0021 -0.0042  0.0478
16535W        W32609  15.393   4.087  14.767  0.4232  0.0753 -0.1855
16536W        W32610   2.853   0.265   0.398 -0.2404 -0.2148  0.0650
16537W        W32611   8.561  16.726  14.012  0.2740  0.2649 -0.0866
16538W        W32612   2.810  16.070  13.835 -0.3157 -0.1233 -0.3410
16539W        W32613   2.578   2.955  15.906  0.0947  0.3534 -0.0905
16540W        W32614   9.077  16.465   4.464  0.0991 -0.0636 -0.1520
16541W        W32615   5.268  15.998  15.524  0.1545 -0.1195  0.0096
16542W        W32616   5.075   8.106   2.252  0.1103 -0.3211 -0.3928
16543W        W32617  11.322   1.751   1.538 -0.0528  0.1426  0.3237
16544W        W32618   1.078   9.898  14.672 -0.3732  0.3798  0.3712
16545W        W32619   9.711  15.102   3.968  0.0112 -0.0755 -0.0071
16546W        W32620   4.062   9.927   3.024  0.0474 -0.2959  0.1462
16547W        W32621   3.176   0.053   0.766  0.0363  0.1076 -0.0870
16548W        W32622   0.007  12.342  13.067  0.3220  0.0830  0.0454
16549W        W32623  10.853  10.899  14.299 -0.0765  0.0861 -0.0818
16550W        W32624  13.895   6.765   6.126  0.0781 -0.0488  0.2013
16551W        W32625  13.352  10.432  12.371  0.0069  0.2136  0.1225
16552W        W32626   9.784   2.111  15.534 -0.0795 -0.0044 -0.1041
16553W        W32627  13.752   7.952  16.847 -0.0345 -0.2486  0.1736
16554W        W32628   7.351  13.009  13.917 -0.1547 -0.0326 -0.1218
16555W        W32629   1.783   0.579  14.177 -0.0812  0.1836  0.1361
16556W        W32630   5.497  15.507   3.785  0.1626 -0.1495  0.3284
16557W        W32631   7.776   5.393  14.153  0.2208  0.2879  0.3850
16558W        W32632  10.625   7.069  16.251  0.2929  0.2218  0.3631
16559W        W32633   4.332   4.803   3.844  0.4849  0.0020  0.1204
16560W        W32634   2.148  12.916   4.212  0.2815 -0.0230  0.3020
16561W        W32635  10.838   6.946   0.586 -0.3614 -0.1581 -0.0568
16562W        W32636   8.740   4.743  15.488 -0.1327 -0.1737  0.0025
16563W        W32637   3.115  10.132   3.001  0.4139  0.4156 -0.0514
16564W        W32638  16.616   6.402  13.820  0.1262  0.3499 -0.0300
16565W        W32639  16.331   0.234   5.020 -0.0929 -0.1746  0.1099
16566W        W32640   2.607   9.650  14.556 -0.0323 -0.1046 -0.0355
16567W        W32641  16.048  15.418  12.368  0.0055  0.2943  0.0620
16568W        W32642  17.628  11.664  13.648 -0.1592 -0.0979  0.0609
16569W        W32643  13.565   9.135  13.097 -0.1879  0.0966 -0.2331
16570W        W32644  11.553   1.722   1.953  0.1725 -0.1826 -0.2936
16571W        W32645  14.060   8.878   0.491 -0.0640  0.3789 -0.0186
16572W        W32646   5.487   1.164  13.468 -0.1685 -0.0176  0.2362
16573W        W32647   4.218   1.974  15.099 -0.0434  0.1580 -0.2156
16574W        W32648  12.213   0.721  16.209  0.0239  0.2889 -0.2966
16575W        W32649   0.946   8.050  15.671 -0.0076 -0.2523 -0.1477
16576W        W32650  17.400   4.981   5.195 -0.0852  0.1119  0.1822
16577W        W32651   4.956   1.417  12.797  0.3207  0.0130  0.1535
16578W        W32652   1.514   1.227  11.748 -0.3301 -0.0992 -0.2860
16579W        W32653   3.470  12.135  13.580  0.0056  0.1764 -0.0929
16580W        W32654   4.960   0.479   5.704  0.0191 -0.0589 -0.1557
16581W        W32655   3.983   6.918   2.748  0.1772  0.1625 -0.2347
16582W        W32656  10.445   4.224   6.692  0.3285 -0.2356  0.0075
16583W        W32657  15.013  10.074  12.722  0.4026 -0.0075 -0.0935
16584W        W32658  17.794  14.748   0.662  0.4063 -0.0723 -0.1095
16585W        W32659   1.085  10.676  11.140  0.3948 -0.2377  0.0390
16586W        W32660  14.497  11.869   2.059  0.1393  0.1653 -0.0661
16587W        W32661   6.929  15.742  11.798  0.3159  0.0358  0.0925
16588W        W32662   9.777   3.941  14.549 -0.1696  0.1832 -0.2891
16589W        W32663   7.868   5.244   3.058 -0.0575 -0.1510 -0.1112
16590W        W32664  12.498   3.946   1.799  0.1796  0.1788 -0.0901
16591W        W32665  13.054  11.233  12.377  0.3243 -0.0425 -0.1184
16592W        W32666   1.206  11.911   2.558  0.0921 -0.0075  0.1603
16593W        W32667  16.388   4.457   2.594  0.0742 -0.0380 -0.3619
16594W        W32668   6.510  16.067  15.479  0.2202 -0.1931  0.2331
16595W        W32669   4.737   4.442  14.286 -0.2265  0.1083 -0.0611
16596W        W32670  15.142   3.789   3.485 -0.0164 -0.0075 -0.0269
16597W        W32671  12.734   3.519  13.316 -0.1115 -0.2033 -0.0617
16598W        W32672  12.239   3.098  11.859  0.1399 -0.3163  0.0191
16599W        W32673  12.818   9.610   1.706 -0.2926  0.0249 -0.0104
16600W        W32674  15.631  13.909  12.634  0.2813 -0.0024 -0.3760
16601W        W32675   9.853  15.140   2.157 -0.1036 -0.2766  0.0533
16602W        W32676   7.086  12.027  16.849 -0.2175  0.1071 -0.1887
16603W        W32677   2.908   2.429  15.564 -0.0041  0.0428 -0.1619
16604W        W32678   6.654   5.838   0.230  0.0684 -0.0748 -0.1372
16605W        W32679   3.327   7.023   4.362  0.1382 -0.1503  0.2375
16606W        W32680  13.709  15.858   4.153  0.1075  0.1803  0.0826
16607W        W32681  14.172  11.335   4.527  0.2523  0.0022 -0.0265
16608W        W32682   5.735  10.497  15.795 -0.1795 -0.0633  0.1792
16609W        W32683  16.839   2.560   1.072  0.1280 -0.2748 -0.0781
16610W        W32684  11.259   9.431  13.045 -0.2307  0.1220 -0.3804
16611W        W32685   9.864   1.741   3.684  0.5003 -0.7087 -0.2342
16612W        W32686   2.867  11.972  16.756 -0.0671  0.0853 -0.0985
16613W        W32687   7.469  10.432   2.980  0.0528  0.0187  0.0519
16614W        W32688   7.116  15.408  13.973 -0.0419  0.0506  0.0536
16615W        W32689   6.610  15.972  12.280  0.0603 -0.1287  0.3648
16616W        W32690   9.066  12.099   0.830 -0.1106  0.3726 -0.1164
16617W        W32691  17.730   9.097   2.201 -0.1528 -0.0301 -0.2258
16618W        W32692   6.677   7.512   2.960 -0.0998 -0.0077  0.1193
16619W        W32693   7.110  16.304   2.745 -0.0069 -0.1059 -0.0258
16620W        W32694  17.423  12.729   0.516 -0.1682  0.0192 -0.0276
16621W        W32695   7.269   0.344  13.959 -0.2218 -0.0880  0.0127
16622W        W32696   4.507   2.261   0.780 -0.0381  0.0274 -0.0741
16623W        W32697   2.321   8.500  12.566  0.0789  0.0822 -0.2230
16624W        W32698   3.287  17.649  14.443 -0.1541  0.1514 -0.1545
16625W        W32699   5.389   5.920  14.211  0.0042 -0.2972  0.0139
16626W        W32700   5.660   2.851  13.097 -0.0933  0.2996 -0.1604
16627W        W32701  16.896  13.742   5.835 -0.0148  0.1585  0.2870
16628W        W32702  12.042   1.352  13.863  0.0184 -0.1335 -0.0740
16629W        W32703   6.774   7.860   2.549 -0.1004  0.0829 -0.1876
16630W        W32704   3.971  16.231   4.174  0.1361  0.3743 -0.0542
16631W        W32705  14.096  14.820  16.662  0.0843  0.1375 -0.0130
16632W        W32706  14.495  10.714   2.624 -0.1447  0.2803  0.0329
16633W        W32707   5.913   6.858   3.974 -0.0536 -0.1749 -0.2404
16634W        W32708  10.166  16.308   3.336  0.1706 -0.1658  0.1545
16635W        W32709   3.927  16.440   4.665 -0.1746 -0.0218 -0.1351
16636W        W32710  12.332   4.118   4.138  0.2205 -0.2137 -0.0622
16637W        W32711   2.232   7.430   1.548 -0.0853 -0.1977  0.1236
16638W        W32712  15.745  10.567   5.785 -0.1120 -0.0123 -0.0264
16639W        W32713  14.143   6.923   4.387 -0.0777  0.2881 -0.1962
16640W        W32714   7.275   0.594  14.457  0.3479 -0.0382 -0.0009
16641W        W32715  14.237  10.266  10.726 -0.1155 -0.2557 -0.0453
16642W        W32716  16.619   1.846   1.593 -0.0866 -0.1438  0.0310
16643W        W32717  11.687  12.645   0.060  0.1937  0.1802  0.0802
16644W        W32718   9.963   1.491  12.247 -0.2440 -0.4036 -0.0064
16645W        W32719  16.749   7.362  12.474 -0.0134  0.0380  0.2112
16646W        W32720   9.655   1.585  16.862  0.0652  0.4132 -0.2710
16647W        W32721   3.334  10.423   3.453  0.0510  0.0790 -0.0216
16648W        W32722   6.726  15.424  12.161 -0.3995 -0.1338 -0.0540
16649W        W32723   9.959   6.020   4.523  0.0990 -0.0228 -0.0639
16650W        W32724   7.380   6.077  12.833 -0.1007  0.0237 -0.0946
16651W        W32725  15.582   6.302   2.818  0.0456 -0.3166  0.0331
16652W        W32726   9.093  12.778  15.727 -0.0940  0.0466  0.2997
16653W        W32727  10.268   5.445  12.128 -0.0775 -0.1005 -0.1409
16654W        W32728   7.073   7.068   0.831  0.1045  0.1892  0.0009
16655W        W32729  16.861  11.270   5.598  0.0105 -0.1374 -0.1173
16656W        W32730  10.898  11.448  15.607 -0.1841  0.0393  0.2600
16657W        W32731  17.019  12.650  12.856 -0.0184 -0.0969  0.1298
16658W        W32732  14.969   5.494  13.312 -0.1092  0.0075  0.0856
16659W        W32733   9.852   8.007  14.156  0.3595  0.0245  0.2153
16660W        W32734   4.837   0.975   0.013 -0.0584  0.1645 -0.3727
16661W        W32735  13.769  12.332   1.211 -0.2109 -0.1880  0.0547
16662W        W32736  10.903  12.557   2.645  0.2035  0.1789  0.2047
16663W        W32737  13.764  12.342   2.858 -0.1321  0.1752  0.0667
16664W        W32738  11.661   1.327   1.571 -0.0439  0.0865  0.0143
16665W        W32739   6.789  16.019   1.126  0.2104  0.1469 -0.1269
16666W        W32740  15.412   2.672   5.434 -0.0911 -0.0961 -0.0622
16667W        W32741  16.060  15.649   1.494 -0.0306  0.0966 -0.1187
16668W        W32742  11.168  14.594  16.898  0.0524 -0.0886 -0.0113
16669W        W32743   4.367  12.238   5.471  0.2053  0.0465  0.1578
16670W        W32744   0.964  14.980   1.714 -0.1655  0.1205 -0.0423
16671W        W32745   3.410   1.646  15.651 -0.0298  0.3725 -0.1577
16672W        W32746   8.376  10.554  11.778 -0.2080  0.0923 -0.1555
16673W        W32747  14.967   6.902   4.534  0.0775  0.0352 -0.0589
16674W        W32748   0.089   0.970   4.350 -0.2170 -0.2034  0.3287
16675W        W32749   6.830  16.026   5.773 -0.3091 -0.0541 -0.0793
16676W        W32750  16.541   4.884   0.196  0.1304 -0.4294 -0.4068
16677W        W32751   3.515  10.550   1.920  0.1132 -0.1596  0.2405
16678W        W32752   7.341   6.280   2.279 -0.0125  0.1766  0.1730
16679W        W32753   7.250   7.112   4.340  0.1917 -0.0864 -0.2253
16680W        W32754   3.038  16.240  16.651 -0.0460 -0.2791 -0.0808
16681W        W32755  12.371  15.168  13.754 -0.0581 -0.1848  0.2875
16682W        W32756   4.673  17.424  12.286 -0.1728 -0.0817  0.0170
16683W        W32757  11.020  16.423  16.416  0.2157 -0.1524 -0.0889
16684W        W32758  13.448  13.629  12.901 -0.1826 -0.0921  0.0068
16685W        W32759  15.702   8.571   3.219 -0.0918  0.0036  0.1407
16686W        W32760   1.892   7.447  15.090 -0.3200 -0.3352  0.0740
16687W        W32761  12.136  14.368  14.334  0.0009 -0.0875 -0.0457
16688W        W32762   9.380   4.671  14.104 -0.2737 -0.0786  0.0580
16689W        W32763  12.643   7.305   5.834 -0.2283 -0.0389  0.0851
16690W        W32764   6.278  17.207   6.108 -0.1591  0.0425  0.0649
16691W        W32765   4.634   3.000  15.696  0.0550  0.0251 -0.0752
16692W        W32766   6.895   8.340   4.192 -0.0499  0.1333 -0.0098
16693W        W32767   9.385  12.963  13.124 -0.0390 -0.0287  0.2381
16694W        W32768   6.317  13.862   5.725  0.0508  0.0996 -0.0391
16695W        W32769   7.629  14.336  14.786  0.3421 -0.0374 -0.1822
16696W        W32770  13.445   8.811   3.595  0.1078 -0.0487  0.1012
16697W        W32771   4.137   1.322  14.390 -0.1725 -0.0707  0.1145
16698W        W32772   2.205  13.124  13.967 -0.1129  0.0938  0.2785
16699W        W32773   4.035  17.140  14.501 -0.0976  0.1209  0.1714
16700W        W32774   6.382   8.540  16.728 -0.4028 -0.0440  0.1876
16701W        W32775   2.049  12.076  13.257 -0.1861 -0.1846 -0.1131
16702W        W32776  10.917   2.482   5.556  0.1055 -0.1633  0.2917
16703W        W32777   4.645  17.159  15.336  0.2522  0.0844  0.3269
16704W        W32778  15.833   4.639  11.972  0.2669  0.0810 -0.1466
16705W        W32779  14.469   4.941  11.757 -0.5136 -0.0128 -0.3629
16706W        W32780  13.949   2.019   1.578 -0.2888  0.1732 -0.2419
16707W        W32781  10.101  13.687  12.786 -0.0635  0.1036  0.0951
16708W        W32782  16.906   6.376   1.656 -0.2510 -0.1228 -0.0387
16709W        W32783   0.429   0.458   5.045  0.1624 -0.1838 -0.1596
16710W        W32784   1.280  14.830   3.148 -0.0629 -0.0232  0.3224
16711W        W32785   2.319   1.214  14.367  0.1030  0.0957 -0.0616
16712W        W32786   2.310   8.477   1.289  0.2837  0.0568 -0.0182
16713W        W32787   8.093   5.116  15.757  0.0190  0.1010  0.3757
16714W        W32788   7.919  14.420  12.166  0.1676 -0.0332 -0.0701
16715W        W32789   7.618   3.392  11.550  0.2277 -0.3096 -0.0422
16716W        W32790   0.257   4.694  14.878  0.0153 -0.0847  0.4943
16717W        W32791   4.620  17.327  14.247  0.2148 -0.1663  0.0202
16718W        W32792   2.590   5.717   4.866  0.1438  0.0167 -0.2355
16719W        W32793  15.661   1.461   3.856 -0.1760 -0.3476 -0.1979
16720W        W32794   8.177  14.224   4.795 -0.1342 -0.5263  0.0960
16721W        W32795  11.822   1.720  16.855 -0.0610 -0.0524 -0.0697
16722W        W32796  11.849   9.473  12.625 -0.0870 -0.1190 -0.0486
16723W        W32797  14.217   2.307   1.174  0.1592  0.1174  0.0442
16724W        W32798   9.835  10.159   1.178 -0.0359 -0.1117  0.2262
16725W        W32799   7.818  15.494   5.234 -0.2869  0.0577 -0.3220
16726W        W32800   7.159   9.687  12.567 -0.1267  0.0087  0.0722
16727W        W32801  13.570  15.610  16.448  0.0545 -0.1095  0.0178
16728W        W32802   0.042   7.221   3.710  0.0005 -0.1306 -0.0500
16729W        W32803   8.809  12.738   3.723  0.1518  0.0901  0.0661
16730W        W32804   5.201  14.967  15.431 -0.1554  0.1300 -0.0664
16731W        W32805  15.295  10.203  12.309  0.0038  0.0736  0.0359
16732W        W32806  12.147  13.923   4.783 -0.2135  0.2455  0.3452
16733W        W32807  16.489   6.781  16.159 -0.1366  0.0698  0.0379
16734W        W32808   8.412   4.247   4.523  0.0942 -0.0067 -0.0492
16735W        W32809   3.987  15.010   4.857 -0.3601 -0.1789 -0.3803
16736W        W32810  12.416  16.617   4.606  0.1718 -0.0256 -0.0863
16737W        W32811   4.537   2.827  13.060  0.1962  0.0983 -0.1444
16738W        W32812   6.654  12.629  16.221 -0.0813  0.5131  0.0037
16739W        W32813  10.812  15.820  14.122 -0.0613  0.0842  0.5464
16740W        W32814   3.921  12.694   2.907 -0.0817  0.1262  0.2024
16741W        W32815   3.792  11.532  13.024  0.0653 -0.0619 -0.1032
16742W        W32816   0.953  16.853  12.637 -0.2022  0.0265  0.0703
16743W        W32817   5.079   6.932  13.892  0.1879  0.0529 -0.0128
16744W        W32818  14.679  11.514   1.242  0.3630  0.2186  0.2439
16745W        W32819  15.479   6.728   3.063 -0.0299  0.2352  0.0843
16746W        W32820  11.092   1.957   5.257  0.0942 -0.1999 -0.2615
16747W        W32821  16.000   2.641   3.904 -0.0123 -0.1860 -0.2758
16748W        W32822  17.193   4.469   4.709  0.2297  0.0038 -0.2464
16749W        W32823  17.090  14.101   0.319  0.1751 -0.0031  0.0683
16750W        W32824   7.304  15.455   2.519 -0.1341 -0.0954  0.1408
16751W        W32825   9.572   3.208   0.375 -0.1234  0.2235 -0.0130
16752W        W32826  10.526  13.905  12.628 -0.1949  0.2466  0.0038
16753W        W32827   6.543   0.074   0.434  0.0517 -0.0851 -0.0660
16754W        W32828  16.648   9.252  12.759  0.0371 -0.0876 -0.2857
16755W        W32829   5.086  11.638   5.386 -0.0310 -0.2037  0.1295
16756W        W32830   1.554  16.920  13.348  0.1340  0.2640  0.2556
16757W        W32831   8.108   9.958  16.770 -0.0113  0.0575  0.1747
16758W        W32832  10.359  11.893  12.121  0.1498  0.0420 -0.2381
16759W        W32833  15.566  13.611   1.400  0.0511 -0.0884 -0.1649
16760W        W32834   6.339   2.531   0.388 -0.1216  0.3182 -0.2655
16761W        W32835   8.225   0.925  13.137  0.0667 -0.1403 -0.1356
16762W        W32836  17.445  12.471   4.735 -0.0533 -0.0096  0.2791
16763W        W32837   1.764   9.093  16.822  0.2386 -0.2220 -0.0263
16764W        W32838  13.231   1.566   3.662  0.0672 -0.1436  0.0736
16765W        W32839  15.925  14.444  15.449 -0.0046 -0.3065  0.0834
16766W        W32840  16.371   2.156  13.802 -0.1811  0.5055 -0.1605
16767W        W32841   0.932  12.381  15.367  0.1238 -0.2707 -0.2832
16768W        W32842   4.799  16.451   5.762 -0.1231  0.0446 -0.3729
16769W        W32843   5.462  12.926   2.598 -0.2542 -0.0942  0.1702
16770W        W32844   6.441  12.406   1.096  0.1626 -0.0311  0.1227
16771W        W32845  16.914  13.383   1.508  0.0466 -0.0020  0.0118
16772W        W32846  10.059  17.319   4.062 -0.1503 -0.1229 -0.2795
16773W        W32847  10.285   7.187   5.560  0.1713  0.2797 -0.0956
16774W        W32848  11.126   0.806  16.267  0.0530 -0.1287 -0.1392
16775W        W32849  12.851   6.551   4.283  0.1886 -0.0775  0.0717
16776W        W32850  11.661  11.503   4.381  0.3129 -0.1645 -0.1164
16777W        W32851   8.942  16.540   1.704  0.1407  0.1188  0.2419
16778W        W32852   1.872   5.114   3.279 -0.4564  0.1707 -0.3091
16779W        W32853  10.147  15.304   5.637  0.3467 -0.0695 -0.1776
16780W        W32854   4.969   3.005   0.455 -0.0891  0.0436  0.1746
16781W        W32855   6.749  14.429  13.764 -0.1141  0.0411 -0.0161
16782W        W32856  12.339  10.740  15.063  0.1315  0.1243  0.1281
16783W        W32857   7.641  12.414  12.184  0.0518  0.0414 -0.0877
16784W        W32858   2.515   3.432  13.184 -0.0588  0.2590 -0.1589
16785W        W32859   7.970  14.281   1.086 -0.0759  0.3353 -0.2608
16786W        W32860   7.078  13.068  15.594 -0.2387 -0.0136 -0.1911
16787W        W32861  17.772  17.574   3.671 -0.0870 -0.0826  0.0520
16788W        W32862   8.017   0.510   0.905 -0.4886  0.0215 -0.1669
16789W        W32863  16.360   4.444   4.419  0.2015  0.0177 -0.3258
16790W        W32864   8.705   2.773  16.567  0.1524  0.2539 -0.0017
16791W        W32865  17.420  11.611  16.614  0.0155  0.1155 -0.1044
16792W        W32866  14.714   6.530   5.476  0.5835  0.0492 -0.1189
16793W        W32867  12.470  12.006   2.642 -0.0784 -0.0042 -0.0163
16794W        W32868   3.538  14.471   1.519 -0.0478 -0.1424  0.1486
16795W        W32869  17.566   4.639   3.263  0.0142 -0.1687 -0.2841
16796W        W32870   0.012   3.380   3.395 -0.1402 -0.2796 -0.3045
16797W        W32871   6.044   5.626  11.820  0.0443  0.0297 -0.3053
16798W        W32872   2.189   8.384   0.452  0.0873  0.1746  0.1000
16799W        W32873   7.280   5.485  16.617  0.1491 -0.1093  0.1217
16800W        W32874  16.230  11.322   5.713 -0.1607 -0.0640 -0.1587
16801W        W32875   6.860  12.194  16.419  0.0046 -0.0558 -0.0994
16802W        W32876   7.113   2.592  10.409  0.0520 -0.2312 -0.2536
16803W        W32877  14.308  16.184   2.928  0.1083 -0.1114  0.0628
16804W        W32878  11.515   3.985   4.774 -0.1195  0.1432 -0.1446
16805W        W32879  14.175  10.652  15.509  0.0971 -0.1391  0.1972
16806W        W32880   9.723   3.999   5.416  0.0225  0.2655 -0.2142
16807W        W32881   1.102   3.004   1.951  0.1504 -0.1386 -0.0310
16808W        W32882  14.044   6.840   2.916 -0.1494 -0.1960  0.0874
16809W        W32883  10.213   2.212  13.412 -0.2263 -0.0632  0.4224
16810W        W32884   3.547   5.881   0.690 -0.1717  0.1059 -0.0113
16811W        W32885   9.905  13.581   5.531 -0.0144  0.0674  0.0463
16812W        W32886  16.482  14.364   4.841  0.1041  0.0918 -0.0465
16813W        W32887   8.028  10.952   1.129  0.0176  0.2407  0.0432
16814W        W32888  16.557  15.815   3.767  0.0099  0.3779  0.1657
16815W        W32889   1.504   3.438  12.427  0.0178 -0.2022  0.2262
16816W        W32890   9.808   6.874   0.824 -0.2063 -0.0014  0.1916
16817W        W32891   1.793  11.767  13.895  0.1223 -0.0376  0.0990
16818W        W32892   1.697  16.453  12.176  0.0195 -0.1692  0.0518
16819W        W32893   8.836   7.222  15.512  0.2251  0.1346 -0.2200
16820W        W32894   6.452   6.967   5.025  0.0958  0.0616  0.0483
16821W        W32895  13.899  10.087  11.622  0.1003 -0.1991  0.2624
16822W        W32896  14.044   1.082   6.457 -0.2873  0.1239  0.1179
16823W        W32897   7.835   2.458  13.855  0.0537  0.0039 -0.1102
16824W        W32898   7.936  13.706   0.332 -0.0351 -0.0201  0.0436
16825W        W32899   0.406   8.671   4.254  0.2029  0.1106  0.0287
16826W        W32900  15.251  12.729   1.237  0.0673 -0.1364 -0.0556
16827W        W32901   6.027  11.923   1.394  0.1204 -0.1566  0.2502
16828W        W32902   7.453  15.545   5.551  0.1998 -0.0168 -0.4537
16829W        W32903   4.535   6.197  15.896 -0.1672 -0.3087  0.0196
16830W        W32904   5.985   6.523  16.578  0.3662  0.0973  0.1241
16831W        W32905   2.502   5.449   5.406  0.2734 -0.1805  0.0918
16832W        W32906  14.435  10.851  12.688  0.0170 -0.0775  0.1617
16833W        W32907   9.759   5.210   5.964 -0.0208  0.1741  0.0177
16834W        W32908   9.729  17.019  15.678  0.0275 -0.1021 -0.2060
16835W        W32909  16.967   9.385  15.816  0.2187  0.0141  0.1034
16836W        W32910   4.609  11.319   3.301  0.0599  0.0725  0.0940
16837W        W32911  10.777   1.039   5.637  0.2053 -0.1388  0.0749
16838W        W32912  10.015   8.666   2.494  0.1491  0.3895  0.1035
16839W        W32913   5.045  11.258  13.670 -0.1044 -0.0431  0.1668
16840W        W32914  17.748  12.963  13.849 -0.1513 -0.3220 -0.1042
16841W        W32915  12.949   7.659   2.655  0.1858  0.0988  0.0683
16842W        W32916  10.052  11.623   2.126  0.2127  0.0929 -0.1433
16843W        W32917   6.644   9.238   1.288 -0.3898  0.2212 -0.0044
16844W        W32918   4.462  13.720  15.483 -0.0220  0.0364  0.1333
16845W        W32919  12.277  12.444   2.783 -0.1413  0.5042 -0.1221
16846W        W32920   3.480   3.439  15.545  0.3327  0.1540 -0.2181
16847W        W32921   6.592   6.947  13.644 -0.2343  0.0315 -0.0787
16848W        W32922   3.473   2.836  16.847  0.1582  0.0791 -0.0604
16849W        W32923   5.564   0.698  15.664  0.0135  0.0114 -0.3582
16850W        W32924   7.843   0.093   4.830 -0.0135 -0.1499  0.0454
16851W        W32925  11.633   2.029   1.159 -0.0018 -0.1369  0.1188
16852W        W32926   7.593   5.854   2.423 -0.1142 -0.2802  0.0379
16853W        W32927  13.996  12.326  12.640 -0.1346  0.0937 -0.0702
16854W        W32928  11.685  11.140   4.804 -0.1137  0.1442 -0.2210
16855W        W32929  15.341  16.555  13.499 -0.0621 -0.2139  0.0437
16856W        W32930  13.785   7.996   4.181 -0.4049  0.2255  0.0224
16857W        W32931   5.446   4.251   2.704 -0.2072  0.1681 -0.3613
16858W        W32932  17.576   0.362   4.049 -0.0630  0.0374 -0.0034
16859W        W32933   6.697  15.173   5.721  0.1494 -0.0661 -0.1954
16860W        W32934   9.782   9.033  15.364 -0.1045 -0.0650 -0.1352
16861W        W32935  12.594   4.155  16.665  0.1309  0.1509 -0.0885
16862W        W32936   5.752   8.272   5.371  0.2230 -0.2336 -0.0808
16863W        W32937   9.271  15.457  11.764  0.1681  0.1190  0.2317
16864W        W32938   6.383   2.345   1.310  0.0826 -0.0752 -0.1222
16865W        W32939   9.257  14.221  15.987  0.2866 -0.0528  0.2195
16866W        W32940   2.340  17.519  16.110 -0.0061  0.1930  0.3435
16867W        W32941   3.997  12.726  11.986  0.1405 -0.1264 -0.0846
16868W        W32942  11.217   4.082   2.135  0.1143  0.0764 -0.2038
16869W        W32943  15.797   9.092  12.713 -0.1593 -0.0370 -0.1539
16870W        W32944  11.750   2.903  15.228  0.0651  0.0050 -0.1447
16871W        W32945   1.469  12.714   3.624 -0.0516  0.1019 -0.1523
16872W        W32946   3.005   7.889  15.249  0.1054  0.1631 -0.1114
16873W        W32947   9.350  15.983   3.820  0.1675 -0.3292 -0.1187
16874W        W32948   3.689   5.949  15.899  0.1881 -0.1947 -0.3279
16875W        W32949   9.268  17.468  16.752  0.0710 -0.0766 -0.2031
16876W        W32950   3.349   0.021  13.548  0.0881 -0.0536  0.1896
16877W        W32951   2.958   2.552  13.590 -0.0030  0.0154 -0.0180
16878W        W32952   6.078   7.510   5.690 -0.0271  0.1411 -0.0049
16879W        W32953   2.130   4.409   2.860 -0.3037 -0.0978  0.0152
16880W        W32954   2.685  15.757   3.949  0.2203  0.2853  0.0550
16881W        W32955  12.509  15.056   5.307 -0.0252  0.5445 -0.2289
16882W        W32956  13.823  12.741  16.972 -0.3989 -0.1747 -0.2610
16883W        W32957  10.221   5.933   3.065 -0.2087 -0.2618  0.2525
16884W        W32958   8.246   1.710  13.731 -0.0725 -0.1280 -0.1183
16885W        W32959   3.694   9.557   0.598 -0.2080  0.2236 -0.1557
16886W        W32960  11.731  14.349   6.289 -0.2280 -0.0422  0.0662
16887W        W32961  13.404   3.945  13.142  0.1928  0.2900 -0.1831
16888W        W32962  12.632   3.761   2.615  0.0245 -0.1843  0.0787
16889W        W32963  12.022  13.207  12.768  0.1070 -0.0322 -0.1399
16890W        W32964  10.991   0.050   4.173  0.0536  0.1787  0.3165
16891W        W32965   3.874  12.503   3.961  0.3156 -0.2896  0.0295
16892W        W32966   2.585  10.775   6.008  0.2908  0.2788 -0.1837
16893W        W32967   7.897   3.745   1.462 -0.1712  0.0433  0.0898
16894W        W32968   0.910  11.893   4.514  0.0080  0.0923  0.0968
16895W        W32969   2.907  16.000   3.202  0.0803 -0.3067  0.0212
16896W        W32970   9.412  14.664  16.348 -0.0544 -0.0791 -0.2332
16897W        W32971   2.689   7.633   1.490  0.0941 -0.1269 -0.2927
16898W        W32972  17.208   0.884  12.303 -0.1207 -0.2450  0.0778
16899W        W32973   1.688   5.304   5.234  0.0227  0.1596 -0.1648
16900W        W32974   0.723  13.375  14.015 -0.0377  0.0326 -0.0295
16901W        W32975   6.805  16.667   1.772  0.0684  0.2931  0.0479
16902W        W32976   3.537  17.201  14.344  0.0755 -0.0871 -0.1284
16903W        W32977   9.910  10.787   4.457 -0.0559  0.0684 -0.1449
16904W        W32978  12.136   0.155   2.990  0.0515 -0.1380  0.1607
16905W        W32979   3.378  10.660  16.906 -0.0476  0.3097  0.1324
16906W        W32980  11.437  13.701  11.445  0.1786  0.4872  0.1096
16907W        W32981   6.044  12.606  15.195  0.0468  0.2383 -0.2414
16908W        W32982  15.286   9.846   3.691  0.0382  0.3813 -0.1669
16909W        W32983   4.329   5.889  15.581  0.0554  0.1791 -0.3563
16910W        W32984  12.560  13.844   3.326  0.1540  0.1368 -0.0150
16911W        W32985  14.687  17.638  14.712 -0.2891 -0.1822 -0.0130
16912W        W32986   4.988  11.472   1.827 -0.1476  0.2103  0.1255
16913W        W32987   8.121   6.991   2.748 -0.1132  0.2436 -0.0837
16914W        W32988  15.718   2.176   0.566 -0.0657 -0.1903 -0.4226
16915W        W32989   1.484  16.846  11.521  0.0000  0.0112 -0.2636
16916W        W32990  11.941   0.972  11.756  0.5430 -0.0851  0.2947
16917W        W32991  13.619   2.944   1.578 -0.2837 -0.1025  0.1237
16918W        W32992   6.172   3.817  11.576 -0.2063  0.0040  0.0611
16919W        W32993  15.970  12.928  14.325 -0.0351  0.0203 -0.1509
16920W        W32994  17.321  11.912  12.672  0.0606 -0.1623  0.4168
16921W        W32995  15.689  11.827  13.989 -0.0045 -0.1921 -0.1586
16922W        W32996  14.706  10.309  14.521 -0.2174  0.1680  0.3223
16923W        W32997  13.827   1.239   0.041  0.4364 -0.0509  0.1369
16924W        W32998  15.501   1.796  14.400 -0.0740 -0.1202 -0.0760
16925W        W32999   8.656  13.997  13.937 -0.1666 -0.0070 -0.0938
16926W        W33000   2.660   0.322   4.444 -0.1551 -0.0277  0.0026
16927W        W33001   7.607   2.268   0.719 -0.2427 -0.0649 -0.1762
16928W        W33002  10.543  13.474  16.599 -0.2113  0.1082  0.0248
16929W        W33003   4.569  16.577   4.327  0.2285 -0.2473 -0.0665
16930W        W33004   8.390   8.808  14.085  0.1217  0.1053 -0.2318
16931W        W33005  14.691  10.726  15.323 -0.1341 -0.2593  0.0670
16932W        W33006   1.151   2.313  12.994  0.0985  0.2752 -0.0223
16933W        W33007   9.305   2.980  15.359  0.1751  0.1786 -0.2985
16934W        W33008   6.365  13.623  13.729 -0.1217  0.0285 -0.1075
16935W        W33009  13.612  17.112   6.086  0.1757 -0.2000 -0.2523
16936W        W33010   4.702  15.216   1.168  0.1263 -0.1452 -0.1644
16937W        W33011  17.597  17.352   6.699  0.0947  0.1008  0.0334
16938W        W33012   9.811  12.191  15.101  0.3305 -0.0919 -0.0306
16939W        W33013   0.965   3.092  14.767 -0.2762 -0.0320  0.1883
16940W        W33014   8.269  10.888  12.965 -0.1366 -0.0606 -0.0597
16941W        W33015  11.770   0.436   1.592  0.1220  0.2424 -0.2523
16942W        W33016   5.285   1.794   0.863  0.3030 -0.2075  0.0729
16943W        W33017   9.188  16.346  12.761 -0.2709  0.1747  0.0094
16944W        W33018   4.152   5.479   4.178 -0.2467  0.1287  0.1698
16945W        W33019   1.049   1.447  16.524 -0.1292  0.2110 -0.2146
16946W        W33020   9.355   4.812   1.345 -0.2363 -0.1333  0.2960
16947W        W33021  17.815   2.480   3.012  0.1240  0.0086  0.1184
16948W        W33022  12.069   9.158   1.527 -0.3856  0.1181  0.0265
16949W        W33023  14.903   4.882  13.274 -0.0461  0.1429  0.1786
16950W        W33024   0.303  10.376   3.870  0.0043 -0.1445  0.2369
16951W        W33025  14.806  17.655  12.863 -0.0457  0.0110  0.2507
16952W        W33026   4.628  12.497   1.420  0.0624  0.1265 -0.0500
16953W        W33027   3.398   7.558   4.093 -0.0060 -0.0300 -0.0535
16954W        W33028  11.129   6.828  15.542  0.1474 -0.3558  0.1298
16955W        W33029   3.430   6.344   5.008 -0.1139 -0.1755 -0.1852
16956W        W33030  11.099  13.988  12.570  0.0439 -0.0032  0.0279
16957W        W33031  10.443   8.676  16.181 -0.1599 -0.1091 -0.2745
16958W        W33032  11.482   3.967   3.417 -0.1908  0.0209 -0.0548
16959W        W33033  15.709  15.532  11.887  0.0269 -0.3238  0.1334
16960W        W33034   4.114  11.154  13.083 -0.2193  0.1145 -0.1998
16961W        W33035  12.050   2.196   4.884  0.0079  0.0653  0.4256
16962W        W33036  15.722   4.489   0.158 -0.1419  0.1304  0.0732
16963W        W33037   4.849   4.496   1.084 -0.0128  0.0819  0.2844
16964W        W33038  14.893   0.399   4.952 -0.0267 -0.2261 -0.0617
16965W        W33039   9.291   3.281   3.357  0.4298 -0.1599 -0.0094
16966W        W33040  17.117  17.377   2.690  0.1400  0.2676  0.0500
16967W        W33041  11.211   9.727  12.145 -0.0090 -0.1796  0.1096
16968W        W33042   1.063   5.244   0.526 -0.2232 -0.1460 -0.0949
16969W        W33043  15.926  16.950  12.917 -0.0701  0.1426 -0.0384
16970W        W33044  14.524  15.674  16.686 -0.0758  0.0174  0.1767
16971W        W33045   1.582   7.956  14.442 -0.2518  0.0633  0.0887
16972W        W33046   3.521   5.482   4.441  0.0812  0.0474  0.0346
16973W        W33047   2.455   3.030   3.624 -0.0236  0.0846 -0.0659
16974W        W33048  14.775  12.855  12.871 -0.1133 -0.1091 -0.2662
16975W        W33049  11.808  13.578   2.035 -0.2261  0.2221  0.0646
16976W        W33050   6.932   3.168  11.845  0.1901 -0.1470 -0.1678
16977W        W33051   9.905   6.538  15.152  0.1981  0.0129  0.0572
16978W        W33052   5.399   4.109   5.110  0.0038  0.1119  0.0235
16979W        W33053  12.492  14.925  12.787 -0.1422 -0.1018  0.2861
16980W        W33054  13.255   0.644   4.271 -0.1735  0.1248  0.0599
16981W        W33055  11.199  14.277  16.504 -0.0377 -0.3013  0.0723
16982W        W33056  11.955   0.116  11.953  0.1274 -0.0667  0.2009
16983W        W33057  13.610   9.139   0.646  0.0819  0.2237 -0.0956
16984W        W33058   1.559  14.455  15.225 -0.1751  0.1555 -0.0849
16985W        W33059  11.418  16.630   0.599 -0.3487 -0.2641 -0.0396
16986W        W33060   9.178   0.016   5.018  0.1100  0.3069 -0.1855
16987W        W33061   5.740   7.707  15.835  0.3577  0.1939 -0.2052
16988W        W33062   7.991   3.205   1.470  0.2614 -0.1917 -0.1849
16989W        W33063  17.551   0.328  16.908  0.0244 -0.2512  0.0086
16990W        W33064   3.857  15.048  15.824 -0.0741  0.0945  0.2848
16991W        W33065   4.418  13.453   0.179 -0.1499  0.0917 -0.1428
16992W        W33066  11.206   3.054  12.778  0.0394  0.0263 -0.0009
16993W        W33067   7.377   7.903  13.430 -0.0493  0.1833 -0.0126
16994W        W33068   8.879  17.061  15.455  0.2813  0.2805  0.3102
16995W        W33069  11.301   3.377   5.318 -0.1517  0.2292  0.3487
16996W        W33070  14.031  14.059   1.150 -0.2572 -0.0857 -0.0678
16997W        W33071   6.116   5.263  14.734  0.1876  0.1807  0.1312
16998W        W33072   0.317  14.249  16.834 -0.0203  0.1848  0.0735
16999W        W33073   7.162   1.333  16.239 -0.0029 -0.0780 -0.0043
17000W        W33074   1.861   3.004   5.767 -0.1683 -0.0370  0.2170
17001W        W33075   6.660  11.630  16.511  0.2054  0.0382  0.1377
17002W        W33076  16.933   7.654  13.995  0.3423  0.0996 -0.0353
17003W        W33077  13.554   0.747   2.833 -0.0445  0.0462 -0.3211
17004W        W33078   1.957  14.452  12.762  0.0790 -0.1774  0.1754
17005W        W33079   8.820  12.546  13.738  0.2108 -0.0243 -0.0591
17006W        W33080  13.005   3.092   2.834 -0.1630  0.0176  0.0575
17007W        W33081   0.377  11.546   4.728 -0.1705  0.1910  0.3352
17008W        W33082  11.286   6.583  16.339  0.0113 -0.0447  0.0081
17009W        W33083  16.812   2.182  15.731  0.1286  0.3392  0.0106
17010W        W33084  16.144   5.104  11.357 -0.0285  0.1703 -0.1829
17011W        W33085  13.309  17.739   3.140 -0.0709  0.2367  0.0456
17012W        W33086  15.491  16.667   4.423 -0.1059 -0.0845  0.0674
17013W        W33087   5.221  14.631   1.836 -0.4650  0.0164  0.1408
17014W        W33088  17.302  13.170  12.764 -0.0260 -0.1631 -0.0880
17015W        W33089   3.360   4.137  13.983 -0.1037  0.0756 -0.1857
17016W        W33090  12.186   6.448  14.129 -0.0933 -0.1402 -0.3328
17017W        W33091  13.521  13.344   1.311 -0.2753  0.1487 -0.0546
17018W        W33092  12.837   5.248   4.652  0.1936  0.0716 -0.0932
17019W        W33093  12.467   5.489   4.316  0.0051  0.2917 -0.3805
17020W        W33094  17.055   9.075   5.022  0.0722 -0.0033 -0.2672
17021W        W33095  11.536   9.153   0.950 -0.0436  0.2753  0.1025
17022W        W33096   0.407  17.664   4.475 -0.2105  0.0648  0.0904
17023W        W33097  12.790   9.057  14.179 -0.3092 -0.2476  0.0271
17024W        W33098   3.491  10.573  13.223  0.0713 -0.2105  0.1503
17025W        W33099  10.792   1.076   0.659 -0.0816 -0.2203  0.2796
17026W        W33100  16.822   6.186   3.404 -0.0003  0.0075  0.0461
17027W        W33101  14.987  10.815   2.473  0.2073  0.1939 -0.3188
17028W        W33102  12.329   7.860   4.644 -0.1353  0.0344 -0.0070
17029W        W33103   1.720   1.083  13.333 -0.3001 -0.4139  0.0342
17030W        W33104  14.398  16.757   0.947 -0.0445 -0.2257  0.0839
17031W        W33105   7.264  15.180   1.017  0.2950  0.0965 -0.2542
17032W        W33106   0.810  15.761   5.352 -0.1384 -0.2585  0.1624
17033W        W33107  14.925  15.034   3.954 -0.3348 -0.0800 -0.1091
17034W        W33108  15.631  15.145  14.439  0.0210  0.2181 -0.2871
17035W        W33109  13.772   3.560   4.126  0.0980  0.0987 -0.0957
17036W        W33110  14.596  12.519   5.366  0.0421 -0.0978 -0.0780
17037W        W33111   8.415  13.037  16.626  0.3162 -0.4114  0.3491
17038W        W33112  12.344  10.561  11.640  0.1443  0.1550  0.0324
17039W        W33113  11.444  17.221   1.184  0.0769 -0.1823  0.2365
17040W        W33114  11.780  13.752  12.813 -0.1277  0.0602  0.0543
17041W        W33115  13.681  10.472  11.401  0.0699 -0.1644  0.1253
17042W        W33116   7.141   3.383   1.004  0.2938 -0.0767  0.1899
17043W        W33117   2.035   2.803  12.637 -0.2556  0.1022  0.0413
17044W        W33118  16.818  13.210  13.691  0.2248  0.2075 -0.0644
17045W        W33119  10.418   5.593  16.181 -0.4388 -0.1626  0.2501
17046W        W33120   9.317  13.471  13.058  0.0799  0.2105  0.1609
17047W        W33121   2.098   6.959   0.549 -0.0920  0.1783 -0.0199
17048W        W33122   4.845  12.141   0.519 -0.1142 -0.3902  0.0399
17049W        W33123   4.081   6.046   3.983 -0.2718  0.1164  0.3562
17050W        W33124   3.720   4.886   3.127  0.0545  0.2250 -0.2053
17051W        W33125  13.068  17.022  15.171  0.3070 -0.1289  0.3884
17052W        W33126   4.497  17.625   4.646 -0.1073  0.3079 -0.3164
17053W        W33127  14.119  10.613  13.109 -0.0848 -0.1474 -0.0324
17054W        W33128  15.525   4.058   5.373  0.4298  0.1172  0.0967
17055W        W33129  16.422   5.253  15.705 -0.1661 -0.2545 -0.3715
17056W        W33130   8.187   7.961  14.827 -0.1938 -0.2703  0.0946
17057W        W33131   9.101  12.575   1.770  0.0426  0.2114 -0.2223
17058W        W33132  11.930   5.368   0.627  0.1116  0.1379  0.1631
17059W        W33133  13.810  14.599  13.985 -0.2394 -0.2207  0.0245
17060W        W33134  15.994  12.745  12.607  0.0075 -0.1011  0.0282
17061W        W33135   9.469   3.318  12.880  0.3358  0.1121  0.4027
17062W        W33136  15.298   6.984   0.686  0.1525 -0.1493  0.2151
17063W        W33137   8.377   3.077  11.632  0.0994  0.0086 -0.1563
17064W        W33138  10.084  11.783  13.478 -0.4282  0.1412 -0.2432
17065W        W33139   6.733  17.296   5.070  0.1121 -0.0874 -0.1081
17066W        W33140   6.089   3.324   1.520 -0.0931 -0.0746 -0.1227
17067W        W33141  14.569  12.111  13.253  0.0052  0.1981 -0.1682
17068W        W33142   4.998   3.072   2.082 -0.0351  0.2077  0.2258
17069W        W33143   1.388   5.939   4.764 -0.1924  0.1521  0.1474
17070W        W33144   4.011  17.582   5.992 -0.1092 -0.2468 -0.0876
17071W        W33145  17.210   1.855   4.715 -0.2656 -0.2374 -0.0888
17072W        W33146  17.789  11.212   2.834  0.0309  0.0458 -0.1168
17073W        W33147   4.559  13.657   5.022  0.0839 -0.2801 -0.1334
17074W        W33148  14.695  17.119   1.936 -0.0477 -0.1162  0.0820
17075W        W33149  10.154   3.816   1.377  0.1414 -0.0788  0.1392
17076W        W33150   3.620   5.347  14.369  0.1154  0.0184  0.0207
17077W        W33151   9.076  14.717   4.509  0.1110 -0.1601 -0.2037
17078W        W33152   8.242  10.088   1.429 -0.0853 -0.0706  0.0337
17079W        W33153   4.554   3.129   0.679 -0.0047 -0.1862 -0.3781
17080W        W33154   2.105   4.116   5.218  0.0108 -0.1251  0.1283
17081W        W33155  14.998  10.268   0.294  0.0268  0.0061  0.0404
17082W        W33156   5.836   5.022   1.010  0.1166 -0.0993  0.2966
17083W        W33157   6.405   6.195  12.535  0.2090 -0.1060  0.0386
17084W        W33158   8.422  16.364   0.047 -0.1883 -0.2218 -0.1502
17085W        W33159   8.275   0.804  16.587  0.0328 -0.0544  0.2077
17086W        W33160  14.853   0.042  11.328  0.0305  0.0942 -0.0623
17087W        W33161   5.441   8.703  13.673 -0.0494  0.1733  0.0171
17088W        W33162   5.851  12.682   4.195  0.2520  0.0864 -0.0292
17089W        W33163  13.204   5.515   1.699  0.2725 -0.1660  0.0970
17090W        W33164   9.084   3.550   5.995  0.0961  0.0637 -0.2334
17091W        W33165   7.717  14.560  12.610 -0.1903  0.0787  0.2462
17092W        W33166  10.815  13.856  15.348  0.1233  0.0071  0.1306
17093W        W33167   4.345  10.905   5.724 -0.1127 -0.2019  0.0182
17094W        W33168   7.053  17.095  16.304  0.0833 -0.1011 -0.1055
17095W        W33169   2.518  15.194  11.696  0.0548 -0.0391  0.1382
17096W        W33170   7.438  17.396  11.856 -0.3014  0.0761  0.0437
17097W        W33171   6.625   5.807  14.150 -0.1105  0.1284  0.0662
17098W        W33172  10.524   6.146   3.959 -0.0616 -0.0666 -0.0540
17099W        W33173   1.072   8.360  12.064  0.0696  0.1012 -0.1146
17100W        W33174  11.541  16.460  11.647 -0.3675  0.3756  0.2310
17101W        W33175  12.275   7.581  14.101  0.1885 -0.0807  0.2721
17102W        W33176   9.212   3.197   2.850 -0.1105  0.1269  0.0832
17103W        W33177   4.860  12.131  12.437  0.1091 -0.1447  0.1847
17104W        W33178   8.464   4.953  16.694 -0.1112  0.2233  0.3213
17105W        W33179  16.544  14.109  13.499  0.0136 -0.1365  0.1194
17106W        W33180   9.309   6.525  12.043 -0.2587 -0.1464  0.1014
17107W        W33181  11.230  13.160  16.763  0.4925 -0.1207 -0.1316
17108W        W33182  13.960   8.398   5.560  0.1956 -0.1850 -0.1590
17109W        W33183  10.562  15.971   5.311 -0.1387 -0.2066  0.1006
17110W        W33184   0.715   8.460  13.052  0.1397  0.3431  0.0931
17111W        W33185   7.542   1.166   3.118  0.4866 -0.3040 -0.1499
17112W        W33186   6.800  16.935  12.248 -0.1955  0.1406 -0.1343
17113W        W33187   0.790  12.818  12.429  0.1627  0.1670 -0.2616
17114W        W33188  12.749  12.595   2.658  0.2362 -0.2791 -0.2239
17115W        W33189  11.277  15.484  14.481  0.2428 -0.0922  0.0031
17116W        W33190  12.888   4.131  13.920  0.1133 -0.0562 -0.0741
17117W        W33191   8.862   7.373   2.416 -0.1634 -0.1572 -0.0214
17118W        W33192   2.506  10.567   2.420  0.3912 -0.0442  0.1864
17119W        W33193  13.905  14.585  12.842 -0.2175  0.1645 -0.3583
17120W        W33194   2.878  15.344  11.255  0.0159 -0.0872  0.0729
17121W        W33195  10.081  13.390  15.152 -0.0321  0.0208 -0.0308
17122W        W33196  12.360   0.715   4.264  0.0620  0.1497  0.2296
17123W        W33197  16.756  13.922  13.911  0.1254  0.0445  0.3317
17124W        W33198   0.033  10.157   1.596 -0.2080 -0.1478  0.1263
17125W        W33199  17.100   0.719  16.747 -0.1071 -0.0379  0.2505
17126W        W33200   2.506  11.802  11.111  0.0769  0.0330 -0.0547
17127W        W33201  13.970   1.828   4.131  0.0048 -0.0692 -0.4371
17128W        W33202  15.960   5.592   1.924  0.2684 -0.2803  0.1354
17129W        W33203   4.964   2.567   2.154  0.1254 -0.0575  0.1318
17130W        W33204  14.986   7.869  14.435 -0.1961 -0.1099 -0.0949
17131W        W33205   0.091   8.010  13.817 -0.1407 -0.0611 -0.1381
17132W        W33206  13.869   7.557  15.645  0.1409  0.1446 -0.2658
17133W        W33207   8.496   4.198  14.668  0.0197 -0.0356  0.1549
17134W        W33208   8.446  11.163  13.988 -0.0158  0.0778 -0.1384
17135W        W33209  14.836  17.354  15.200  0.3063  0.0029 -0.0801
17136W        W33210  10.349   9.007  14.892  0.0925  0.0106  0.1786
17137W        W33211   5.570   2.988   3.760 -0.2710  0.0737  0.0318
17138W        W33212   7.556  15.281  14.722 -0.2096 -0.0600 -0.0289
17139W        W33213   6.441   6.577  12.861  0.0500 -0.2476  0.0495
17140W        W33214   9.340   4.694   3.948  0.0659  0.1840  0.2433
17141W        W33215   5.557  10.464   0.283 -0.1409 -0.1910 -0.1692
17142W        W33216   9.268  10.411   1.906  0.0255 -0.2512  0.5224
17143W        W33217   9.317  13.484   3.576  0.2025 -0.1304  0.0749
17144W        W33218  17.593   0.045   4.985  0.0051 -0.1623 -0.0114
17145W        W33219   0.547   7.873  14.827  0.4160 -0.1749  0.1740
17146W        W33220  12.376   3.820  12.975  0.0162  0.2336  0.0502
17147W        W33221  14.357  14.404   0.918  0.3001 -0.0569 -0.0163
17148W        W33222   3.523  17.794   4.697 -0.0695  0.1966 -0.3764
17149W        W33223  14.767  14.416  13.819  0.0507 -0.1405 -0.2248
17150W        W33224  12.632  13.993   4.527  0.0734 -0.0991  0.0704
17151W        W33225   0.962  17.144  15.242 -0.1528 -0.0178  0.0869
17152W        W33226  13.611  13.417  16.263 -0.6508 -0.1341 -0.0367
17153W        W33227   0.456  10.127   0.351  0.2541 -0.3092 -0.0169
17154W        W33228  17.513   3.949   0.793 -0.0537  0.1995  0.1543
17155W        W33229   0.615  14.887   5.562 -0.0779  0.0402 -0.3313
17156W        W33230   1.341  10.447  15.423 -0.0167 -0.1762 -0.0708
17157W        W33231   5.942  10.857   3.557 -0.0513  0.0110  0.0340
17158W        W33232  13.085   2.994   2.283 -0.0058  0.4733  0.0539
17159W        W33233   8.920   1.634   1.159 -0.0879  0.2659 -0.3783
17160W        W33234   5.070   5.558  16.931 -0.1456  0.1917  0.5218
17161W        W33235   1.121  16.141   0.113 -0.1445 -0.1748  0.2878
17162W        W33236   6.654   3.617   4.839  0.1626  0.2231 -0.3801
17163W        W33237   4.330  12.600   3.142 -0.3341 -0.0200 -0.1951
17164W        W33238   0.578   1.925   3.357 -0.3104 -0.0718  0.0884
17165W        W33239   9.226   6.486   5.293 -0.1859  0.0635  0.0511
17166W        W33240  15.308   1.251  13.233  0.2617  0.0640 -0.1029
17167W        W33241  13.173  11.360   2.129 -0.0947 -0.0458 -0.3277
17168W        W33242  16.708   3.094  16.157 -0.2833  0.1223 -0.2356
17169W        W33243  13.987   0.706   1.708 -0.3247 -0.1475 -0.0562
17170W        W33244  11.014   8.089   1.738  0.0872 -0.4516  0.2241
17171W        W33245   2.246   8.447   3.219  0.0562  0.1052  0.2285
17172W        W33246   7.911   9.966  15.772 -0.2831  0.0728 -0.2246
17173W        W33247   7.415  15.158  12.637 -0.1384  0.1730  0.1421
17174W        W33248   1.998  12.526   0.392  0.1297  0.0798  0.3142
17175W        W33249  15.178   8.854  11.986  0.0115 -0.0359  0.1382
17176W        W33250   3.921   3.387  15.789  0.5415  0.0655  0.0957
17177W        W33251   9.244  16.980  15.792  0.1630 -0.0049  0.0429
17178W        W33252   1.859   6.310   0.831  0.1983 -0.0819 -0.0121
17179W        W33253  13.161  10.255   0.714 -0.0199 -0.1033 -0.1748
17180W        W33254  16.132  11.722   1.121  0.0412  0.0635  0.0751
17181W        W33255   1.452   4.776  16.575 -0.0890  0.1754 -0.2141
17182W        W33256  15.251  15.255   1.267 -0.1392 -0.1416 -0.0306
17183W        W33257  17.088   1.612   6.108  0.1615  0.0690  0.1791
17184W        W33258  12.569   9.744  12.164 -0.1288  0.2318 -0.0370
17185W        W33259   6.505  10.196   1.252 -0.1769  0.3237 -0.2940
17186W        W33260   9.580  16.222   1.433 -0.0537  0.2857 -0.1286
17187W        W33261   9.825   9.879   3.292 -0.1365 -0.2028 -0.2774
17188W        W33262   8.029  17.751   4.417  0.1490  0.0143  0.0903
17189W        W33263  13.039   4.381  16.691  0.0938 -0.2077  0.1430
17190W        W33264  11.342   1.731   3.455 -0.2926 -0.3274  0.0923
17191W        W33265  17.249  16.821   3.050 -0.0328  0.0444  0.3096
17192W        W33266  17.534  17.662  13.721  0.2435  0.6313  0.2779
17193W        W33267   1.835   4.393  12.084 -0.0224 -0.1217 -0.2119
17194W        W33268   5.208   2.944  11.556 -0.1995  0.1820 -0.1152
17195W        W33269   6.955   8.160  14.931 -0.2763  0.3646  0.0525
17196W        W33270  15.291  17.699  12.550 -0.2172  0.0266 -0.0335
17197W        W33271   4.632   4.268   0.637  0.0181  0.0177 -0.0730
17198W        W33272  17.626   5.008   0.354 -0.4399  0.1710 -0.0904
17199W        W33273  10.689   4.212   3.727 -0.0650  0.0612  0.0169
17200W        W33274   9.039  12.585  16.233  0.1017 -0.1742  0.0928
17201W        W33275  10.690   5.976  16.601 -0.2871  0.2950 -0.2511
17202W        W33276   5.470  11.498   1.740 -0.0140 -0.0473  0.1753
17203W        W33277  14.730   7.022   0.034 -0.2065 -0.0442  0.1137
17204W        W33278   4.023  12.212  15.458 -0.0425  0.1827  0.1472
17205W        W33279   0.241   1.106   3.641 -0.2643  0.2261  0.0466
17206W        W33280   4.381   4.325   3.924 -0.1434 -0.0969 -0.0171
17207W        W33281   0.940  12.704   1.244 -0.1908 -0.1486  0.3071
17208W        W33282   3.418   8.517  11.871  0.0672  0.0996  0.2145
17209W        W33283   0.352  11.353  14.733  0.0539  0.0439  0.0152
17210W        W33284   9.126   2.971   5.191 -0.2516 -0.0316  0.0553
17211W        W33285   4.949   5.866   2.752 -0.0729  0.2194 -0.0068
17212W        W33286  17.268   2.574   4.265  0.1332  0.0576 -0.0907
17213W        W33287   2.272   5.844  11.466  0.1230 -0.1270 -0.0295
17214W        W33288   8.570  11.741  13.092  0.0281 -0.0291 -0.1201
17215W        W33289  17.276  15.981  16.881  0.1846 -0.2897 -0.0384
17216W        W33290   0.175   5.519   4.569  0.0501  0.1167 -0.1703
17217W        W33291   7.915   4.933  12.662  0.3467  0.3739  0.2987
17218W        W33292   3.700  17.070   5.115 -0.0458  0.1659  0.0615
17219W        W33293   6.521  17.374  12.380  0.2944 -0.0813  0.1781
17220W        W33294   2.042   3.188   3.258 -0.1402 -0.0174  0.0107
17221W        W33295  16.822  15.550  13.250  0.4071 -0.2338  0.0194
17222W        W33296   7.754  14.552  13.944 -0.1047 -0.2813  0.0090
17223W        W33297   8.226   3.225   6.390 -0.0192  0.0031 -0.0931
17224W        W33298   4.409  12.550   4.712 -0.2116 -0.0848 -0.3915
17225W        W33299  14.981   6.939   2.869 -0.1347 -0.1228  0.1703
17226W        W33300  12.498   9.160   1.774  0.0320 -0.1196 -0.0098
17227W        W33301   8.582   8.315  13.261  0.2392  0.0172 -0.0716
17228W        W33302  16.946  17.776   3.474  0.0721 -0.1691  0.0150
17229W        W33303   7.801   0.619   1.678 -0.1359 -0.1534  0.2415
17230W        W33304   3.062   4.856  16.608  0.0275  0.3154  0.0105
17231W        W33305   2.509   9.837  13.122  0.0004 -0.0111 -0.1675
17232W        W33306   1.960  16.303   4.136  0.1991  0.0130  0.1915
17233W        W33307   1.095   8.920   5.419  0.3028  0.1567  0.1374
17234W        W33308   8.778   8.793  13.041 -0.1846 -0.0891  0.1221
17235W        W33309   7.442   9.889  13.014 -0.2819  0.2936 -0.1154
17236W        W33310   7.635   2.867  16.555  0.1235 -0.0645 -0.2494
17237W        W33311  12.391   5.453  14.320  0.1500  0.0201 -0.2021
17238W        W33312  13.427   5.452  15.059 -0.1570  0.0073 -0.0642
17239W        W33313   8.151  13.428  14.938 -0.1449  0.0287 -0.2190
17240W        W33314   6.506  16.526  15.879 -0.0165  0.0268 -0.1163
17241W        W33315  11.688   8.261  14.494 -0.0902  0.3417 -0.3451
17242W        W33316   8.325   5.011   2.881 -0.1210 -0.5340  0.2852
17243W        W33317   3.515   7.552  12.919  0.2173 -0.0118  0.0789
17244W        W33318   0.131  17.024  13.783 -0.0285  0.2206  0.0233
17245W        W33319   6.887   6.562  12.417 -0.0751  0.1583  0.0535
17246W        W33320  14.274  15.183   0.664 -0.1551  0.0005 -0.0065
17247W        W33321   6.067  14.889   0.504 -0.2224 -0.3390 -0.3375
17248W        W33322   3.882  11.208  13.804  0.0207 -0.0852 -0.2401
17249W        W33323   9.365   2.111   5.764  0.0052  0.0442  0.0968
17250W        W33324  17.237  15.153   2.748  0.0804 -0.1502  0.1636
17251W        W33325  16.322   6.366   4.776  0.0282  0.2209  0.2152
17252W        W33326   2.239   0.760  14.177  0.1611  0.1932  0.2129
17253W        W33327   8.544  16.816  13.283 -0.2855 -0.0412 -0.3130
17254W        W33328  11.436   2.596  15.455  0.0843 -0.0424 -0.0458
17255W        W33329   2.205   9.946   1.170 -0.3941  0.1226  0.1777
17256W        W33330  11.179  11.899  15.492 -0.0545  0.0882  0.0705
17257W        W33331  15.117   2.518  12.438 -0.1978 -0.0937 -0.0756
17258W        W33332   2.361  15.211  13.012 -0.2176 -0.0402  0.3536
17259W        W33333   1.683  10.957   2.666  0.1277 -0.0324 -0.0980
17260W        W33334   4.972  14.615   3.999  0.0422 -0.0820 -0.3603
17261W        W33335   1.910  16.008   0.469 -0.3106 -0.2239 -0.0727
17262W        W33336   0.587   4.567  12.553  0.0037  0.2547 -0.0826
17263W        W33337   4.045  10.067   4.465 -0.0097  0.1883  0.1247
17264W        W33338   0.856   1.204   1.756 -0.1681 -0.1418  0.0470
17265W        W33339  10.541  11.881   5.290 -0.1410 -0.1719  0.5114
17266W        W33340  12.127  17.063   1.259 -0.0801  0.2840 -0.1141
17267W        W33341  12.968  17.754   1.752 -0.2660 -0.1908  0.1243
17268W        W33342   5.334  15.937  12.679 -0.1237  0.2228 -0.1797
17269W        W33343  10.444  13.727  14.990 -0.1240 -0.0707 -0.1960
17270W        W33344   2.731  14.852   5.484 -0.0327  0.1317 -0.0702
17271W        W33345  16.837   4.607   5.912 -0.0835  0.1805 -0.0147
17272W        W33346   0.154   9.945   1.997 -0.0081 -0.1151 -0.2125
17273W        W33347  10.884   3.694  16.746  0.2069 -0.3524 -0.5143
17274W        W33348  11.468   2.338  16.865  0.1416 -0.0352  0.0550
17275W        W33349   1.511   1.373   5.083 -0.2150 -0.3115 -0.0416
17276W        W33350   3.101   6.924   1.157 -0.2694 -0.2634 -0.1240
17277W        W33351   5.444   6.159   1.328  0.0175 -0.0137  0.3941
17278W        W33352  12.929  11.275   4.834  0.4334  0.0579 -0.0758
17279W        W33353  11.902   1.814  15.111  0.3760  0.2728  0.0213
17280W        W33354  17.604  10.867   0.306 -0.0284  0.0289 -0.1141
17281W        W33355   4.646   8.422   3.064  0.4084  0.0479 -0.3571
17282W        W33356   2.621   3.819  11.649  0.1807 -0.3035 -0.2981
17283W        W33357   3.077  13.412   4.507  0.1561 -0.0709 -0.2092
17284W        W33358   7.972  16.206   1.002  0.0595  0.1321 -0.2246
17285W        W33359   1.838   2.309   1.206  0.0833  0.0807  0.4501
17286W        W33360   1.132  14.807  15.306  0.0465 -0.1508  0.3323
17287W        W33361   6.997  13.225   5.360  0.0632 -0.0598  0.1289
17288W        W33362  12.932  11.741   4.344 -0.1371 -0.2249 -0.2711
17289W        W33363  14.002  15.063   5.925  0.3869 -0.0232  0.1369
17290W        W33364   0.386  16.065  14.417 -0.1239  0.0027 -0.0327
17291W        W33365   5.599  15.192  15.202  0.0618  0.1419  0.1551
17292W        W33366   5.530   9.874  12.144  0.2760  0.1394  0.1205
17293W        W33367   2.190   5.399  16.743 -0.2714  0.0337  0.0103
17294W        W33368  16.248   7.387  16.558 -0.1487  0.1045  0.0854
17295W        W33369   8.264  14.317  11.707  0.1581 -0.1018 -0.0295
17296W        W33370   5.052   6.716  12.576  0.0256  0.5801  0.2074
17297W        W33371   8.788   9.013   5.800  0.0365  0.1469 -0.3435
17298W        W33372  10.018  15.293   1.684  0.0225  0.0781  0.1997
17299W        W33373   8.825  11.658  12.452 -0.1189  0.1266 -0.1012
17300W        W33374   2.262   2.526   5.621  0.1966 -0.1643  0.2332
17301W        W33375  10.507  15.664  16.365 -0.1080  0.0613  0.2652
17302W        W33376   3.196   5.302   1.839 -0.1663  0.2873  0.0684
17303W        W33377  12.467   1.762   5.519  0.1783  0.0531 -0.1871
17304W        W33378  11.970  11.580   0.929 -0.1131 -0.1588 -0.0744
17305W        W33379   4.339   2.046  15.559  0.0053  0.0025  0.1915
17306W        W33380   0.248  15.456  13.041  0.1504 -0.2546 -0.3954
17307W        W33381   8.371   3.846   4.143  0.1480  0.3721 -0.1120
17308W        W33382   7.729  11.756   3.533 -0.1555 -0.1240  0.2220
17309W        W33383   4.524  10.452  12.792 -0.1022 -0.0094 -0.0489
17310W        W33384   5.257   4.301   1.867  0.0855 -0.2167 -0.1645
17311W        W33385   7.080  13.567  11.632  0.1265 -0.4713  0.1338
17312W        W33386  14.750  10.065   1.151 -0.1947  0.4533 -0.1979
17313W        W33387  14.016   6.241   5.135  0.1261  0.0113  0.1418
17314W        W33388   3.739   1.665   6.207  0.0565  0.0474 -0.0821
17315W        W33389  10.174   1.039  16.122 -0.1133  0.1739 -0.0527
17316W        W33390  13.907   0.746   5.593 -0.1172 -0.1391 -0.1806
17317W        W33391  14.050   9.090  13.276 -0.2213  0.0312 -0.1806
17318W        W33392  17.679  13.966  12.461  0.2112 -0.0993  0.1819
17319W        W33393  15.347   1.558   1.473  0.0532  0.3602 -0.6993
17320W        W33394   3.567  10.124  13.801 -0.2119 -0.1161  0.1843
17321W        W33395  13.681  13.795  15.938 -0.0953  0.1300  0.1735
17322W        W33396  17.075  17.441  14.851 -0.0579  0.1727  0.4268
17323W        W33397   6.965  17.486  12.178 -0.0919  0.2325  0.1807
17324W        W33398  10.529   0.331   2.221  0.0311  0.1770 -0.1132
17325W        W33399  16.105  10.393   6.139 -0.0206 -0.1444  0.1031
17326W        W33400   2.400   6.755   4.124 -0.0633 -0.1376 -0.1924
17327W        W33401  11.629  14.316  13.055  0.3171 -0.2225 -0.0241
17328W        W33402   3.287  12.728   2.745 -0.0049 -0.2611 -0.2562
17329W        W33403  11.677   8.136  15.518 -0.0659 -0.1005  0.0772
17330W        W33404   3.610  10.201   0.079  0.0279 -0.0557 -0.0428
17331W        W33405  13.492   3.257   0.259  0.1892  0.0208 -0.2061
17332W        W33406  17.252   2.168  14.778  0.1149  0.0802  0.1623
17333W        W33407  13.120  11.063  16.209  0.2415  0.1675  0.2001
17334W        W33408   5.979   8.932  16.656  0.1662  0.0197 -0.1422
17335W        W33409  12.552  13.360   6.418  0.4064  0.0853 -0.0476
17336W        W33410  16.155  11.288   1.935 -0.1829  0.0540 -0.1904
17337W        W33411   5.535   6.237  13.865 -0.1208  0.2149 -0.1077
17338W        W33412   4.278  12.848   4.280  0.2320 -0.0417  0.0785
17339W        W33413  12.646  17.727  13.558  0.0130 -0.1485  0.1046
17340W        W33414  15.318   6.099  15.513  0.0447  0.0195 -0.0502
17341W        W33415   5.769   2.766  14.994 -0.0290  0.0761 -0.0759
17342W        W33416  16.627   6.938  12.015 -0.2012 -0.1372  0.0753
17343W        W33417   8.647   5.671  14.771  0.1679 -0.0632 -0.4467
17344W        W33418   3.765   1.751  14.479 -0.2312  0.0612  0.0257
17345W        W33419   4.750   7.953  16.034  0.3877 -0.0399  0.0158
17346W        W33420   6.014  15.664   5.545  0.3203  0.1573 -0.0744
17347W        W33421   6.370   6.369   5.806 -0.0161 -0.2725 -0.1043
17348W        W33422  15.680  16.097  13.004 -0.1308 -0.4099  0.2596
17349W        W33423   6.619   2.622   5.803  0.1235  0.0798  0.0862
17350W        W33424   9.544   9.609   2.985  0.1915  0.0061 -0.3146
17351W        W33425  11.736  16.021   4.518  0.2377 -0.0050  0.2461
17352W        W33426   8.030   5.653  13.595 -0.0158 -0.0478 -0.0088
17353W        W33427   2.641  11.550   6.231 -0.0726  0.2870 -0.3011
17354W        W33428  16.805  10.680   3.173 -0.2057 -0.0594  0.4449
17355W        W33429   3.945   9.379  15.780  0.0620  0.0428  0.2674
17356W        W33430  10.682   3.790   1.589  0.4181  0.7345  0.0652
17357W        W33431   7.731   0.177   2.045  0.0377 -0.0997  0.1042
17358W        W33432  10.075  11.019  14.668  0.0495  0.0283 -0.1371
17359W        W33433  11.901   8.404   0.077 -0.3901  0.1515  0.2340
17360W        W33434  12.472   7.625   2.573 -0.0916  0.2321 -0.0715
17361W        W33435   8.517   0.880   1.081 -0.0787  0.0711 -0.0171
17362W        W33436  13.030  15.958   3.808  0.0497 -0.0263  0.0769
17363W        W33437   8.902  15.979  15.627 -0.1018  0.0712 -0.2292
17364W        W33438  13.524   9.922  13.196 -0.0375 -0.1881 -0.0231
17365W        W33439  11.027   5.119  16.506 -0.2980  0.2518 -0.1000
17366W        W33440   0.074   1.199  14.591  0.4951 -0.0061 -0.2861
17367W        W33441  17.486   8.592   4.192  0.0307  0.2505 -0.0768
17368W        W33442  10.204   3.787  14.785 -0.1028 -0.2500 -0.0058
17369W        W33443  11.960   5.464   5.018  0.0461  0.1784  0.0300
17370W        W33444  17.289   7.689  16.572  0.1565  0.1879  0.0473
17371W        W33445  12.209  13.625  13.140  0.0652  0.1224 -0.2994
17372W        W33446  15.999   4.740   2.536 -0.0226  0.4797  0.1489
17373W        W33447   4.557   9.916  12.926 -0.2748 -0.0348  0.1679
17374W        W33448   1.293  13.267  15.949 -0.1576  0.2152 -0.1358
17375W        W33449   1.375  16.127   3.934 -0.0514 -0.0878 -0.3108
17376W        W33450   2.238   7.210   2.705  0.1559 -0.2440  0.0457
17377W        W33451   8.325  14.875  11.745 -0.1324 -0.0323 -0.1136
17378W        W33452   2.967  12.606   3.974 -0.1131 -0.1159  0.0593
17379W        W33453   7.458  16.933   1.750  0.2603 -0.1886  0.1970
17380W        W33454  11.763  14.056   5.646 -0.1825 -0.0797 -0.2128
17381W        W33455   5.342   1.329   2.434  0.0619 -0.0744 -0.1554
17382W        W33456   6.168  14.261  13.076  0.3542 -0.3358  0.3275
17383W        W33457   4.589   3.982   0.208 -0.0085 -0.0279  0.0834
17384W        W33458   6.867   1.948  15.990  0.1080 -0.1239 -0.1681
17385W        W33459   3.145   9.549   1.237  0.1086  0.2575  0.2755
17386W        W33460  16.130   0.678   2.837 -0.3097  0.1453  0.1072
17387W        W33461  10.191  13.944   2.073  0.0050  0.0239  0.0448
17388W        W33462  13.140   8.480  15.973 -0.1565 -0.0638  0.0325
17389W        W33463  13.601   1.437  13.259 -0.0901 -0.4615  0.0010
17390W        W33464   4.768   4.455  16.613  0.0499  0.2077 -0.3195
17391W        W33465  11.975   5.175   1.161 -0.0564  0.1623  0.1104
17392W        W33466   1.737   0.377   6.106  0.1617 -0.2434  0.0134
17393W        W33467   4.059   9.545   4.578 -0.1284 -0.3993  0.0889
17394W        W33468   1.643  17.770   3.419  0.0941  0.1625 -0.2544
17395W        W33469  14.616  14.109  13.418  0.0504 -0.0819 -0.3085
17396W        W33470   3.289  10.799  13.906  0.2393  0.1854  0.3030
17397W        W33471   2.519  14.788   2.165 -0.0471 -0.0930  0.1477
17398W        W33472  13.004  10.403   2.012 -0.3764 -0.2037 -0.0082
17399W        W33473   7.852   0.297  12.510 -0.3921 -0.3271 -0.3066
17400W        W33474  15.852   6.196   4.175 -0.1666  0.1731  0.2819
17401W        W33475   3.594  11.448   0.170 -0.1296 -0.2293 -0.0183
17402W        W33476   2.724  15.281   2.054  0.3688  0.1028  0.0087
17403W        W33477   1.473  15.516   5.328  0.0420  0.1694 -0.1869
17404W        W33478  16.578  15.069  16.356  0.2031  0.0155 -0.0030
17405W        W33479   7.065   9.345  14.786  0.0106  0.4448  0.0532
17406W        W33480   0.291  12.808   2.114  0.2006 -0.0207  0.1104
17407W        W33481   9.057   3.131  16.580  0.1388 -0.4447 -0.0174
17408W        W33482  13.135   4.151   0.365  0.0813  0.1890  0.2382
17409W        W33483   8.360   2.363  12.459  0.0033 -0.1883  0.3588
17410W        W33484  16.030   8.685  16.713 -0.1195  0.0400 -0.1773
17411W        W33485   4.062  14.220  12.459 -0.1032  0.0256  0.0921
17412W        W33486   2.651   4.778  15.866 -0.1967 -0.1113 -0.1184
17413W        W33487  15.532   5.431   1.234  0.1151 -0.3265 -0.1921
17414W        W33488   9.637  14.723   2.263 -0.3450  0.0939 -0.1259
17415W        W33489   2.106  10.497  13.630  0.1675  0.0817 -0.1343
17416W        W33490  13.503   7.200   2.251 -0.0624 -0.2226  0.1727
17417W        W33491   8.131   9.204   4.781  0.0411 -0.1164  0.1051
17418W        W33492  13.961  15.124   5.389 -0.1315 -0.2751  0.0274
17419W        W33493  16.553   7.911   6.151  0.0210 -0.0343 -0.0653
17420W        W33494   5.083   2.694  15.929 -0.1101 -0.1836 -0.0818
17421W        W33495   7.639   1.586  11.161 -0.2981  0.0911  0.2413
17422W        W33496   2.309   6.771   3.031  0.2760  0.2368  0.2526
17423W        W33497   4.124   2.598   1.975 -0.1081 -0.0028 -0.0015
17424W        W33498  17.516   3.767  15.349 -0.0923  0.2731  0.1049
17425W        W33499  16.238   0.811   3.352  0.2582 -0.0397 -0.0343
17426W        W33500   9.528   5.341  13.308 -0.3081 -0.0611  0.3778
17427W        W33501   2.751   3.714   1.995 -0.1961  0.3426 -0.0509
17428W        W33502   7.697  12.625  13.161 -0.1233  0.0226  0.1902
17429W        W33503  16.524   0.810  14.654  0.1898 -0.2104 -0.2055
17430W        W33504  12.253  16.980  13.795 -0.0191  0.0155  0.1266
17431W        W33505  15.492  12.485   3.525  0.2274  0.1661  0.1392
17432W        W33506  14.886  15.311  16.610 -0.2621  0.2342  0.1489
17433W        W33507   3.532  15.643  14.163  0.1104 -0.1502 -0.1817
17434W        W33508  13.285  13.910   0.463  0.1043 -0.1217  0.2381
17435W        W33509  12.845   7.308   1.378  0.2772 -0.0327 -0.0787
17436W        W33510   8.083  14.137  13.982  0.1140  0.2351  0.1041
17437W        W33511   9.846   3.138   2.716 -0.3739  0.0923 -0.1322
17438W        W33512  10.550   7.575  12.879  0.2191  0.0358 -0.0391
17439W        W33513   4.599  13.109  14.703 -0.2000 -0.0258 -0.2854
17440W        W33514  13.017  16.455  12.764  0.0948 -0.0302  0.0778
17441W        W33515   6.486  13.443   2.189 -0.0619 -0.0550  0.1605
17442W        W33516   0.788   0.083  12.846 -0.0011  0.1690 -0.0695
17443W        W33517   0.110   2.612  15.981 -0.2696  0.1425  0.1256
17444W        W33518  15.713   9.663  13.836 -0.1965  0.1928 -0.0546
17445W        W33519  15.020   3.188   2.404 -0.2138  0.2933 -0.0059
17446W        W33520   9.438   5.695   3.791  0.0064 -0.0714 -0.2341
17447W        W33521   2.807   4.312   2.252 -0.1941 -0.1283 -0.0701
17448W        W33522   1.777  11.946   1.589 -0.0504  0.0267 -0.1037
17449W        W33523   3.359   5.886  14.869 -0.1920 -0.0296 -0.0114
17450W        W33524  13.206  13.934  14.138 -0.4644  0.3310 -0.1742
17451W        W33525  12.370   5.117   0.473 -0.1561  0.0931 -0.0995
17452W        W33526   7.148   5.602   2.611  0.1867  0.3131  0.2875
17453W        W33527  11.611  15.369   1.271  0.1321 -0.2832 -0.1906
17454W        W33528  13.415  11.444  15.305  0.1515 -0.0579 -0.1869
17455W        W33529   6.760  12.176  12.379 -0.1975 -0.2631  0.1060
17456W        W33530  12.495   3.441   3.397  0.0814  0.3567  0.1910
17457W        W33531   7.995   9.440   3.023 -0.1970  0.2376 -0.4883
17458W        W33532  11.576   4.034  14.529 -0.0063 -0.1236 -0.1965
17459W        W33533  15.255  15.487   5.190  0.3005 -0.1971  0.4126
17460W        W33534   6.460   4.807   5.102 -0.1462  0.1590  0.0921
17461W        W33535  12.956   2.601  12.069  0.0844 -0.1671  0.3443
17462W        W33536   4.920  12.098   5.502 -0.2182 -0.0222  0.3379
17463W        W33537   1.855   3.286  15.292  0.1285  0.2588 -0.2041
17464W        W33538  13.094   6.434   3.760  0.0382  0.1607  0.0529
17465W        W33539   3.245  11.535   2.991  0.0732 -0.0861 -0.0424
17466W        W33540   3.789   6.930   0.631 -0.0067 -0.0161  0.1612
17467W        W33541   6.754   3.570  14.452 -0.3224  0.2544  0.0352
17468W        W33542  12.205  13.250  14.373  0.1557  0.3502  0.2094
17469W        W33543   1.293  15.106  10.905  0.0471  0.0130 -0.3105
17470W        W33544   6.656  10.236  15.982 -0.0950  0.0754  0.1298
17471W        W33545   2.483  15.846  16.762 -0.0473  0.1612  0.0928
17472W        W33546  14.632   7.357  12.235  0.0051 -0.0949  0.2960
17473W        W33547   7.531   8.211   1.635  0.0711  0.0863  0.0010
17474W        W33548  17.351  13.887  14.210 -0.0082  0.0300 -0.0398
17475W        W33549   1.872   8.057  16.561  0.0232 -0.2978  0.1219
17476W        W33550  10.168   3.774  16.413 -0.0661 -0.1741  0.2056
17477W        W33551  16.639   9.869  14.695  0.1790 -0.3290 -0.1855
17478W        W33552   6.074   2.014  14.987 -0.2729  0.0685 -0.0551
17479W        W33553   6.533   5.319   4.326 -0.0012 -0.0078  0.1101
17480W        W33554  14.491   7.300  15.644 -0.0237 -0.3787  0.1764
17481W        W33555   9.861  16.250  16.944 -0.1071 -0.0367 -0.2101
17482W        W33556  17.467   2.191   3.845  0.1101  0.0925 -0.3502
17483W        W33557   2.187  16.386   3.376  0.5582  0.0492 -0.1062
17484W        W33558  13.405  15.356   0.514 -0.1263 -0.0025  0.1325
17485W        W33559   2.441  11.876  16.566 -0.1592 -0.0467  0.2629
17486W        W33560   9.677   5.312  12.810  0.0260  0.3865 -0.1847
17487W        W33561  15.692   4.309   2.793 -0.1297  0.3112 -0.0833
17488W        W33562   2.438   8.871   3.325 -0.2649  0.0765  0.2079
17489W        W33563   0.886  11.731  12.181 -0.0524  0.3904 -0.0699
17490W        W33564  12.211   6.819  13.759  0.1018  0.2745  0.2267
17491W        W33565   4.330  13.825   4.073 -0.1409 -0.1330 -0.2210
17492W        W33566  13.596  16.163  14.002 -0.0305  0.0941 -0.0990
17493W        W33567   8.236   2.322   2.049  0.2908  0.2641 -0.0577
17494W        W33568   6.394  13.364  11.761  0.2309  0.0549  0.2081
17495W        W33569   1.833  14.504   2.847 -0.1646  0.4807  0.4847
17496W        W33570   6.066  16.209  11.944  0.0455 -0.3589  0.1965
17497W        W33571   5.443  14.604   4.223  0.0749 -0.0068 -0.0327
17498W        W33572  17.848  14.924  12.266  0.2259 -0.2628  0.1146
17499W        W33573   3.814   8.472  14.793  0.0922 -0.0909 -0.0761
17500W        W33574   2.686  11.659  13.873 -0.0874 -0.1292  0.0745
17501W        W33575  12.892  17.541  16.439 -0.1374  0.3076 -0.0751
17502W        W33576   1.332   3.482   4.234 -0.0997 -0.0237 -0.0569
17503W        W33577  11.197  16.310   2.218  0.0987  0.2969 -0.1114
17504W        W33578  16.431   4.548  15.927  0.1011  0.2104 -0.0902
17505W        W33579  11.512  14.077   2.802 -0.1466  0.1215 -0.0415
17506W        W33580   6.235  16.904   3.096 -0.1002 -0.0545 -0.0578
17507W        W33581  14.581   6.258   0.453  0.3218 -0.1222 -0.1452
17508W        W33582   8.245   9.744  14.482  0.0273  0.0949 -0.0596
17509W        W33583  15.870   8.125   1.803  0.1627  0.0481 -0.2159
17510W        W33584  12.548  12.548   5.339 -0.0528  0.1391  0.1100
17511W        W33585   2.623   4.941  16.927 -0.1044 -0.1002  0.0295
17512W        W33586  15.991  15.504   1.974  0.0655  0.0969 -0.0030
17513W        W33587  13.993   9.643   3.668  0.3618 -0.0404 -0.2092
17514W        W33588  10.255   1.768   1.080  0.2335 -0.0010  0.1756
17515W        W33589   0.558   2.749   5.357  0.0852 -0.1755  0.0468
17516W        W33590   5.624  14.724  12.128  0.3545  0.0516 -0.0244
17517W        W33591   2.670  13.356  13.964 -0.0264 -0.5669  0.1987
17518W        W33592  13.383   3.949   0.721  0.0618  0.3665  0.1547
17519W        W33593   1.024   6.638  12.827 -0.0125 -0.0555 -0.0137
17520W        W33594   7.638   0.226  10.714  0.0162 -0.2120  0.0465
17521W        W33595   5.393  10.816  12.410  0.0745  0.3462  0.0785
17522W        W33596   0.240   2.959   3.428 -0.2824  0.2729  0.1218
17523W        W33597   2.208  16.274   5.492  0.0913 -0.0068  0.0458
17524W        W33598  12.447   3.554  14.121  0.1665  0.0332 -0.1644
17525W        W33599   7.953   9.743   0.829 -0.0498 -0.1970  0.0844
17526W        W33600   4.291   6.875  12.813  0.1961  0.1986 -0.0936
17527W        W33601  16.860  13.091   0.869 -0.4788  0.0882 -0.1567
17528W        W33602   5.586   2.117  16.411 -0.1392 -0.1776 -0.0550
17529W        W33603   8.521  14.787   2.579  0.1159  0.2111 -0.1578
17530W        W33604   4.836   0.018  12.537 -0.1608 -0.1878  0.2057
17531W        W33605   2.829  10.913   1.919  0.0347  0.0366 -0.0080
17532W        W33606   4.675  13.264   4.340  0.0588  0.1694 -0.1964
17533W        W33607   2.896  11.753  12.425  0.1112 -0.0034 -0.1174
17534W        W33608   6.057  11.907  12.775  0.3181 -0.0867  0.3896
17535W        W33609  11.034   2.152  16.937  0.0323 -0.3607 -0.0262
17536W        W33610  17.783  14.964  12.755 -0.0418  0.1647  0.4232
17537W        W33611  15.110   9.969   4.732 -0.1044  0.1017  0.1152
17538W        W33612   5.839  17.054   2.713  0.1255  0.0025  0.2229
17539W        W33613  16.685   6.029  16.582  0.1108 -0.0717  0.0166
17540W        W33614  13.113   8.435   2.949  0.0940  0.2457  0.2701
17541W        W33615   5.953  10.215   2.095  0.1714  0.1827  0.1599
17542W        W33616  15.922  10.227   4.654 -0.2162  0.3290  0.2664
17543W        W33617   9.608   8.539   2.794 -0.1927  0.0694 -0.1917
17544W        W33618  11.689   9.349  14.687  0.1645  0.0460 -0.0688
17545W        W33619  15.811   9.782   4.926  0.0533 -0.2840 -0.0818
17546W        W33620  10.203   0.538  14.380 -0.1923 -0.0242  0.1462
17547W        W33621   3.361   1.823  11.971  0.0855 -0.3640 -0.0680
17548W        W33622   1.835   8.230   3.526 -0.0929 -0.1431  0.2226
17549W        W33623   7.557  12.924  12.307 -0.3490  0.1730 -0.3053
17550W        W33624   4.110   5.161  14.276  0.0501  0.1790  0.0085
17551W        W33625  13.974   4.341   3.219 -0.0878 -0.3835  0.5494
17552W        W33626   0.223  16.455  15.854 -0.0361  0.0802 -0.0975
17553W        W33627   6.220  12.466   5.971  0.1123  0.0925 -0.0896
17554W        W33628  11.395   1.803  16.649  0.1217 -0.0389  0.0494
17555W        W33629  10.067  12.139   0.844  0.1838  0.2304  0.0844
17556W        W33630  16.547  17.254  13.562  0.0049  0.2266 -0.0091
17557W        W33631  12.430  14.695   1.948 -0.0386  0.2510  0.0935
17558W        W33632   5.266  16.087   5.489 -0.0901 -0.0798 -0.0476
17559W        W33633   1.607  14.201   3.717 -0.2046  0.1096  0.2785
17560W        W33634  11.935  14.617   3.523 -0.0770 -0.0747 -0.1114
17561W        W33635   6.978   5.089  14.529 -0.0829  0.0132  0.0333
17562W        W33636   5.678  17.246  13.795  0.0421  0.2224  0.3040
17563W        W33637   2.825  13.525  15.109 -0.0131 -0.0415 -0.1602
17564W        W33638   5.607   8.287  16.728  0.0205  0.4784 -0.4137
17565W        W33639  16.224  16.965   0.497 -0.1664 -0.1458 -0.1728
17566W        W33640  15.988   3.804   5.348 -0.0507 -0.1219  0.1821
17567W        W33641   4.280   3.454   1.000  0.2095 -0.2630  0.0417
17568W        W33642   4.626  16.146  13.463  0.6630 -0.0941  0.5070
17569W        W33643   9.484   6.629   1.750 -0.2037 -0.0489  0.0798
17570W        W33644   9.109   1.505   2.309 -0.5176  0.0114  0.1262
17571W        W33645  16.983   6.163   4.662 -0.0019 -0.1250 -0.0647
17572W        W33646   6.823  13.497  15.960  0.0964 -0.1831  0.0641
17573W        W33647  10.067   1.740  15.948  0.0330  0.2805  0.0501
17574W        W33648   9.099  15.474   1.768 -0.7489 -0.0440  0.2285
17575W        W33649   6.926   7.404  15.176 -0.0384  0.3597  0.1531
17576W        W33650   2.199   6.595  13.960 -0.2289  0.3992 -0.0354
17577W        W33651  17.261   6.558  15.130 -0.2471  0.1803 -0.0754
17578W        W33652  11.398  12.286   3.685 -0.3298  0.0243 -0.0124
17579W        W33653   8.550  12.365  13.048 -0.0192  0.0240  0.2725
17580W        W33654   9.612  11.182   4.600 -0.2116 -0.1291 -0.0742
17581W        W33655  10.046  15.261   4.785  0.0123 -0.0783  0.2274
17582W        W33656   3.050   2.884  14.908 -0.2971 -0.0664 -0.0078
17583W        W33657  12.829   9.852  15.917  0.2429 -0.1171  0.2640
17584W        W33658   4.591  13.362   0.678 -0.0232  0.2100 -0.0073
17585W        W33659   4.619  11.572  16.020 -0.0281  0.0938 -0.1002
17586W        W33660   7.757  13.414  12.438  0.1966  0.1595 -0.5595
17587W        W33661   7.782   9.717  13.539 -0.1346 -0.1557  0.0652
17588W        W33662   5.636  14.687   0.505  0.2539  0.0126  0.1439
17589W        W33663   8.541   1.169  16.352 -0.1933 -0.1116  0.0161
17590W        W33664   9.329   2.724  12.918 -0.0720 -0.2340  0.1268
17591W        W33665  14.246  10.157  14.697 -0.2511 -0.2461 -0.0984
17592W        W33666   2.788   9.248   1.500  0.2078 -0.0646 -0.2823
17593W        W33667  11.835   4.213  12.217 -0.1761 -0.1579  0.0718
17594W        W33668  16.223   1.557   4.982 -0.0408  0.2673 -0.0488
17595W        W33669   5.933  15.375   3.947  0.1082 -0.0996 -0.0049
17596W        W33670  16.286   1.685  14.059 -0.0511  0.0490 -0.1360
17597W        W33671  13.335   4.803  12.613 -0.1562  0.0575 -0.0011
17598W        W33672   2.368  17.015  14.940 -0.3359  0.0155  0.0210
17599W        W33673   7.975  16.740   1.404 -0.2351  0.1345  0.1090
17600W        W33674  12.556   3.188  16.334 -0.0498 -0.3337 -0.0957
17601W        W33675   4.770  11.860   2.707 -0.0160  0.0557 -0.4135
17602W        W33676   4.005  13.675   5.457 -0.1359  0.0539 -0.0247
17603W        W33677  17.414   3.130  13.296 -0.0945 -0.2801  0.0212
17604W        W33678   9.032  15.291   0.681 -0.0568  0.0699 -0.2784
17605W        W33679   9.675  12.754   5.815  0.0926 -0.1758 -0.3181
17606W        W33680   6.967  12.051   2.774  0.0238 -0.1471  0.0241
17607W        W33681  16.390   8.221   4.847  0.1009 -0.2218  0.4514
17608W        W33682   7.572  11.471  14.815  0.0680  0.1089 -0.3675
17609W        W33683  17.482  16.965   0.691 -0.0033 -0.3476 -0.1989
17610W        W33684  15.859  16.317   2.611  0.1544 -0.1750  0.1407
17611W        W33685   0.954   5.039   2.993 -0.1858  0.2307 -0.1914
17612W        W33686   7.860   4.223  11.898  0.0020 -0.1137  0.0714
17613W        W33687  16.852  12.942   1.378  0.2191 -0.1221 -0.2398
17614W        W33688  10.938  12.369  16.395 -0.1614  0.0859 -0.2124
17615W        W33689   9.787  12.239  16.589 -0.0922 -0.1700  0.1409
17616W        W33690  14.766   7.297   1.803  0.1138  0.0174  0.0674
17617W        W33691   9.918  16.084   4.544 -0.3096  0.1609 -0.0104
17618W        W33692   2.140   9.088  13.999 -0.0719 -0.0085 -0.0874
17619W        W33693  17.228  16.025  14.907  0.0398  0.0939 -0.2374
17620W        W33694   6.839   4.905  15.482  0.0413 -0.1137  0.1309
17621W        W33695   3.846  12.922  14.691  0.0934  0.0414  0.2932
17622W        W33696   5.472  10.492  11.376 -0.0234 -0.1155 -0.1323
17623W        W33697   1.310   7.401   2.047 -0.2242 -0.0455  0.1517
17624W        W33698   5.525  11.256  15.105 -0.0011 -0.0838  0.1123
17625W        W33699   3.580   9.699  13.260 -0.1352  0.1484  0.1628
17626W        W33700   7.161  14.156  14.181  0.4344  0.0172 -0.0487
17627W        W33701  15.556   6.463   5.721 -0.0237 -0.2718  0.2296
17628W        W33702   4.714   6.319  16.447 -0.0841 -0.2113 -0.0478
17629W        W33703  16.751  11.577  15.881 -0.2792  0.0657  0.4121
17630W        W33704   5.838   9.907   4.283 -0.1856  0.0691  0.1764
17631W        W33705   6.136   8.779   2.558 -0.0750 -0.0061  0.1486
17632W        W33706   9.349   9.204  14.887 -0.0419 -0.2422 -0.1284
17633W        W33707   4.316   6.167   2.911 -0.0378 -0.1779  0.1920
17634W        W33708  16.796  10.180  12.864 -0.4099  0.1124  0.2249
17635W        W33709  11.038  11.162  12.369  0.2686 -0.0229  0.0314
17636W        W33710   6.025   8.037  11.085  0.0060  0.1511 -0.2149
17637W        W33711   8.480  15.413   3.537  0.0018 -0.1070  0.1013
17638W        W33712   8.863  16.279   2.506 -0.1306  0.0907  0.0465
17639W        W33713   7.378   5.636  12.222  0.3011 -0.0922 -0.1312
17640W        W33714   0.378   4.444   5.429 -0.2056  0.1180  0.0741
17641W        W33715  13.476   0.759  12.764  0.0236 -0.1134 -0.0340
17642W        W33716   8.831  13.185   3.406 -0.0485 -0.3697  0.0053
17643W        W33717   8.350  12.615   2.948  0.2083  0.0304  0.1339
17644W        W33718  15.233   6.902   2.059 -0.0119  0.2942 -0.0317
17645W        W33719  11.025  15.857   5.194  0.0413  0.3087 -0.0881
17646W        W33720  15.402   4.515   3.728 -0.1073 -0.3338  0.2473
17647W        W33721   7.458  11.242  16.256 -0.2660 -0.1670  0.0332
17648W        W33722  12.242  14.284   3.260  0.0003  0.2727  0.3797
17649W        W33723  16.191   7.127  14.462  0.3718 -0.1020 -0.1486
17650W        W33724   4.794  13.911  15.786  0.0835  0.0361  0.1641
17651W        W33725  14.960   6.749  14.410 -0.0606  0.1051 -0.1735
17652W        W33726  10.396  15.818  15.889  0.0156  0.4664 -0.0226
17653W        W33727   9.838  15.452  14.354 -0.0776 -0.0269 -0.2902
17654W        W33728  13.902   3.425   1.475  0.2519  0.1871 -0.1221
17655W        W33729  12.341   3.075   5.978  0.2575  0.0055 -0.3353
17656W        W33730  16.699   5.466   2.244  0.2432  0.0605  0.0862
17657W        W33731   8.858  16.410  16.675 -0.0727  0.1277  0.2217
17658W        W33732   6.349   6.163   1.577 -0.3186 -0.0102  0.0416
17659W        W33733  11.660   1.221  15.129  0.3287 -0.4902 -0.1160
17660W        W33734  13.698  17.387  16.342 -0.0519 -0.4570  0.0044
17661W        W33735  12.381  16.686  12.791  0.4681 -0.3231 -0.0722
17662W        W33736  10.629  12.863  14.824  0.3433  0.0862  0.2380
17663W        W33737  13.947   7.519   0.042 -0.2158  0.2969  0.1348
17664W        W33738  10.902  12.673   4.689  0.1628 -0.1015 -0.1216
17665W        W33739  15.858   6.378  12.435 -0.1194  0.0826 -0.0147
17666W        W33740   9.242   7.573  14.683 -0.2113 -0.2479 -0.1652
17667W        W33741   7.308  13.022  15.101  0.0824 -0.0563 -0.0245
17668W        W33742   2.174  12.742   2.195  0.1879 -0.2937  0.1252
17669W        W33743   9.839   9.057  15.839 -0.2002 -0.0341 -0.0596
17670W        W33744   0.876  13.179   0.527 -0.1379  0.0322 -0.2132
17671W        W33745   6.690   7.012  12.173 -0.3095 -0.1034 -0.0059
17672W        W33746   8.530   6.890   3.673 -0.2250  0.0569 -0.1672
17673W        W33747   2.948  13.032   1.773 -0.1050 -0.3415  0.4240
17674W        W33748  17.133  17.368   1.617 -0.0132 -0.2322 -0.2743
17675W        W33749   6.189   0.246  11.710  0.1622 -0.0470 -0.2253
17676W        W33750  10.307   6.002  12.758  0.0929 -0.0423 -0.1118
17677W        W33751   6.193   5.087   3.944  0.0355  0.1090  0.2240
17678W        W33752  17.791   6.967  16.878 -0.3972 -0.0131  0.2523
17679W        W33753  12.588  13.261   1.064 -0.2235  0.1832 -0.0202
17680W        W33754   4.505  14.204   3.420 -0.5098 -0.2998 -0.0830
17681W        W33755  13.778   3.212   5.432  0.2620 -0.3997  0.3085
17682W        W33756  14.929  13.504   4.907 -0.5662  0.1264 -0.0857
17683W        W33757   3.786  11.887   2.457  0.1313  0.0504 -0.0534
17684W        W33758   2.122  14.513   6.122  0.0865  0.1773  0.0889
17685W        W33759   7.630   0.545   2.491  0.0514 -0.0096  0.1105
17686W        W33760  15.226  12.126   2.032  0.2184  0.0332 -0.0694
17687W        W33761  15.013  16.688  12.553 -0.0537  0.0936 -0.1013
17688W        W33762   7.496   2.899   2.669  0.3399 -0.3032 -0.1717
17689W        W33763   8.377  12.132   2.970 -0.3707 -0.2160 -0.1415
17690W        W33764   5.916  15.212   2.624  0.3033  0.2154 -0.1455
17691W        W33765   7.426  15.415  11.609  0.5029 -0.0496  0.0717
17692W        W33766  15.859   4.167  14.980  0.0008 -0.3146  0.1734
17693W        W33767  13.836   8.461   3.500 -0.0518 -0.0474  0.0359
17694W        W33768  14.124   3.488   4.465  0.1736  0.1780  0.0914
17695W        W33769   8.651   6.350  11.522 -0.0536 -0.0384  0.0978
17696W        W33770   3.720  17.102   1.944  0.0159 -0.1551  0.2308
17697W        W33771  12.395  12.791   3.670  0.1211  0.2523 -0.1997
17698W        W33772   4.025   1.588   4.399  0.2310 -0.3975 -0.0849
17699W        W33773  16.171   7.757  16.200 -0.3311 -0.1098  0.1699
17700W        W33774   6.868   9.854  13.243 -0.0858 -0.3005  0.3522
17701W        W33775  17.412  16.602  16.377  0.0962  0.1442 -0.1262
17702W        W33776   5.721   4.239   1.660  0.1384 -0.1699 -0.1728
17703W        W33777   7.071  16.750  12.693 -0.3316  0.2615  0.0498
17704W        W33778  10.674   2.076   1.163  0.1464  0.1748  0.4005
17705W        W33779  16.824  12.484   3.589  0.0094  0.0990  0.3860
17706W        W33780   8.983   0.984   2.352  0.0577  0.0849  0.1716
17707W        W33781   8.482   8.605  11.836  0.0739  0.2605  0.2807
17708W        W33782  13.786  11.246   0.036  0.0991 -0.0831  0.1644
17709W        W33783   5.989  12.228  15.557 -0.0620  0.0313 -0.0613
17710W        W33784  11.944  14.343   2.799 -0.2769  0.1813  0.1197
17711W        W33785   3.618  14.483  15.223 -0.0195 -0.0751 -0.3544
17712W        W33786  14.975   6.940   1.561 -0.2128  0.0317  0.0827
17713W        W33787  16.783  13.649   6.580 -0.0340 -0.1639  0.0309
17714W        W33788   2.054   8.971  12.575 -0.0748 -0.1110 -0.0697
17715W        W33789  10.624  11.126   3.771  0.1645  0.1903  0.4771
17716W        W33790   1.305   5.535  15.551  0.2141 -0.1225  0.3484
17717W        W33791   0.194  14.033   5.656  0.0088  0.3201 -0.1126
17718W        W33792  14.723  17.677   2.022  0.0855 -0.0387 -0.3038
17719W        W33793   1.870  17.243  13.551  0.1173  0.2861  0.2125
17720W        W33794   8.492  17.362  15.595 -0.3349  0.1561  0.0138
17721W        W33795  12.123   4.572  15.074 -0.3219  0.2602  0.0359
17722W        W33796  12.422  14.632   2.857 -0.1669  0.1654 -0.0121
17723W        W33797   3.204  13.852  15.823  0.0452 -0.1627  0.1240
17724W        W33798   3.568   6.254  13.100 -0.0153 -0.2128  0.0137
17725W        W33799   6.963   3.439   2.896  0.2002  0.1373 -0.0017
17726W        W33800   9.105   4.539  16.831  0.1036  0.1554 -0.4741
17727W        W33801   5.863   0.973   4.267 -0.1963  0.0414  0.2998
17728W        W33802   9.623  11.973  15.543 -0.0574  0.0837 -0.2132
17729W        W33803   3.654   0.386  11.610  0.0937  0.3190  0.0574
17730W        W33804  12.737   1.329  13.523 -0.0100  0.1071  0.1989
17731W        W33805  13.119  17.270  14.735  0.0444  0.0828 -0.2292
17732W        W33806  16.865   9.621  15.304  0.0489  0.2093  0.1019
17733W        W33807  14.891   9.848  14.291  0.3572 -0.1201  0.2663
17734W        W33808   6.411   0.733  12.896  0.1800  0.2673  0.3301
17735W        W33809  14.704   7.940  12.401 -0.1675 -0.2215  0.1619
17736W        W33810   0.502  16.311  12.661 -0.3184  0.2753  0.0982
17737W        W33811   3.942  11.360   5.628  0.1350 -0.4988 -0.2579
17738W        W33812   6.396   1.990   1.700  0.2544  0.0949 -0.2751
17739W        W33813   5.274   5.823  15.572  0.0912  0.0528 -0.1593
17740W        W33814   1.440   9.792   1.277  0.0207 -0.0239  0.2874
17741W        W33815   4.432   9.897  13.396  0.2320  0.1563  0.1761
17742W        W33816  15.141   0.424  13.218  0.0664 -0.0016 -0.0641
17743W        W33817  15.568  12.897   3.215  0.0545  0.1170 -0.2212
17744W        W33818   4.231   3.277   3.999 -0.2342 -0.1366  0.0143
17745W        W33819  11.382  11.333  16.582 -0.1137  0.1017  0.0731
17746W        W33820   9.590   5.026  15.915  0.0390 -0.1574  0.1375
17747W        W33821   6.982   1.032  11.092  0.0400 -0.0071  0.1023
17748W        W33822   9.105  12.822  12.272  0.2645  0.2778 -0.0490
17749W        W33823  12.383  15.534   3.078  0.1621 -0.1030 -0.1786
17750W        W33824   7.489  13.439  13.198  0.1888  0.2411  0.1572
17751W        W33825   3.796  15.930   2.886  0.2301 -0.0629 -0.4225
17752W        W33826   2.327  17.071  13.638 -0.0104  0.0499 -0.1286
17753W        W33827  14.977  14.960  13.972 -0.0030 -0.0742  0.0413
17754W        W33828   3.077   0.639  16.791 -0.0280 -0.2447 -0.2718
17755W        W33829   6.981  17.791   0.188 -0.2218 -0.1848 -0.3006
17756W        W33830   2.662  12.588  16.691 -0.2567 -0.2132 -0.0501
17757W        W33831  17.220  11.796   0.710  0.1685  0.0170  0.0383
17758W        W33832   9.239   9.484  11.865  0.0198  0.3826  0.3012
17759W        W33833   7.497  12.262  14.341  0.0053  0.1424  0.2837
17760W        W33834   7.356   7.491  12.530  0.1255 -0.0259 -0.1759
17761W        W33835  16.797   3.927   0.357  0.1732  0.0606 -0.0520
17762W        W33836   3.011  12.696   1.405 -0.1137 -0.1738 -0.0735
17763W        W33837   7.768  13.732   2.564  0.0406  0.0052  0.4193
17764W        W33838   5.461  12.145  14.371  0.0975  0.3366 -0.1705
17765W        W33839  16.762   8.133   3.201 -0.0900 -0.1970  0.0570
17766W        W33840   8.604   5.247  15.609  0.0804 -0.0028  0.0836
17767W        W33841   0.819  13.016  12.920  0.2913 -0.0332 -0.1438
17768W        W33842   3.141  13.358   6.028 -0.1585  0.2072  0.0864
17769W        W33843  14.735   9.109   2.725 -0.0330  0.1082  0.0219
17770W        W33844   5.573  15.304  11.325  0.2099 -0.0394  0.1408
17771W        W33845   7.341   2.208   4.686  0.1408 -0.2400  0.2169
17772W        W33846  14.555  15.036   3.098 -0.0120 -0.0577 -0.1230
17773W        W33847   0.278   5.676   0.888  0.0510 -0.1466 -0.0190
17774W        W33848  10.864   7.749   1.141 -0.2629  0.1550  0.0488
17775W        W33849   3.901  10.166   1.827  0.1973  0.0295 -0.1179
17776W        W33850  17.313  11.843   3.159 -0.1590 -0.0033  0.0784
17777W        W33851   5.012  14.996  14.913 -0.0780  0.2170  0.2243
17778W        W33852   5.135   3.823  13.415  0.0797 -0.0718  0.2535
17779W        W33853   5.621  12.680   4.960  0.2972  0.2662  0.2352
17780W        W33854   3.140  10.869  10.851 -0.1905 -0.1681 -0.1592
17781W        W33855   5.261  13.800   3.086  0.0941  0.0910  0.0177
17782W        W33856  11.451  13.672   4.936  0.0132 -0.1896  0.0787
17783W        W33857   3.123   5.928   5.661 -0.4374  0.1122 -0.1379
17784W        W33858   4.591   9.713   4.691  0.2935  0.0799 -0.1552
17785W        W33859  11.263  16.875  16.396 -0.1354 -0.4208 -0.0266
17786W        W33860   3.104   8.705   5.614 -0.1022  0.0605 -0.1621
17787W        W33861   5.619  14.936  13.094 -0.2086 -0.2219 -0.2763
17788W        W33862   1.535  16.006   1.985  0.0524 -0.0342 -0.0521
17789W        W33863   4.598   2.957   4.177  0.1815 -0.0052  0.0808
17790W        W33864  17.287   7.243   1.152 -0.2177  0.0316  0.1196
17791W        W33865  13.942  12.466  14.678 -0.2211  0.0938  0.1320
17792W        W33866  12.827   9.488  12.568 -0.1670  0.0570 -0.2763
17793W        W33867  15.257   9.250   4.362 -0.0441 -0.0591  0.0730
17794W        W33868   6.366  15.062  12.577 -0.3579 -0.1227 -0.0950
17795W        W33869  13.183   2.745   0.074  0.0614 -0.3108  0.1494
17796W        W33870  16.231   2.925  13.124  0.1548  0.2676  0.0563
17797W        W33871  12.094  14.910  14.482 -0.0515  0.0625 -0.2005
17798W        W33872   5.845  16.823  16.600 -0.0041  0.2611 -0.1028
17799W        W33873   5.575   1.075  14.194  0.1826  0.0524  0.1558
17800W        W33874   3.831  11.213  14.659  0.1120 -0.1585 -0.1979
17801W        W33875  12.610  12.932   5.706 -0.1483 -0.3588  0.0348
17802W        W33876   3.983  12.341   1.558  0.0445 -0.3625 -0.2795
17803W        W33877  12.939   8.961   2.115  0.0941 -0.0184 -0.1346
17804W        W33878  13.318   3.243   3.248  0.3279  0.2684  0.0310
17805W        W33879   9.941   6.422   5.831  0.2681  0.2761  0.0091
17806W        W33880   4.393  13.516  16.657 -0.3192 -0.1060 -0.2592
17807W        W33881   0.859  16.066   1.044 -0.1718  0.1091  0.3162
17808W        W33882   3.605   6.302   3.536  0.0670  0.0191 -0.0839
17809W        W33883   6.661  10.895  15.320  0.1388  0.4119  0.1102
17810W        W33884   7.893   2.248   3.309 -0.0991 -0.0570 -0.3689
17811W        W33885   0.497   6.870  14.307  0.0235 -0.1672  0.0676
17812W        W33886  17.418  15.594  12.186 -0.1149 -0.1088  0.2206
17813W        W33887  14.113  13.293  12.400  0.1437 -0.0042 -0.2115
17814W        W33888  14.203   0.101   3.085 -0.1821  0.1820 -0.0536
17815W        W33889  12.191   3.782  14.655  0.0190  0.0655 -0.1600
17816W        W33890   2.643  14.854  16.560  0.0185  0.0363 -0.1881
17817W        W33891  10.095  15.801   2.591 -0.1029  0.1919  0.2603
17818W        W33892  14.889   2.949  12.670 -0.4016 -0.1173 -0.1249
17819W        W33893   9.741   7.091   1.316  0.0310 -0.0970 -0.1481
17820W        W33894   5.565   6.935  14.704 -0.2325 -0.0836  0.2337
17821W        W33895   2.931   0.567   4.973 -0.1752 -0.2999 -0.3202
17822W        W33896  14.706   6.641   1.841 -0.0393  0.1589 -0.1254
17823W        W33897  16.240   0.245  13.877  0.0176  0.0951  0.0884
17824W        W33898   2.707   0.468  14.045 -0.0391  0.1756  0.2193
17825W        W33899  16.634  15.841   5.207 -0.1828 -0.1695 -0.0304
17826W        W33900   4.909   4.847  11.881  0.1096 -0.1043 -0.0085
17827W        W33901  13.478  17.225   1.684  0.1113 -0.0633  0.0954
17828W        W33902  13.166   5.570  14.621 -0.2626  0.1912 -0.3718
17829W        W33903  16.092   5.905  16.377  0.0008 -0.0279 -0.1609
17830W        W33904   1.657   5.195   2.758  0.1465  0.2419  0.0025
17831W        W33905  14.492   9.188   1.571 -0.1462  0.1187 -0.1258
17832W        W33906   4.770  15.126  11.548  0.1461 -0.0115 -0.1059
17833W        W33907   7.877   8.891   4.232  0.1611 -0.3450 -0.2320
17834W        W33908   1.910  13.108   2.919  0.3354  0.1473 -0.0193
17835W        W33909   2.923   6.706   0.154 -0.1794 -0.0835  0.1807
17836W        W33910   8.735  17.324   0.466 -0.1901  0.0085 -0.3193
17837W        W33911   4.109   0.111   1.355  0.1345 -0.4354 -0.2634
17838W        W33912   9.414   8.703  15.256  0.1104  0.0630 -0.2937
17839W        W33913   0.928   2.304  15.381  0.1924  0.2052 -0.1692
17840W        W33914  10.847  13.167   0.538  0.2629 -0.1885 -0.0711
17841W        W33915  13.366   4.965  14.244  0.0204 -0.1047  0.1396
17842W        W33916   3.689   3.018   1.792  0.2662 -0.2053 -0.0964
17843W        W33917  15.082  16.399   4.773 -0.0661 -0.2188 -0.1374
17844W        W33918  13.243  10.456  15.536 -0.2092  0.3757 -0.2079
17845W        W33919   9.946  12.994   3.359 -0.0072 -0.2965 -0.1551
17846W        W33920   8.238   4.019  12.162  0.1095 -0.0476  0.0620
17847W        W33921  13.488   4.629  15.678 -0.1354  0.0560  0.1616
17848W        W33922   0.788  12.469  14.431 -0.0605 -0.0675  0.1533
17849W        W33923  13.919  12.614  13.963  0.1419 -0.1269 -0.0689
17850W        W33924   5.635  12.382   3.348 -0.0844 -0.0414  0.0669
17851W        W33925  17.545   5.874   2.769  0.0900 -0.0236  0.1470
17852W        W33926  13.510   4.581  16.698  0.4006 -0.2486 -0.2263
17853W        W33927   0.549  14.125   1.438  0.1696 -0.1524  0.0968
17854W        W33928   9.432   4.255   3.207 -0.0648  0.1480 -0.0294
17855W        W33929  14.176   0.831  12.372 -0.0777  0.2538  0.1756
17856W        W33930   9.479  15.688   6.110  0.0212 -0.3133  0.1668
17857W        W33931   8.664   4.820  14.527  0.1276 -0.1712 -0.0310
17858W        W33932  10.808   8.189   2.644 -0.2501 -0.1620  0.1190
17859W        W33933  12.412  16.063  13.668 -0.1048  0.1570 -0.1569
17860W        W33934   4.827   4.352  11.826 -0.1228  0.2657  0.0176
17861W        W33935  11.218   7.791  15.799  0.0894 -0.3107  0.2148
17862W        W33936  11.668  11.817   3.858  0.0003 -0.0292 -0.0486
17863W        W33937  12.608   1.041   2.849  0.0415  0.0342 -0.1710
17864W        W33938   0.479   1.960  16.686  0.1096  0.1050 -0.1733
17865W        W33939  17.760  14.394  13.636  0.1692  0.3440  0.0439
17866W        W33940  17.846  15.970  15.673  0.0203  0.1814  0.4632
17867W        W33941   5.038  17.754  11.903 -0.4152  0.3725 -0.2938
17868W        W33942   8.476   2.395  16.836 -0.1445 -0.0109 -0.0555
17869W        W33943   7.357   3.811   1.011  0.0578 -0.1714 -0.0999
17870W        W33944  14.354  12.120   4.460  0.1216 -0.0584  0.1548
17871W        W33945  14.784  14.476  11.808  0.1557  0.5721 -0.1129
17872W        W33946  15.199  14.119   5.879 -0.2148 -0.1855 -0.0744
17873W        W33947   7.225  13.859  15.013 -0.1985  0.0905 -0.2988
17874W        W33948   7.848   4.129   5.671  0.2314 -0.1625 -0.2081
17875W        W33949   1.034  12.082  13.543 -0.1779  0.0216 -0.0813
17876W        W33950   0.308  12.724  12.577  0.1133 -0.0212 -0.1526
17877W        W33951  17.485   0.202  13.284  0.4781  0.0623  0.0161
17878W        W33952   2.193   4.214   5.734  0.1039  0.3363 -0.2756
17879W        W33953  10.334   5.614   4.368  0.2245 -0.0066 -0.0887
17880W        W33954  10.393   5.627  11.606 -0.0129  0.1173 -0.0627
17881W        W33955   0.540  13.642   1.190 -0.4912 -0.0127  0.4531
17882W        W33956  13.959   3.277  15.936  0.4491  0.1932  0.0294
17883W        W33957   4.149   0.162   4.109  0.1271  0.0323 -0.2998
17884W        W33958  12.860   2.964  12.476  0.1494  0.2396 -0.3941
17885W        W33959  15.628   4.025  13.865 -0.2661 -0.3948  0.0578
17886W        W33960  17.514   4.500   0.060 -0.0579  0.4138  0.1171
17887W        W33961   8.560   9.014  15.053  0.0517  0.3314 -0.1714
17888W        W33962  16.628   8.260   5.292 -0.0363  0.1177 -0.1173
17889W        W33963   3.644   2.110   5.184  0.1717 -0.1745 -0.0160
17890W        W33964   9.925   4.726   5.917 -0.0417 -0.1923 -0.1708
17891W        W33965  11.027  11.399   4.501 -0.2216 -0.0880 -0.1327
17892W        W33966   5.854  10.525  13.672  0.2954  0.4231 -0.0169
17893W        W33967   6.698   6.959  12.674  0.0646 -0.0138  0.0625
17894W        W33968   8.701   5.096   3.249  0.0717 -0.1988  0.0320
17895W        W33969   8.492  12.545   6.026 -0.0968 -0.0864  0.5540
17896W        W33970  11.859  10.114   3.391  0.1543  0.1641  0.2288
17897W        W33971   6.884   8.850  14.887 -0.2984  0.1923 -0.0709
17898W        W33972  15.752  11.482   1.578  0.1100  0.0175 -0.2143
17899W        W33973  10.192  12.352  16.833 -0.4563  0.0808  0.2249
17900W        W33974   1.608  15.732   4.798  0.3524 -0.1596  0.0473
17901W        W33975   1.646   4.485  13.280 -0.2216 -0.0063 -0.0030
17902W        W33976   6.697  14.124  16.523  0.0418  0.2745  0.3392
17903W        W33977  13.156   0.872  11.547  0.0459  0.1542  0.0546
17904W        W33978  14.861  17.787   1.455  0.0460  0.0244  0.1511
17905W        W33979   5.500   4.529  13.904  0.3156  0.2097  0.2503
17906W        W33980  17.662   0.673  15.483 -0.0357 -0.1307  0.3749
17907W        W33981   5.011   4.547  14.855  0.1178 -0.3625  0.0150
17908W        W33982   5.775   2.851   1.500 -0.1764 -0.2549  0.4076
17909W        W33983  12.731   1.451   2.138  0.3085 -0.1985 -0.1519
17910W        W33984  10.320   5.263  16.538 -0.1825 -0.0263 -0.0275
17911W        W33985  11.028   9.179   2.148 -0.0363  0.1314  0.1941
17912W        W33986   1.817  15.775   0.933 -0.4579 -0.0525  0.1319
17913W        W33987   0.650   6.000   1.126 -0.3509 -0.2434 -0.3203
17914W        W33988   8.982   6.145  16.108 -0.3388 -0.0532 -0.1995
17915W        W33989   8.610  14.687   4.336  0.1390 -0.1407 -0.0769
17916W        W33990   5.119  11.621  14.311 -0.0943  0.0679  0.0100
17917W        W33991  10.015  14.677  13.800 -0.2464 -0.1470  0.1688
17918W        W33992   2.871  10.555   4.551  0.2091 -0.0261 -0.0556
17919W        W33993   7.807   5.738  12.798 -0.1249  0.3115  0.1291
17920W        W33994  13.300   6.635  13.037 -0.1195 -0.0592  0.0659
17921W        W33995   6.427   9.281   2.904 -0.1568  0.3292  0.0666
17922W        W33996   3.177  10.062  14.119 -0.0656 -0.0842 -0.0521
17923W        W33997  17.144  12.884  12.379 -0.1714  0.0249 -0.0688
17924W        W33998   0.253   8.446   0.527 -0.1316  0.0411  0.0250
17925W        W33999   3.572   0.718  11.236 -0.0184 -0.0635 -0.2675
17926W        W34000   7.948  17.712   2.954  0.0543 -0.1275 -0.1792
17927W        W34001   0.321  13.750   1.708  0.2078  0.0470  0.0762
17928W        W34002   3.612  16.507  13.766  0.3158 -0.1192  0.4939
17929W        W34003  13.678  14.412  14.457  0.0560  0.1736 -0.0674
17930W        W34004   9.602  13.077   3.714 -0.0738  0.1467 -0.3050
17931W        W34005   1.447   1.363   3.309 -0.0840  0.1212 -0.2004
17932W        W34006  16.196  17.055  15.734 -0.0608  0.1542  0.1236
17933W        W34007   5.901  13.407   1.072 -0.3434  0.0281  0.0289
17934W        W34008   3.193   1.573   0.454  0.2589 -0.1944 -0.1203
17935W        W34009   2.241   9.739  16.241 -0.0377  0.3261  0.0199
17936W        W34010   1.399   6.922   2.084  0.1591  0.2928  0.0731
17937W        W34011  12.398   0.774   3.467 -0.0584 -0.2565  0.2007
17938W        W34012  17.844  10.904  16.760  0.1952  0.0388 -0.0991
17939W        W34013  12.151  15.660   1.000 -0.1061  0.1632 -0.0212
17940W        W34014  14.218   3.074   5.283  0.1251 -0.1836  0.0814
17941W        W34015   3.789   5.720   1.212  0.2864  0.0078  0.0210
17942W        W34016   8.707  12.321   4.965 -0.2376 -0.1077 -0.2259
17943W        W34017   6.732  16.822   5.318  0.0171  0.2085 -0.0126
17944W        W34018   6.590   3.626  13.557 -0.0013  0.3038 -0.1077
17945W        W34019  17.834  15.204   4.449 -0.0951  0.0193 -0.0636
17946W        W34020   1.494  10.560  12.253 -0.1296  0.1725  0.0017
17947W        W34021   0.043  14.478  14.468 -0.0180  0.1378  0.2403
17948W        W34022  12.140   6.979   5.969 -0.0249  0.2393  0.3841
17949W        W34023  15.218  10.577   3.531 -0.0101 -0.0380  0.2982
17950W        W34024  16.253  16.483   5.402  0.2353 -0.3616 -0.0549
17951W        W34025  17.804   6.418  16.728 -0.0816  0.1554 -0.1831
17952W        W34026  14.606  13.046   5.683 -0.2885  0.0880 -0.0194
17953W        W34027   6.080   8.932   4.261 -0.0832  0.0407  0.2462
17954W        W34028   5.434   3.250   2.290 -0.0969 -0.1281 -0.0312
17955W        W34029   7.717  12.241   1.670 -0.1134 -0.0555  0.1806
17956W        W34030  14.207  16.922   2.111 -0.0099  0.0416 -0.0265
17957W        W34031  13.655   9.862   1.687 -0.0580 -0.1281  0.1524
17958W        W34032  17.291   3.533  12.381 -0.0315  0.0963 -0.2287
17959W        W34033  10.750  10.747   0.211  0.0713 -0.2293 -0.2240
17960W        W34034   8.384  10.821  12.270 -0.0591  0.1014  0.3492
17961W        W34035  16.965  10.163   3.232 -0.2324  0.1112  0.1630
17962W        W34036  11.404  16.112   5.478 -0.3351  0.1590  0.4265
17963W        W34037   4.633  14.239  11.814  0.0328 -0.2541 -0.0234
17964W        W34038  11.672   8.210  14.007  0.1799 -0.0773 -0.2259
17965W        W34039  17.846   5.935   4.839  0.1823 -0.1797  0.1191
17966W        W34040   8.909   3.368  14.643 -0.1118 -0.0524 -0.2789
17967W        W34041   8.413   5.748   1.866  0.1687 -0.2694 -0.0157
17968W        W34042   7.605  17.367   2.765 -0.0435  0.1405  0.1992
17969W        W34043  13.925   2.722  13.155 -0.0140 -0.1519 -0.1865
17970W        W34044  10.857   9.382   0.464  0.0788  0.0020  0.1031
17971W        W34045  13.716  10.277  14.684 -0.2214 -0.3095  0.1565
17972W        W34046   5.402   8.909   3.228  0.1366 -0.2672  0.1019
17973W        W34047  10.147  11.111  14.046  0.1224  0.1524  0.3731
17974W        W34048   3.427   8.845   3.422  0.1696 -0.0828 -0.3494
17975W        W34049  13.220  11.233   5.908  0.2227  0.0922 -0.1897
17976W        W34050  13.666   9.216   1.644  0.0848 -0.3087 -0.0611
17977W        W34051   1.896   1.186   2.468 -0.1459 -0.0709  0.2422
17978W        W34052  17.452   6.450  14.162 -0.0042  0.2402  0.0479
17979W        W34053  14.042   0.032  16.110  0.3426  0.0133  0.0701
17980W        W34054   8.551  10.602  15.368  0.3449  0.1370 -0.1632
17981W        W34055   7.768  17.469  13.106  0.2504 -0.0940  0.2022
17982W        W34056  13.343  12.818   2.010  0.2809 -0.0005  0.0719
17983W        W34057   4.077  16.755  13.809 -0.0040  0.1081 -0.0726
17984W        W34058   3.395   3.084   5.187 -0.1497  0.0284  0.0098
17985W        W34059   4.298   7.697   5.109  0.1092 -0.1706  0.0558
17986W        W34060   7.511   0.137  11.726  0.2383  0.1950  0.1003
17987W        W34061   6.999   2.055   1.334  0.2261  0.1961  0.0273
17988W        W34062   8.118  14.900  16.720 -0.2190  0.0772  0.1760
17989W        W34063   3.073   6.309   5.995  0.2827 -0.0523 -0.2934
17990W        W34064  17.612  17.228  13.530 -0.3218 -0.0767  0.1691
17991W        W34065  15.225  12.515   4.489  0.2071 -0.0703  0.0994
17992W        W34066  17.151   0.177  12.380 -0.3376 -0.0601  0.1163
17993W        W34067   9.139   4.730  15.970 -0.0324 -0.0268 -0.2320
17994W        W34068  14.552   1.596  14.505 -0.1745  0.0484 -0.0775
17995W        W34069   3.861  11.518   2.049 -0.0927 -0.0817  0.0329
17996W        W34070  15.671   7.973   2.203 -0.3300 -0.2884  0.3852
17997W        W34071  11.916   0.128  14.323 -0.5889 -0.3169 -0.0175
17998W        W34072  13.955   2.940   0.485 -0.1375  0.2735  0.1641
17999W        W34073   1.259   8.376  15.466  0.2640 -0.1109 -0.1535
18000W        W34074  12.685  11.100  11.303 -0.0831 -0.0151 -0.0420
18001W        W34075   4.672   6.630   1.727 -0.3254 -0.1256 -0.1752
18002W        W34076  10.959  13.896  16.298 -0.1066  0.3099 -0.0311
18003W        W34077   8.475   7.574  11.734  0.0201 -0.0423 -0.1853
18004W        W34078  11.649  10.528  14.128  0.2015 -0.0592  0.0040
18005W        W34079   6.327  17.074   5.423 -0.0907 -0.0975 -0.0481
18006W        W34080   7.376   1.797  11.527 -0.0497  0.1966 -0.1085
18007W        W34081  13.056   7.431   4.009 -0.0661 -0.0599 -0.2312
18008W        W34082   3.529   7.717   3.260  0.2474 -0.2105  0.1136
18009W        W34083   3.795   5.965   4.959  0.0351  0.2011 -0.0663
18010W        W34084  12.674   2.589   3.205  0.4156  0.2347 -0.0430
18011W        W34085  13.737  11.588  14.287  0.2795  0.0860 -0.0344
18012W        W34086  17.194  16.058  14.368  0.1463  0.3112 -0.4609
18013W        W34087   2.163   8.797  15.040 -0.0777 -0.1651 -0.2582
18014W        W34088   4.523   2.191  12.833  0.1171  0.5654  0.0338
18015W        W34089  15.759   8.552   4.860  0.1501 -0.2323  0.1914
18016W        W34090   1.288   6.818   3.668 -0.2476 -0.2160  0.2176
18017W        W34091  16.435   0.942  12.028  0.0356 -0.0380  0.0908
18018W        W34092   4.394   3.768  16.289  0.0674 -0.2851 -0.0216
18019W        W34093   1.726   6.752   1.546 -0.1270  0.0714  0.0494
18020W        W34094   0.738  13.161  16.386  0.0494  0.4459  0.1726
18021W        W34095   4.865   3.318   4.407  0.3240 -0.0622  0.4830
18022W        W34096   6.146  15.226  12.981  0.1049 -0.0679 -0.1051
18023W        W34097   9.368   9.913   2.649 -0.1572  0.0715 -0.0222
18024W        W34098   2.336  10.011  12.697 -0.0542 -0.0293  0.1972
18025W        W34099   1.892   5.430  13.577 -0.3778  0.3624 -0.0924
18026W        W34100   0.575   0.337  16.696  0.1176  0.1726  0.2629
18027W        W34101   8.424   9.887  15.992  0.0498  0.1395 -0.1454
18028W        W34102   4.707  12.070  13.584 -0.2414  0.2570 -0.1424
18029W        W34103  10.184   7.496  14.720 -0.0250 -0.2114  0.0710
18030W        W34104  11.558   7.288   0.146  0.0108  0.0242  0.1180
18031W        W34105   5.133  14.044  16.168 -0.0307 -0.1247  0.3471
18032W        W34106   8.718   9.478   5.580  0.2234 -0.1323  0.1083
18033W        W34107  13.916   4.397   4.446  0.1031 -0.2995 -0.2947
18034W        W34108  13.710  16.019  12.774 -0.0829  0.0075 -0.2229
18035W        W34109  10.799   9.970  15.909 -0.2094  0.1320 -0.1923
18036W        W34110  11.651   0.742   5.314  0.0777 -0.2443 -0.2668
18037W        W34111  13.043  12.686   3.962 -0.0947  0.1933  0.0799
18038W        W34112   0.942   6.427   3.933  0.2060 -0.0915  0.1672
18039W        W34113  10.355   3.156   0.372  0.1982 -0.0336  0.0824
18040W        W34114  11.238   8.553  14.769 -0.0198  0.4169  0.2287
18041W        W34115   0.985  16.340  12.743 -0.0071 -0.2536 -0.0277
18042W        W34116  14.400  13.503  12.061 -0.3589 -0.0629 -0.0114
18043W        W34117   5.550   9.366   0.653 -0.0640  0.3332 -0.3099
18044W        W34118   3.229   0.675  11.615 -0.2035  0.1287 -0.0169
18045W        W34119   3.862   5.273   5.704  0.1484  0.1030 -0.0825
18046W        W34120   0.229   2.602   6.281  0.2874 -0.0329  0.0392
18047W        W34121   8.064   5.135  12.170  0.4097  0.1733 -0.2139
18048W        W34122   7.646  12.554   5.797  0.0144  0.1083 -0.0979
18049W        W34123   2.624   5.748   1.105  0.1953 -0.2786  0.2703
18050W        W34124   4.208   7.334   2.079 -0.1196  0.0727  0.3807
18051W        W34125  14.837  10.085   5.395 -0.1910 -0.3750 -0.2494
18052W        W34126  17.692   6.043  11.911 -0.4672 -0.3401  0.1609
18053W        W34127   9.004  11.176   2.260  0.3265  0.2026  0.0887
18054W        W34128  14.037   7.143  13.054 -0.0005 -0.2760  0.3755
18055W        W34129  16.721   6.364   5.199 -0.1514  0.4101 -0.1075
18056W        W34130  16.488   3.539  13.611  0.0154 -0.0360  0.1800
18057W        W34131  14.291   9.692  12.800 -0.1621  0.1023 -0.0485
18058W        W34132   4.159  10.584   4.583  0.0326 -0.0627 -0.0540
18059W        W34133  16.010  17.337  16.140 -0.1634 -0.0719 -0.0756
18060W        W34134   6.519  16.783  12.652 -0.1614 -0.0598 -0.1677
18061W        W34135   6.817  16.259  13.357 -0.0409 -0.2618  0.2372
18062W        W34136  15.584  13.085   4.062 -0.0061 -0.0316  0.1100
18063W        W34137   7.407  10.693  16.953  0.0386  0.1124 -0.0508
18064W        W34138   9.364   5.343   1.067 -0.2055 -0.2689  0.3404
18065W        W34139   6.859   7.442   1.349 -0.0001 -0.2125 -0.0471
18066W        W34140  15.074   1.390   4.903  0.1049  0.1956  0.1218
18067W        W34141  13.705  12.045   3.823  0.0445  0.2372  0.0920
18068W        W34142   4.359   9.357  13.769 -0.1755 -0.0330  0.0555
18069W        W34143   9.723   7.084   5.336 -0.2891 -0.0187  0.1567
18070W        W34144   1.247   0.012  12.533 -0.0405  0.0015  0.4132
18071W        W34145  14.941   1.049  12.383  0.0420 -0.0035 -0.1076
18072W        W34146   1.348   4.792   0.700  0.0930  0.0489 -0.0805
18073W        W34147   4.468   5.211  13.768  0.0652  0.2618  0.1683
18074W        W34148   4.686   8.327  14.736  0.1278  0.3289 -0.0421
18075W        W34149  12.995   1.967   3.848  0.2336  0.2329  0.2621
18076W        W34150   7.688   6.881  12.261 -0.0165 -0.0049 -0.1598
18077W        W34151   3.639   5.821  14.460  0.0192 -0.0788 -0.2128
18078W        W34152   8.325   0.835  11.784  0.0210  0.1535 -0.2609
18079W        W34153   6.572   6.317  15.296  0.3144 -0.0082 -0.3203
18080W        W34154   1.671   1.140   4.676 -0.1412  0.1861 -0.1948
18081W        W34155  14.723   4.817  14.336  0.3213 -0.0923  0.2579
18082W        W34156  14.839   7.305   2.314  0.1509 -0.0324 -0.3198
18083W        W34157  15.207   1.011  16.303  0.1433 -0.1170  0.4218
18084W        W34158  14.818  11.113  15.018  0.3137  0.1340 -0.1388
18085W        W34159   0.782  15.062  15.102 -0.1341 -0.1852 -0.2037
18086W        W34160   0.158   6.617  13.043 -0.1289 -0.2944  0.1047
18087W        W34161   1.363  15.473   2.925 -0.1604  0.0671 -0.0991
18088W        W34162   5.811   1.728  11.239  0.0673 -0.1332  0.1159
18089W        W34163  13.858  12.901   2.037 -0.2049 -0.1723 -0.1164
18090W        W34164  12.022  12.307  16.848  0.0402 -0.2022  0.0087
18091W        W34165   2.424   3.289   1.937 -0.1883 -0.1874  0.1519
18092W        W34166  12.506   7.447   1.014 -0.0402 -0.2337  0.2773
18093W        W34167   0.309  14.547   5.359  0.2678  0.2356 -0.0898
18094W        W34168  12.437  12.757  11.700  0.0495 -0.3802  0.2293
18095W        W34169  14.032   3.909   4.742 -0.0032  0.1175 -0.2053
18096W        W34170   6.257  11.607  14.338  0.2620  0.0128  0.0197
18097W        W34171   5.556   5.997   2.274  0.1630  0.0690  0.0480
18098W        W34172   1.413   6.288   6.027  0.2369 -0.1170 -0.2906
18099W        W34173   3.650  13.556   0.798  0.1316 -0.2284  0.1707
18100W        W34174   9.364   0.240   2.665 -0.0223 -0.0168  0.1830
18101W        W34175   2.415   7.930  13.412  0.0631 -0.0532  0.0305
18102W        W34176   2.095   3.753   1.228  0.1015  0.0466 -0.2299
18103W        W34177  17.626  16.554   1.160  0.1862 -0.2976 -0.1430
18104W        W34178  17.795   8.992  14.721  0.1296  0.0333  0.1855
18105W        W34179  11.791   1.510   3.585 -0.1905 -0.2321  0.3205
18106W        W34180  15.394   1.337   0.401  0.0330  0.0303 -0.0478
18107W        W34181  15.905  12.362  14.895  0.1001 -0.1650 -0.1753
18108W        W34182   0.754   9.013   3.247 -0.1417 -0.1860 -0.0953
18109W        W34183  17.729   1.203   1.662  0.1856  0.2502  0.0979
18110W        W34184  11.077  12.504  12.576  0.0595 -0.1194  0.0228
18111W        W34185   5.602   8.414  16.011  0.0559 -0.1159 -0.2340
18112W        W34186  14.082   8.188  13.060  0.2846  0.0993  0.1422
18113W        W34187   9.555   1.753  12.195  0.2649 -0.1181  0.0764
18114W        W34188  10.085  12.310  12.231  0.0022  0.0059 -0.2097
18115W        W34189  14.511  15.164   2.027 -0.0067  0.2039 -0.1305
18116W        W34190   5.869  12.790   1.521 -0.2346 -0.1290  0.0926
18117W        W34191   6.863   2.805   0.192  0.2474  0.0388  0.0541
18118W        W34192   4.236   3.124  11.680  0.0104  0.1601  0.0217
18119W        W34193   0.765   4.114  13.431 -0.0329  0.2587  0.0739
18120W        W34194  17.268   1.176   3.824 -0.0731  0.1708  0.1943
18121W        W34195   2.569  16.217   4.142  0.1366 -0.0626 -0.2010
18122W        W34196   8.301  11.913  14.106  0.2678 -0.0972 -0.1288
18123W        W34197  15.646   1.342   1.799 -0.2065  0.1602  0.0601
18124W        W34198   8.229  12.967  14.409 -0.1060  0.0206 -0.0756
18125W        W34199   1.209   4.700  13.039  0.0260  0.2238  0.0425
18126W        W34200  12.358  12.077  12.460  0.0683 -0.0108 -0.0582
18127W        W34201   6.016  11.065   3.063  0.4098 -0.6061  0.1450
18128W        W34202   4.651  10.473   1.239  0.2509 -0.0988  0.2236
18129W        W34203  14.611   9.672  11.918 -0.2310  0.0869  0.2756
18130W        W34204  12.734   2.776   0.919 -0.0268  0.0381 -0.0313
18131W        W34205  17.464  16.416   3.755  0.2071 -0.1059  0.2452
18132W        W34206   9.193  12.554   0.493 -0.2972  0.0849  0.0503
18133W        W34207   8.627   2.594   1.315 -0.1655 -0.0512 -0.1138
18134W        W34208   9.636   0.861   5.151  0.0056 -0.0523 -0.1417
18135W        W34209   1.961   6.075  11.768 -0.0428  0.1010  0.1844
18136W        W34210   9.315   6.923   3.170 -0.0619 -0.1126  0.1053
18137W        W34211  11.067   5.689   1.075  0.0870 -0.0038 -0.1049
18138W        W34212  12.429  10.669  12.686 -0.4075  0.0190 -0.2580
18139W        W34213  12.905   2.711  12.923  0.0463  0.0763 -0.1889
18140W        W34214   8.210  16.751  11.432  0.1024 -0.0297  0.0313
18141W        W34215  16.977   7.321   2.409  0.1231 -0.0630  0.0328
18142W        W34216  17.470   9.682  11.992  0.1964  0.2478  0.0674
18143W        W34217   9.386   5.315  11.701 -0.0206 -0.0188  0.0750
18144W        W34218  10.969  17.837  15.616 -0.0939  0.0654 -0.0850
18145W        W34219  15.557  12.734  16.041 -0.0140  0.0164 -0.2883
18146W        W34220   9.206  14.807   0.703 -0.0475 -0.0570 -0.1433
18147W        W34221   5.149   1.268  16.159  0.1655  0.0339  0.1408
18148W        W34222   5.824  15.332   2.092 -0.0501  0.0464 -0.0182
18149W        W34223   8.579  15.299   2.410 -0.0971  0.1010 -0.2422
18150W        W34224  17.636   1.617   5.437 -0.1061 -0.1795  0.2777
18151W        W34225   4.866  12.761   4.893 -0.0758  0.1981 -0.1324
18152W        W34226   2.041   6.728  13.003  0.1923  0.1058  0.0591
18153W        W34227   5.776  14.281   4.128  0.1228 -0.2169  0.0964
18154W        W34228   5.088  15.495  15.053  0.1316 -0.0647 -0.1329
18155W        W34229  16.177   1.220  15.413  0.0299  0.0634 -0.0438
18156W        W34230   7.553  10.598   2.382  0.1220 -0.2126 -0.1236
18157W        W34231  14.357   0.162   4.760 -0.0584  0.0048 -0.5660
18158W        W34232   9.671   0.682  13.262 -0.4479 -0.3114 -0.3622
18159W        W34233  15.354   0.514   1.713  0.0015 -0.0464 -0.2981
18160W        W34234   5.963  13.376   4.932  0.1218 -0.0813  0.1033
18161W        W34235  15.230   4.334   5.132  0.0239  0.1484  0.0659
18162W        W34236   9.271   3.371  15.039  0.0063  0.1757  0.0342
18163W        W34237  12.734   4.506   3.994 -0.0179  0.0639 -0.1568
18164W        W34238  15.096   8.736   2.721  0.1999  0.1999 -0.3905
18165W        W34239  15.602  14.883   1.423  0.1193  0.3564 -0.1032
18166W        W34240   7.394   4.162   3.732  0.0844 -0.1715  0.0303
18167W        W34241   5.884   1.512   5.534  0.2221 -0.1180 -0.0673
18168W        W34242   4.783  13.375  11.884 -0.0542  0.0425  0.1263
18169W        W34243   4.434   0.805  11.182 -0.1252 -0.2038  0.0862
18170W        W34244   2.003   2.951  16.095 -0.1820 -0.1652 -0.0996
18171W        W34245   1.037  13.922  13.358  0.1640  0.2850  0.1623
18172W        W34246   4.227   9.546  12.683 -0.0754 -0.1300  0.2099
18173W        W34247  17.046  12.168   2.706  0.3274 -0.0237  0.0380
18174W        W34248   0.227  16.943  16.120 -0.0354  0.1811  0.0162
18175W        W34249   0.536  14.377  11.705 -0.1121 -0.0423 -0.0629
18176W        W34250  14.275  10.241   4.416  0.2292  0.1325  0.1005
18177W        W34251   9.367  13.755  14.241  0.3744 -0.1122 -0.3691
18178W        W34252   5.650   4.838  16.292 -0.3133  0.1862  0.0207
18179W        W34253  16.158  13.904  12.803 -0.3498  0.1831  0.2094
18180W        W34254   7.370  14.767  12.950  0.0439  0.1485  0.0248
18181W        W34255   7.124  12.973  16.151 -0.0490  0.0539 -0.4284
18182W        W34256   2.647   7.568  12.591 -0.0361  0.0677  0.1116
18183W        W34257   4.183   6.327   5.294 -0.4483 -0.3399 -0.0989
18184W        W34258  16.097   4.297  14.018  0.3974  0.1586 -0.2013
18185W        W34259   9.678  16.392   3.728 -0.1812 -0.0588  0.1050
18186W        W34260  14.576   6.363   2.176  0.1625 -0.0020  0.1171
18187W        W34261  17.274   9.071  14.679 -0.0444  0.1108 -0.0361
18188W        W34262   2.448   3.736  16.323 -0.3952  0.0324  0.0349
18189W        W34263   4.669   7.567   2.185  0.0087 -0.0630  0.0084
18190W        W34264  15.980   6.649  13.241  0.0898 -0.0418  0.1564
18191W        W34265  15.970   6.628  16.273 -0.0978 -0.2586  0.1234
18192W        W34266   5.435   0.654  13.164  0.3345  0.2268 -0.1737
18193W        W34267   6.365   3.592   1.199 -0.1975  0.0788 -0.2062
18194W        W34268   2.271   9.341  13.604 -0.0004  0.2200 -0.1807
18195W        W34269   6.616   9.479  13.584 -0.1661  0.1735 -0.1345
18196W        W34270  11.333  14.430   4.256  0.0628  0.2731 -0.0948
18197W        W34271   2.803   4.859   2.367  0.0283 -0.2428 -0.0028
18198W        W34272  10.447   5.142  11.712 -0.2200 -0.1694 -0.3058
18199W        W34273  12.167  15.060  14.932 -0.0049 -0.2605 -0.0662
18200W        W34274  12.798   9.476   4.179 -0.2085  0.1422 -0.0223
18201W        W34275  12.313   2.845   0.013 -0.1239  0.0200  0.3042
18202W        W34276  10.196   9.027  12.818 -0.1083  0.1593 -0.1763
18203W        W34277   3.942  11.938   0.799  0.1807  0.0947  0.1157
18204W        W34278   4.564  15.133   2.899 -0.0793 -0.1698 -0.1284
18205W        W34279   4.838  14.206  11.347  0.3339 -0.0608  0.0522
18206W        W34280  15.668   1.181   2.456 -0.0358  0.1991 -0.1818
18207W        W34281  12.723  15.672   4.416  0.0185 -0.3091  0.1686
18208W        W34282   1.053   6.926  14.289  0.1456 -0.0986 -0.3486
18209W        W34283  10.057  13.614  11.027 -0.1089 -0.3127 -0.2265
18210W        W34284   5.682  13.886   2.439  0.1698 -0.0105 -0.1602
18211W        W34285  10.181  10.212   5.972  0.0686 -0.1029  0.0662
18212W        W34286   9.502   7.644  15.776  0.0446 -0.3645  0.0989
18213W        W34287  16.977   1.841   4.292 -0.2160  0.1263 -0.2449
18214W        W34288  12.924   1.787   2.489 -0.3016  0.1521 -0.3644
18215W        W34289  14.712   5.339  15.344 -0.1182 -0.2013 -0.1046
18216W        W34290   4.397  14.554   4.668 -0.0831 -0.1088 -0.0185
18217W        W34291  17.359   2.355   2.763  0.1345 -0.1526 -0.1417
18218W        W34292   7.441   0.737  12.994  0.0588  0.0368 -0.1964
18219W        W34293   1.477  11.554   3.884 -0.0389  0.2649  0.3937
18220W        W34294   1.320   4.208   2.317  0.0042 -0.5255  0.1203
18221W        W34295  14.243   0.615   2.234 -0.3032 -0.1586  0.1077
18222W        W34296   7.159   6.654   6.047 -0.1769  0.1482  0.1226
18223W        W34297   3.397  14.708  11.645 -0.1789 -0.2614  0.2196
18224W        W34298  14.643   8.609   2.663 -0.0954 -0.0283 -0.0663
18225W        W34299   6.550  10.832   3.621 -0.0321  0.1444  0.2116
18226W        W34300   9.315   6.098   4.731 -0.1437 -0.1350  0.0261
18227W        W34301  11.425   5.456   2.842 -0.0522 -0.3102  0.0058
18228W        W34302   7.648   6.261   5.224 -0.1441  0.0565  0.1287
18229W        W34303  11.243   0.452  15.716 -0.3620  0.0244  0.0527
18230W        W34304  15.002   5.520   1.913  0.1471  0.1798  0.0797
18231W        W34305  15.784  10.216   5.406  0.2042  0.0503 -0.2865
18232W        W34306   7.518  10.710   5.980  0.1540  0.0504 -0.3145
18233W        W34307   1.188   5.657  12.882  0.0216  0.0713 -0.0959
18234W        W34308  13.606  11.706  16.769  0.1129  0.1276 -0.1625
18235W        W34309  16.348  13.391   0.657 -0.0589  0.1879  0.5186
18236W        W34310   9.635   8.837   3.602 -0.1911 -0.1236 -0.0472
18237W        W34311   2.155   4.865   0.060  0.1155 -0.0602 -0.2470
18238W        W34312  14.562   8.190   2.876  0.2214  0.1502 -0.2454
18239W        W34313   6.968  17.412   2.058 -0.2955 -0.0629 -0.1915
18240W        W34314   3.277  11.277  15.064 -0.1436 -0.1124 -0.2022
18241W        W34315   9.750   2.673   3.584  0.0350 -0.2413 -0.1159
18242W        W34316  17.841   0.100  15.551  0.0783  0.0623 -0.3397
18243W        W34317   9.948   9.649  14.483  0.1060  0.1220 -0.3860
18244W        W34318   1.984   1.074  11.945  0.1736  0.1951 -0.0321
18245W        W34319  15.222   2.072   1.487 -0.1644  0.1914  0.1577
18246W        W34320  16.965  10.430   4.614 -0.0311 -0.3323  0.1610
18247W        W34321  15.666   1.886   3.569  0.1818 -0.0622  0.3484
18248W        W34322   6.654   0.149  11.542 -0.0531 -0.1509  0.1810
18249W        W34323  15.388   4.574   0.968  0.0570 -0.0531 -0.0042
18250W        W34324  15.688   5.873   5.448 -0.3639  0.0519  0.0326
18251W        W34325  16.216  11.294  13.336  0.0233 -0.0351  0.0727
18252W        W34326  16.245   5.841   4.010  0.0516 -0.0294  0.0381
18253W        W34327  16.382   0.174   4.522 -0.1808  0.1652  0.0420
18254W        W34328  13.886   5.557  14.179 -0.2324 -0.0060 -0.2350
18255W        W34329   6.140   5.114  12.022 -0.2263  0.1497  0.0960
18256W        W34330  11.818   9.900  16.024 -0.0261 -0.1671 -0.0840
18257W        W34331   8.658  13.931  16.215 -0.3021 -0.1087  0.0221
18258W        W34332   7.373   3.055   0.613  0.0348 -0.0492  0.3681
18259W        W34333  13.868  11.802  12.491 -0.1657  0.0686 -0.0406
18260W        W34334   7.856   8.838   3.710 -0.2257  0.0671  0.0598
18261W        W34335   2.309  13.607   5.010 -0.0465  0.0202 -0.0917
18262W        W34336   3.907  14.131   5.701  0.2172  0.0834 -0.2000
18263W        W34337  15.953  12.635  13.456 -0.2310  0.1528  0.2677
18264W        W34338   2.040  14.384  11.940 -0.1795 -0.1064  0.0474
18265W        W34339   6.821   9.868  15.649  0.1064 -0.0147  0.3315
18266W        W34340   3.773   7.517   3.633 -0.0615  0.0271  0.1189
18267W        W34341  17.788   8.990   4.188  0.2438 -0.0775 -0.2199
18268W        W34342  16.600   3.079   4.514  0.2348  0.1276 -0.0016
18269W        W34343   6.191   0.810   2.253 -0.0602  0.0153 -0.0935
18270W        W34344  11.502   9.878   1.451 -0.0487  0.3268  0.0604
18271W        W34345   3.458  12.812  14.230 -0.0027 -0.1970 -0.0057
18272W        W34346  13.084  17.223   5.001 -0.0294 -0.1878  0.0917
18273W        W34347  16.291   3.468   4.761  0.2113 -0.1472 -0.1755
18274W        W34348   4.663  13.565  15.013 -0.1102 -0.0740  0.0791
18275W        W34349   5.840   4.059  12.736  0.0521  0.0481  0.0773
18276W        W34350   2.620  17.714   1.623 -0.0858 -0.2938  0.3786
18277W        W34351  12.180  12.799  15.170  0.1101 -0.1109 -0.2301
18278W        W34352   8.424   2.888  12.459  0.0377  0.0499  0.1961
18279W        W34353  13.913  17.273   2.564 -0.0570  0.0853  0.0446
18280W        W34354  12.395   1.847   1.343  0.1846 -0.1164 -0.1665
18281W        W34355   0.180   3.098   0.412  0.1105  0.1702 -0.1293
18282W        W34356   0.164   6.819   6.469  0.0796  0.3704 -0.0212
18283W        W34357  14.762   2.627  14.561  0.4684 -0.0772 -0.1111
18284W        W34358   5.146   3.300  14.368 -0.1900 -0.3040  0.1698
18285W        W34359   2.021   9.060  12.063  0.2117  0.1098  0.2156
18286W        W34360   5.936  17.227   5.719  0.2839  0.0403  0.0710
18287W        W34361   5.639  14.347  13.980 -0.1157 -0.1026 -0.0693
18288W        W34362   8.040  14.275  16.647  0.0347  0.3003  0.3287
18289W        W34363  11.405   2.370  12.094 -0.0992  0.2847 -0.0436
18290W        W34364  13.642   7.281  12.345 -0.0581  0.1603  0.0219
18291W        W34365   4.383   8.755  15.950 -0.1824  0.0289 -0.1020
18292W        W34366  13.232   0.330   6.241  0.2878 -0.2289 -0.3307
18293W        W34367  17.155   2.305   5.438 -0.1298 -0.5159  0.1251
18294W        W34368   7.382   0.831  13.931 -0.5323  0.1241  0.1066
18295W        W34369   4.931   2.082  15.532 -0.0545 -0.3197  0.0558
18296W        W34370  11.820   5.030   5.302  0.1092 -0.1122 -0.0763
18297W        W34371  16.172   4.440  16.858  0.2929 -0.0901  0.1243
18298W        W34372  15.464   8.321  12.172 -0.1907  0.0965 -0.0955
18299W        W34373  11.909  16.295  14.735  0.0883 -0.0659  0.2247
18300W        W34374   0.763  11.783   1.750  0.1113 -0.0185  0.1456
18301W        W34375   5.601   5.831   4.786 -0.1462 -0.0303 -0.1895
18302W        W34376   0.442   5.129  13.399  0.1621 -0.2035  0.2599
18303W        W34377  17.259   6.476   2.005 -0.2948  0.2212  0.0596
18304W        W34378  12.138   9.044  14.905  0.2537  0.0570 -0.0146
18305W        W34379  15.326  15.035  13.609  0.0966  0.0709 -0.1582
18306W        W34380   6.937   6.779  14.532  0.1948 -0.5352 -0.0492
18307W        W34381  16.051   0.787  13.231 -0.0816 -0.1205  0.0080
18308W        W34382   2.272  11.903  12.636 -0.0286 -0.0432 -0.1750
18309W        W34383   3.994   3.422  12.840  0.2736 -0.0991  0.0733
18310W        W34384  13.461   5.916   3.050  0.1285  0.0730  0.0311
18311W        W34385   7.964  14.248  13.513 -0.0550  0.1488 -0.0411
18312W        W34386   7.748  14.068   4.449 -0.1552 -0.1899  0.0863
18313W        W34387   3.247  14.978  12.293  0.0711 -0.1596  0.0385
18314W        W34388  13.636   7.133  15.545 -0.0947  0.2448 -0.0493
18315W        W34389  17.716   2.564   3.475 -0.2453 -0.0305 -0.0717
18316W        W34390   9.456  13.169   1.254 -0.0679  0.0183 -0.2862
18317W        W34391  13.532  13.302   5.572 -0.1232 -0.1086  0.1345
18318W        W34392  13.330   6.330  14.974 -0.0433 -0.2486 -0.0844
18319W        W34393   5.001  11.442  16.928  0.3177  0.1239 -0.0032
18320W        W34394  14.427   1.807   5.077 -0.0167  0.1424 -0.0443
18321W        W34395   6.031   7.825   5.184 -0.2095  0.2667 -0.0770
18322W        W34396  17.077   7.377   3.698  0.2379 -0.2580 -0.0743
18323W        W34397  10.150  16.895  15.957 -0.1302  0.1562  0.0153
18324W        W34398  15.594  15.185   0.055  0.2845 -0.1575 -0.0446
18325W        W34399   2.629  10.143   4.778 -0.1597  0.2480 -0.0908
18326W        W34400  10.651  11.309   3.296 -0.3068  0.1000  0.1011
18327W        W34401  11.399  17.714  12.961 -0.3995 -0.0705  0.1428
18328W        W34402  17.265   0.546   0.261  0.0736  0.1622 -0.2652
18329W        W34403  16.864  12.148   0.842  0.0001 -0.3442 -0.0415
18330W        W34404  11.990   4.029  13.434 -0.2976  0.1871 -0.0206
18331W        W34405   5.572   4.702   1.873 -0.0719  0.0886 -0.1063
18332W        W34406   0.203   9.689   6.223  0.1193 -0.1154 -0.1556
18333W        W34407  11.854  11.869  14.477 -0.2080 -0.0984 -0.0873
18334W        W34408   8.587   9.182  13.264 -0.2085 -0.1788  0.0949
18335W        W34409   6.939  10.865  14.485 -0.1299  0.1143 -0.0231
18336W        W34410   9.176   5.686   0.415  0.2137 -0.0341  0.1620
18337W        W34411  15.442  14.980  12.112 -0.1007 -0.1584 -0.2607
18338W        W34412   5.689   4.959   3.835 -0.1655  0.1748  0.0863
18339W        W34413   5.167   2.702   3.038  0.2232 -0.2221  0.0009
18340W        W34414  16.919   9.214   4.538 -0.1292  0.2577  0.1724
18341W        W34415  15.649   4.722  15.821  0.1834 -0.1008 -0.0791
18342W        W34416   0.774  17.773  16.510  0.1037  0.0104  0.3361
18343W        W34417   3.419  14.695   2.538 -0.1553  0.2733  0.1658
18344W        W34418  12.180  16.975   0.292 -0.0982 -0.0022 -0.2308
18345W        W34419  10.854  15.025  15.626  0.0464  0.2192 -0.1135
18346W        W34420   3.693  10.925   5.584  0.2122  0.1430  0.3257
18347W        W34421   6.962  15.725   2.947  0.0134 -0.0498  0.0606
18348W        W34422  12.200   6.858   2.433 -0.0393 -0.2435  0.0310
18349W        W34423   4.080  13.784   5.941 -0.0901  0.3043 -0.2071
18350W        W34424  12.995   5.880   3.729  0.1009  0.1307  0.1648
18351W        W34425  13.857   2.733   5.215  0.0856 -0.5277 -0.2929
18352W        W34426  12.028   1.002   4.509  0.2002  0.1961  0.1608
18353W        W34427   9.606   9.531  15.216 -0.0095  0.0983  0.0092
18354W        W34428  14.763   3.369   1.835  0.0860 -0.2846  0.1856
18355W        W34429   3.140   3.566  10.316  0.3101 -0.1017  0.0557
18356W        W34430   6.223   4.540   3.359  0.1443 -0.1173 -0.1265
18357W        W34431   5.823   9.994  15.342  0.0846 -0.2951  0.0423
18358W        W34432   1.699   3.907   5.464  0.2246 -0.2637  0.0958
18359W        W34433  11.448   9.492   4.098 -0.0001  0.0830  0.1162
18360W        W34434  13.917   5.009   6.114 -0.2989  0.3318 -0.0175
18361W        W34435  14.451   8.050   0.343  0.2045  0.0160 -0.0320
18362W        W34436  15.481  17.569   5.472  0.2098  0.2246 -0.1543
18363W        W34437  10.613  13.610   4.775  0.3060  0.4723 -0.0417
18364W        W34438   3.838  16.141   0.936  0.0333 -0.2254 -0.0414
18365W        W34439   7.890   2.352  11.996 -0.2417 -0.0804 -0.0023
18366W        W34440  10.668   2.809   1.907 -0.0106  0.1948 -0.2041
18367W        W34441   2.237  13.152  12.964 -0.4512 -0.0183 -0.0017
18368W        W34442   3.223   0.383   4.522  0.3003 -0.0772  0.2675
18369W        W34443   4.788  13.790   4.312  0.1432  0.0551 -0.0887
18370W        W34444  15.166   4.197  16.467 -0.1198  0.0003 -0.0947
18371W        W34445  10.139  14.001  15.819  0.1912 -0.2159  0.0483
18372W        W34446  12.525  11.727   3.101 -0.0709 -0.1520 -0.3669
18373W        W34447   8.011   2.160   4.702  0.2071  0.0409  0.0110
18374W        W34448   1.648   2.092   2.932  0.1281  0.0440 -0.1496
18375W        W34449   3.022  11.516   5.831  0.1110  0.1865 -0.3456
18376W        W34450   3.096  16.788   1.947 -0.2139 -0.0643  0.2268
18377W        W34451   6.877  14.324   5.744 -0.0107  0.0236  0.1476
18378W        W34452   3.392   6.520   2.370 -0.3032 -0.0306 -0.2168
18379W        W34453   9.806   2.502   0.153  0.0077 -0.0721  0.0417
18380W        W34454   7.614  15.949  13.667  0.0477  0.1542 -0.1318
18381W        W34455  10.408  17.382   4.481 -0.0685 -0.0783 -0.0591
18382W        W34456   9.695   7.660   1.789 -0.0695 -0.0909  0.0045
18383W        W34457   6.086  11.436   4.819  0.0482  0.1929  0.2933
18384W        W34458   9.889  14.337   2.710 -0.2847 -0.1135  0.1910
18385W        W34459   5.624  16.984  11.589 -0.0876  0.1521  0.0910
18386W        W34460  10.405   1.677  11.807  0.1269  0.0968 -0.1652
18387W        W34461   2.078   1.873  15.073 -0.0666  0.1469  0.1571
18388W        W34462   4.772  16.814   2.949  0.0176  0.1340 -0.1804
18389W        W34463  15.937   3.809  12.661  0.0051 -0.1590 -0.0159
18390W        W34464   5.065  15.449  16.766 -0.1172 -0.0637 -0.0227
18391W        W34465  12.512   4.807   2.829  0.0361  0.3518 -0.2310
18392W        W34466   0.718   9.692   0.283 -0.1161 -0.1293 -0.2211
18393W        W34467  12.007   8.618  16.530  0.1996 -0.1822  0.1627
18394W        W34468  13.176   0.688  12.004  0.1640 -0.2864  0.0304
18395W        W34469   2.794  10.052  12.619 -0.3445  0.0608  0.2617
18396W        W34470  16.729  10.784  16.304  0.2285  0.0647  0.2725
18397W        W34471  11.896   9.920   4.258  0.0328  0.3112 -0.2356
18398W        W34472   9.741   7.714  13.744 -0.2844  0.0758  0.1508
18399W        W34473  15.962   0.269   5.663  0.0635 -0.1028  0.2063
18400W        W34474  10.997  16.702   4.141 -0.1999 -0.0071 -0.1413
18401W        W34475  11.167  14.975  12.144  0.0784 -0.1340 -0.2056
18402W        W34476  13.505   5.053   0.026 -0.0782 -0.0876 -0.4328
18403W        W34477  17.387   3.935  13.695  0.0821  0.0212 -0.1648
18404W        W34478   7.669   7.842  12.247 -0.2426  0.0151 -0.1138
18405W        W34479  16.743  16.712   5.424 -0.3150 -0.1298  0.2736
18406W        W34480  15.847   4.158   1.799 -0.1686  0.0398 -0.2729
18407W        W34481   9.554  17.165  13.297  0.2367  0.3107  0.1589
18408W        W34482  13.232  16.361  16.766  0.2839 -0.0631  0.1465
18409W        W34483   8.126   4.558   5.526 -0.0692  0.0860 -0.1813
18410W        W34484   4.161   2.844   5.417 -0.0687 -0.0089 -0.0145
18411W        W34485  12.479   2.766  13.169 -0.3177  0.1804 -0.1808
18412W        W34486   1.347  17.580   4.409 -0.3592 -0.1021 -0.0134
18413W        W34487   4.674   3.655   3.386 -0.1438 -0.1428  0.3163
18414W        W34488   0.829  13.604   2.169 -0.0278  0.0432  0.4426
18415W        W34489  16.343   2.356   1.360 -0.0761  0.0366  0.1387
18416W        W34490   4.082   1.077  12.055 -0.1788 -0.0786  0.1072
18417W        W34491   4.452  17.839   3.651 -0.0452  0.0455 -0.1965
18418W        W34492   2.460  13.988  15.082 -0.3135  0.1828 -0.1657
18419W        W34493   2.976   2.965   4.299 -0.1099 -0.1763 -0.2630
18420W        W34494  14.311   9.305   2.291  0.0065 -0.2096  0.2191
18421W        W34495   4.712  15.783   1.215 -0.2253  0.0744  0.4058
18422W        W34496  13.098   0.017   0.827 -0.0415  0.0446 -0.0153
18423W        W34497  11.834  17.400  12.713 -0.0726  0.0821  0.2544
18424W        W34498  11.823  10.776   2.210  0.1802  0.1532 -0.3449
18425W        W34499   2.945  13.932  14.772 -0.2578  0.0376 -0.1676
18426W        W34500  11.397   6.795  14.990 -0.0217 -0.0943 -0.1534
18427W        W34501  16.172   3.561  15.482  0.0055  0.0669 -0.0925
18428W        W34502  11.047  12.656   5.259  0.0171 -0.0780 -0.0194
18429W        W34503  14.337  13.314   6.437 -0.0746  0.1299 -0.0702
18430W        W34504  17.639  15.568   5.350 -0.0270 -0.4084 -0.1657
18431W        W34505  11.254   9.699   2.427 -0.0159 -0.0001  0.1585
18432W        W34506   2.870   3.480  16.566 -0.1705  0.2414  0.0862
18433W        W34507  16.940   5.277  14.965  0.1498  0.3327 -0.0209
18434W        W34508   4.223  10.472   5.174  0.0961  0.3283  0.3524
18435W        W34509  15.558  11.243   6.319  0.0089 -0.0167  0.0129
18436W        W34510   7.495  12.198   3.736 -0.0791 -0.1930  0.0487
18437W        W34511   6.316   5.986  16.405  0.0634  0.0888  0.1752
18438W        W34512   6.364   5.512   1.162  0.0268 -0.1842 -0.0890
18439W        W34513   8.127  12.505  12.098  0.0765 -0.1578 -0.0027
18440W        W34514   2.677   4.897   1.098  0.2443 -0.3648 -0.0755
18441W        W34515  17.127   6.345   0.338  0.3398 -0.2430 -0.2970
18442W        W34516   2.425   3.266   4.106  0.0178  0.0161  0.3679
18443W        W34517   0.625   5.605   3.684 -0.2426  0.0676 -0.0851
18444W        W34518   0.415   3.257  12.344 -0.1047 -0.1734  0.2535
18445W        W34519   0.766  10.181   2.658 -0.1484  0.1979  0.1683
18446W        W34520   4.110  11.324  15.345  0.1444  0.0612  0.0829
18447W        W34521  17.689  10.183  13.112  0.2115 -0.2294  0.0175
18448W        W34522  14.608   2.835   1.775  0.0443  0.0394  0.0727
18449W        W34523  15.674   0.529   2.942  0.1015 -0.2720 -0.0622
18450W        W34524  13.144   5.062   1.945  0.0080 -0.1566  0.0588
18451W        W34525  11.882   3.341  12.142  0.1408 -0.0537 -0.1314
18452W        W34526  11.205   8.056  15.368 -0.1861  0.1392  0.0762
18453W        W34527  11.704  12.729   4.435 -0.1758 -0.0022 -0.0722
18454W        W34528   9.034  10.443  14.098  0.0895 -0.2745 -0.0559
18455W        W34529   0.403   6.563   4.653 -0.0957  0.0974 -0.1351
18456W        W34530   4.963   8.552  12.795  0.0110 -0.1030 -0.1895
18457W        W34531   5.316  17.252   5.186 -0.2561 -0.1060 -0.3047
18458W        W34532   0.503   4.652   1.055 -0.1146 -0.1156  0.0681
18459W        W34533   9.914   2.146  13.910  0.2433  0.2182  0.0553
18460W        W34534   2.369  15.143   3.404  0.1881  0.1876  0.2153
18461W        W34535   7.294   8.197   4.549  0.3113  0.1916 -0.2133
18462W        W34536   9.330   7.400   5.297  0.1972  0.0893  0.2543
18463W        W34537  14.720  15.811   0.192 -0.1078 -0.2024  0.3944
18464W        W34538  16.528   1.933  16.362  0.0964  0.0467 -0.2702
18465W        W34539   1.114  15.209  13.171  0.4986 -0.0679 -0.0952
18466W        W34540   7.600   1.201  14.914 -0.0055 -0.0909 -0.1956
18467W        W34541   2.489   4.558   1.956  0.1466 -0.3490  0.0277
18468W        W34542  14.135  10.014   1.687  0.2009  0.0238  0.1927
18469W        W34543  13.171  12.463   1.689  0.0049 -0.0796 -0.2969
18470W        W34544   2.727  13.543   0.817  0.1251  0.2267 -0.3692
18471W        W34545   3.799  11.095   1.528  0.1852  0.0282  0.0815
18472W        W34546   2.037  15.664  13.306  0.2264 -0.1876  0.0299
18473W        W34547   8.974  12.703   4.727 -0.0052  0.0976  0.0081
18474W        W34548   3.159  15.059   2.700 -0.1003  0.0470 -0.0188
18475W        W34549   0.587  10.557   1.556  0.1149 -0.0961  0.2676
18476W        W34550  14.046   1.171   1.548  0.6054  0.2252 -0.1204
18477W        W34551  16.843   3.313   6.023 -0.0587 -0.0592  0.0094
18478W        W34552   6.048   0.076  14.978 -0.3421  0.0501 -0.0391
18479W        W34553  15.388   2.628  12.862  0.0876 -0.0665  0.2468
18480W        W34554   2.469   0.006   0.739 -0.0525 -0.3156  0.0077
18481W        W34555   6.015  13.905   1.701 -0.0313  0.0306 -0.1609
18482W        W34556   8.430   9.863   3.711  0.0996 -0.0696  0.3717
18483W        W34557  17.107  16.003   2.839  0.0930  0.0928 -0.0038
18484W        W34558   0.408  17.801  12.637  0.1246 -0.2041  0.1381
18485W        W34559   1.387   5.908   2.687  0.0107  0.3646 -0.1329
18486W        W34560   7.495  13.967   1.828 -0.0157 -0.3755 -0.0481
18487W        W34561   6.787   2.386   5.400  0.1579 -0.1826  0.0462
18488W        W34562   8.469   0.423   4.274 -0.2048 -0.1120 -0.0445
18489W        W34563   4.206  13.267  12.656 -0.0800 -0.1420 -0.2227
18490W        W34564   3.895   9.983  14.197  0.0588  0.2073  0.1245
18491W        W34565   8.744  16.113   6.294 -0.2484 -0.2870  0.3150
18492W        W34566   1.344   6.934   2.635 -0.1548  0.0476 -0.1017
18493W        W34567  10.512  13.261   3.958 -0.1797  0.0572  0.2451
18494W        W34568   8.904   2.513   0.541  0.0635 -0.0079  0.1204
18495W        W34569   2.931  10.580  14.885 -0.1375  0.0598 -0.1452
18496W        W34570   5.030  14.338  15.797  0.2193  0.1235 -0.0933
18497W        W34571  12.658   2.219   5.389  0.2902 -0.0721  0.0473
18498W        W34572   2.711  15.387   5.508 -0.1771  0.1373 -0.0300
18499W        W34573  11.653   3.265  13.102 -0.1738 -0.0737  0.0524
18500W        W34574  16.003   9.675   2.802 -0.0681 -0.1330 -0.1406
18501W        W34575   8.577  16.259   1.503  0.3937  0.1918 -0.0273
18502W        W34576  13.355   5.909  13.840 -0.1612  0.3582  0.1018
18503W        W34577   3.723  17.836   5.577 -0.3697 -0.3574  0.0398
18504W        W34578   8.196   3.238   3.107 -0.0157  0.0116  0.1103
18505W        W34579  16.365   0.599   4.255  0.0866 -0.5000  0.0281
18506W        W34580   3.261   0.650  14.318  0.0345 -0.1638 -0.0057
18507W        W34581  13.142   5.643  12.827 -0.0132 -0.1870 -0.0654
18508W        W34582   4.631  14.174   2.587  0.2130 -0.1384 -0.3916
18509W        W34583  10.204   1.624   3.985 -0.3706 -0.2601  0.2504
18510W        W34584   4.063  15.776   2.029  0.0383  0.0565 -0.0218
18511W        W34585   4.695  17.841  13.000  0.2307  0.1455  0.1576
18512W        W34586   8.407  15.040  15.438 -0.0275  0.2464 -0.1454
18513W        W34587   0.316   9.740   4.551  0.1028 -0.3092  0.0564
18514W        W34588   9.546   9.733  14.249  0.3120 -0.0383  0.0532
18515W        W34589   7.946   2.383  15.678 -0.0538 -0.2164  0.2862
18516W        W34590   0.577   3.632  15.659 -0.0479 -0.2243  0.1149
18517W        W34591  17.277   4.966  15.811 -0.0309 -0.1404  0.1708
18518W        W34592  12.971   0.968  14.805  0.0246  0.1615  0.0440
18519W        W34593   6.508  13.677   4.583  0.1243 -0.2658  0.2631
18520W        W34594  16.455  14.655   3.492 -0.0957 -0.1901  0.0600
18521W        W34595   0.948   0.562  16.950 -0.2313  0.3475 -0.1297
18522W        W34596   1.376  13.780  15.968  0.3729  0.0583 -0.0762
18523W        W34597   5.839   1.532  15.820 -0.1904 -0.1959  0.0098
18524W        W34598   2.732  16.813   1.155  0.2421 -0.2022  0.0982
18525W        W34599   6.297   3.240  13.765 -0.1028 -0.0340  0.0687
18526W        W34600   0.909   8.131   5.356 -0.1392 -0.0568 -0.2400
18527W        W34601  12.327  17.490  15.065  0.1042  0.0499  0.1341
18528W        W34602   7.042  14.709  13.401  0.1903 -0.0943 -0.0164
18529W        W34603  16.622   1.540  13.165  0.0516 -0.2353 -0.2635
18530W        W34604  10.605   7.157   3.953 -0.3521 -0.2220  0.0787
18531W        W34605   5.251   1.189  11.865  0.2144 -0.2045 -0.1187
18532W        W34606   9.130  11.391  12.191 -0.2168 -0.0074 -0.1976
18533W        W34607   3.359   9.281   0.833 -0.1476  0.3410  0.1384
18534W        W34608   7.903   7.988  14.440 -0.3914  0.1155 -0.0746
18535W        W34609  16.961   5.123   4.274  0.1466 -0.2118 -0.1305
18536W        W34610   5.195  17.105   1.865 -0.0332 -0.0001  0.0150
18537W        W34611   4.814   6.055  16.948 -0.1600 -0.1742 -0.0093
18538W        W34612   9.695  10.356   3.242 -0.0404 -0.2526  0.0649
18539W        W34613   3.192  14.461  16.025  0.0854 -0.0445  0.2769
18540W        W34614   6.356  15.713  14.096  0.3687 -0.1081  0.1661
18541W        W34615   8.474  13.574   3.246  0.0859  0.0008  0.3262
18542W        W34616  16.226   3.368   5.305 -0.2151 -0.3721 -0.0229
18543W        W34617   3.054  17.211   2.623  0.0702 -0.0133 -0.1471
18544W        W34618   7.587   0.619   2.972  0.1813 -0.1489 -0.0447
18545W        W34619   9.988   6.383  14.505  0.0679 -0.0381  0.1644
18546W        W34620   9.041  15.540  15.448  0.1973  0.3590  0.0213
18547W        W34621   2.961  14.445  11.664 -0.0240  0.1075  0.2136
18548W        W34622  17.778  15.953  12.260  0.1510 -0.0101 -0.1032
18549W        W34623   2.463   9.454   5.469  0.1131  0.1347 -0.2903
18550W        W34624  16.731  16.931   3.149  0.0564 -0.3716 -0.1813
18551W        W34625   7.012  12.012   4.244  0.3496  0.1015 -0.0927
18552W        W34626   0.051  14.641  16.760  0.1705 -0.2720  0.3850
18553W        W34627  13.606   0.018  16.492 -0.0858 -0.2365 -0.2339
18554W        W34628   8.076   9.250  13.248 -0.1062  0.1518 -0.1230
18555W        W34629  10.504   3.383  16.615  0.3567 -0.0345 -0.2210
18556W        W34630   4.440   1.772   0.657  0.1636  0.3682 -0.2019
18557W        W34631   4.376   8.054  14.413  0.1573  0.0074  0.3459
18558W        W34632   9.341   0.770   2.831 -0.0811  0.1254 -0.0906
18559W        W34633  17.821  17.703  15.035 -0.2478 -0.0402 -0.0254
18560W        W34634   5.719  12.337  13.552  0.7439  0.1881 -0.1768
18561W        W34635   1.315  14.321  13.312 -0.1747 -0.4532  0.2619
18562W        W34636   8.081  10.598   4.217  0.2876  0.1477 -0.2722
18563W        W34637  11.331  17.315  12.142 -0.0911 -0.0266  0.2257
18564W        W34638   6.821   7.000   2.791  0.0590  0.2988 -0.2454
18565W        W34639  10.905  11.853   4.167  0.3195  0.0380 -0.0803
18566W        W34640   4.899   0.669   4.047  0.0829 -0.0487  0.2248
18567W        W34641  15.673   2.534   0.112 -0.0904 -0.3082 -0.1972
18568W        W34642  14.462  13.460   5.914  0.2044 -0.2514 -0.0622
18569W        W34643  15.417  16.818   0.538  0.0102 -0.0128 -0.0839
18570W        W34644   3.070  16.023  14.905  0.3117 -0.0204 -0.0763
18571W        W34645  10.660   1.197   1.926  0.2567 -0.2097 -0.2969
18572W        W34646   3.900   3.288  15.324 -0.3237  0.0136  0.3250
18573W        W34647   1.669   4.186   0.530 -0.0877 -0.1264  0.2503
18574W        W34648   7.809  11.266   3.499 -0.1169  0.0270  0.1362
18575W        W34649   1.775   5.747   1.917 -0.1832 -0.1192  0.2129
18576W        W34650   9.416  17.762   3.181 -0.2015 -0.1568 -0.1603
18577W        W34651  15.074   6.017  16.879  0.2110  0.1954  0.0690
18578W        W34652   0.986   1.936  16.605 -0.0263  0.1602  0.0711
18579W        W34653   1.441   4.884   5.100  0.0347 -0.1442  0.2326
18580W        W34654  16.394  10.259   1.244  0.1917 -0.0412  0.0065
18581W        W34655  13.428   1.179  12.116 -0.1059  0.1187  0.1655
18582W        W34656   3.320  13.552  16.447  0.1155  0.0086 -0.0592
18583W        W34657  15.353  15.889   0.777  0.1208  0.1928  0.0015
18584W        W34658   8.336  11.624  12.365  0.0580 -0.0277 -0.0694
18585W        W34659   6.331  12.345  14.154  0.1454  0.0701 -0.1983
18586W        W34660   9.601  11.169   0.931  0.1520  0.1579  0.2179
18587W        W34661   4.831   3.557  15.598 -0.0181 -0.0266  0.0125
18588W        W34662   4.951  15.649  12.253 -0.1324  0.1558 -0.0785
18589W        W34663   1.419   0.710  16.056  0.1412 -0.0381 -0.4927
18590W        W34664  17.552   7.273  14.526  0.1335 -0.0729  0.1102
18591W        W34665   4.915  15.172  12.110  0.2700 -0.0078  0.0536
18592W        W34666   4.741  10.330   5.081  0.1167  0.2214 -0.0290
18593W        W34667   2.750  16.212   4.645 -0.0634 -0.0929 -0.1470
18594W        W34668  12.448  16.885   2.711 -0.0410 -0.2451  0.0479
18595W        W34669   3.498  13.859   2.326 -0.0923  0.0443 -0.4200
18596W        W34670   9.286  13.761  15.626 -0.1695 -0.2487  0.0073
18597W        W34671  16.455  14.718   0.902  0.0197  0.2627 -0.0298
18598W        W34672   3.244  13.264  12.929  0.1382 -0.1246  0.0721
18599W        W34673  13.856  14.710   1.905  0.1185  0.1986  0.3606
18600W        W34674   3.889   5.206  12.048  0.0909 -0.1459 -0.1067
18601W        W34675  16.131   2.600   2.718 -0.1963  0.1503 -0.1137
18602W        W34676   6.544   6.720  14.916 -0.2057  0.0178 -0.1384
18603W        W34677  12.740   4.974  16.954  0.2488  0.3069 -0.1860
18604W        W34678   4.592  13.800   0.928  0.0179 -0.0127 -0.0539
18605W        W34679   1.250   0.810   4.118  0.1777  0.3854 -0.0881
18606W        W34680   9.821  13.831  15.186  0.2902  0.1022  0.0831
18607W        W34681   8.333   1.258  13.923 -0.3323  0.1513 -0.1019
18608W        W34682   0.894   8.101   3.719  0.2093 -0.0261 -0.0676
18609W        W34683   9.989   0.103   4.529 -0.4481  0.2750 -0.4159
18610W        W34684   7.065  16.202  11.599  0.3644 -0.0077  0.3151
18611W        W34685  15.191  11.123   3.512  0.0610  0.0961  0.1033
18612W        W34686   1.027   1.668  12.229 -0.3204 -0.0880 -0.3612
18613W        W34687   7.048  10.475   0.672  0.0614 -0.2212  0.0029
18614W        W34688  13.416  12.240   0.712  0.1166  0.0730 -0.2059
18615W        W34689   8.864  15.906  16.516 -0.0524  0.3028  0.1344
18616W        W34690   5.511   8.852   2.099  0.1667  0.2086  0.0631
18617W        W34691   0.664  11.558  15.823  0.3561  0.1347 -0.0394
18618W        W34692  13.679  16.913  14.454 -0.0847  0.1744  0.1642
18619W        W34693   7.354   9.684   5.158 -0.1143 -0.0259  0.0550
18620W        W34694  10.387   7.434   4.645 -0.1306  0.2062  0.0520
18621W        W34695  17.669   5.708   3.229  0.3724 -0.1829  0.0358
18622W        W34696  12.804  14.792   4.204  0.1244  0.2658  0.0277
18623W        W34697   2.842   1.167  12.490  0.1541 -0.1338 -0.2252
18624W        W34698  15.853   6.835   1.694  0.1219 -0.1373  0.0756
18625W        W34699  10.040   0.708  13.842  0.2517  0.1061 -0.2286
18626W        W34700   8.178  12.684   1.760 -0.4149 -0.0155  0.0176
18627W        W34701   2.871   9.941  13.638  0.2405 -0.0663  0.3554
18628W        W34702   5.761   9.189   4.821 -0.1425  0.0007  0.3402
18629W        W34703   4.021  15.470  11.623  0.1226  0.0660 -0.1631
18630W        W34704   2.821   3.716   4.667  0.2116  0.0392  0.0646
18631W        W34705  15.196  14.760   2.145 -0.2627 -0.1886  0.1103
18632W        W34706   7.635   9.889  15.367 -0.1980  0.1369 -0.0107
18633W        W34707   6.313  10.344  13.915 -0.1329  0.0718 -0.1027
18634W        W34708   6.798  15.528  16.617 -0.2191  0.0927 -0.3346
18635W        W34709   2.214  16.817  14.100  0.0544  0.2074  0.2922
18636W        W34710   0.147   4.265  16.848 -0.0101 -0.0474 -0.2397
18637W        W34711   6.997   6.176   3.518  0.1563 -0.2283 -0.4793
18638W        W34712   7.400   7.996   1.128 -0.2401  0.0135 -0.1458
18639W        W34713   1.381   3.513  15.420 -0.2121  0.0733  0.2138
18640W        W34714  16.333   4.283  11.977 -0.0993  0.0020  0.3668
18641W        W34715  14.882  17.379   2.510 -0.1728  0.0951 -0.0140
18642W        W34716   6.782   4.095   2.995  0.0025 -0.1845 -0.3343
18643W        W34717  13.523   7.243  11.876 -0.3673  0.1332  0.1662
18644W        W34718  12.109  14.322   5.194 -0.4548 -0.0326 -0.0086
18645W        W34719   7.069  13.961   0.618 -0.4471  0.0191 -0.1062
18646W        W34720   7.481  16.396  14.548  0.0102 -0.0253 -0.0303
18647W        W34721   4.455  11.418   0.057 -0.0190 -0.0079  0.1305
18648W        W34722  17.377   4.439  15.041 -0.0168  0.2577  0.2247
18649W        W34723  11.598   6.832  13.554  0.2017 -0.2754  0.2391
18650W        W34724   2.663   7.135   2.999 -0.0485  0.1242 -0.0179
18651W        W34725  11.729  10.155   6.039  0.1417 -0.0114 -0.1799
18652W        W34726  17.083  17.153  13.438  0.2592 -0.2166  0.0451
18653W        W34727   2.281   7.272  11.216 -0.0662 -0.0803 -0.0455
18654W        W34728   9.081  17.218   3.470  0.2934 -0.0492 -0.0875
18655W        W34729  10.678   1.326  14.025 -0.0186 -0.2636 -0.2004
18656W        W34730   2.069   8.390   6.006 -0.1777 -0.1535  0.0096
18657W        W34731  15.955  15.330   2.482 -0.1104  0.0212 -0.0080
18658W        W34732   9.772  16.546   0.912  0.0437  0.4291  0.1138
18659W        W34733   0.043   3.028   4.771 -0.1095 -0.0607  0.1198
18660W        W34734   6.393  11.327  16.789  0.1932 -0.0013 -0.1708
18661W        W34735   7.642   0.250   3.347 -0.0208  0.1465 -0.1207
18662W        W34736  17.452   5.398  16.464  0.0460 -0.2412 -0.0472
18663W        W34737  14.820  15.294   1.607 -0.1158  0.2016  0.0726
18664W        W34738  12.104  14.989   4.407 -0.1457  0.3579 -0.0216
18665W        W34739  14.488   9.109  15.491  0.2147 -0.1331  0.1992
18666W        W34740  15.319   4.294  11.904  0.1382  0.0824 -0.1062
18667W        W34741  10.980  16.474   1.729 -0.1006 -0.2960  0.0420
18668W        W34742  11.993   6.861   6.452  0.3647 -0.0816  0.3159
18669W        W34743  10.403   5.470   0.901 -0.2702 -0.0281 -0.1754
18670W        W34744  16.114   7.618  13.339  0.2235 -0.1939 -0.4294
18671W        W34745  10.118   3.980  13.219 -0.0321 -0.0139 -0.1995
18672W        W34746   3.810   0.675  16.355  0.0903  0.3033 -0.0363
18673W        W34747   5.495   1.781  10.856  0.0423 -0.2139 -0.0809
18674W        W34748  15.692   1.928   1.502 -0.0418  0.0853  0.1583
18675W        W34749   4.330   9.360  15.309  0.3288 -0.0909  0.2104
18676W        W34750   7.742   5.768   3.849  0.0931 -0.2659  0.1494
18677W        W34751   7.970   8.582   2.678  0.3497 -0.1648  0.3017
18678W        W34752   0.364  11.795   2.459  0.1798  0.2047 -0.1593
18679W        W34753   1.912   0.484  14.729 -0.0603 -0.0076  0.0344
18680W        W34754  14.211   1.528  12.606  0.1018  0.1060  0.0858
18681W        W34755   1.177   6.735  15.227 -0.2007 -0.1038 -0.1892
18682W        W34756   8.642   7.008   4.149 -0.0260  0.0864 -0.1173
18683W        W34757   1.305   4.607   4.192  0.0243  0.2597  0.1085
18684W        W34758   5.894  14.903  14.820  0.1097 -0.0761 -0.0810
18685W        W34759   7.703   5.762  14.474  0.1342  0.0224  0.0863
18686W        W34760  16.291  14.563   1.409 -0.1333  0.1093 -0.1141
18687W        W34761   4.963  17.584  15.253 -0.1176  0.1594  0.2837
18688W        W34762  15.703   6.154  16.942  0.0649  0.0557  0.2059
18689W        W34763  15.056  16.593   1.276 -0.1764 -0.2521 -0.0524
18690W        W34764  12.544  17.241   6.111  0.3845  0.1491 -0.2500
18691W        W34765   8.086  14.020   5.345 -0.0734  0.0855 -0.0501
18692W        W34766   0.424   0.926  11.790 -0.1531 -0.2732  0.2406
18693W        W34767  16.571   6.734   1.514  0.3118 -0.1943 -0.3457
18694W        W34768   9.153  13.386   2.178  0.1211 -0.2098  0.0709
18695W        W34769   4.419   1.943  13.341 -0.1623  0.4127  0.0138
18696W        W34770  10.531   0.953   2.362 -0.0575 -0.0060  0.1092
18697W        W34771  15.945  13.318  13.383  0.1308  0.0603  0.0735
18698W        W34772   5.862   0.402  12.106 -0.2261 -0.2020  0.0546
18699W        W34773   2.851  16.771   5.458 -0.1332 -0.0895  0.0378
18700W        W34774  15.208  12.588   0.109 -0.2298 -0.1852  0.3271
18701W        W34775  14.675   2.168   5.364 -0.0056  0.1264 -0.4613
18702W        W34776   1.830  14.718   3.334 -0.0922 -0.2275 -0.1127
18703W        W34777   5.316  16.868  13.301 -0.0594 -0.0761 -0.0469
18704W        W34778   8.419   1.711  16.259 -0.1881  0.0407 -0.2348
18705W        W34779  11.310   0.230   2.567 -0.1257 -0.1906 -0.0483
18706W        W34780  14.705   0.326  14.379  0.0409 -0.1700 -0.1537
18707W        W34781  16.755   8.753  12.749 -0.1848  0.0921 -0.4914
18708W        W34782   4.009  10.565  15.119 -0.2001  0.0727 -0.0990
18709W        W34783   5.449   5.305   1.070  0.1266 -0.0586 -0.1270
18710W        W34784   2.617   6.633  13.060 -0.0605  0.0347  0.0208
18711W        W34785   1.143   2.797  13.568  0.0899  0.1830 -0.0490
18712W        W34786   7.480   9.154  14.030 -0.0792 -0.2034 -0.0226
18713W        W34787   6.403  14.260  14.513 -0.0530  0.2142 -0.1331
18714W        W34788  14.656  13.232  12.466 -0.1661  0.0485 -0.0089
18715W        W34789   0.877  11.105  13.322  0.1861 -0.1448 -0.0402
18716W        W34790   6.768  12.113   2.133  0.1741 -0.0786  0.1851
18717W        W34791   1.333  13.424   0.577 -0.0287  0.4601 -0.0694
18718W        W34792   9.481  16.915   5.337 -0.0986 -0.0692 -0.0751
18719W        W34793   2.755  15.374  16.552  0.0987  0.0634 -0.3176
18720W        W34794  14.694   3.237  13.078 -0.3802  0.1322  0.2210
18721W        W34795  15.065   0.992  15.057  0.1508  0.2392  0.1033
18722W        W34796   1.728  13.897   4.193 -0.0040 -0.1356  0.2521
18723W        W34797  17.302  17.142  14.489  0.1712  0.1265 -0.0991
18724W        W34798  17.810   6.612  14.930 -0.0310  0.1731  0.2237
18725W        W34799  13.758   7.710  13.850 -0.1521 -0.0387  0.0605
18726W        W34800  10.641  11.202  13.918 -0.0139  0.0304 -0.0934
18727W        W34801   4.098   4.658   2.380 -0.2377 -0.1086  0.1214
18728W        W34802   3.474   0.628   3.098 -0.1230 -0.2136 -0.1647
18729W        W34803  14.969   1.291  12.861  0.0420 -0.0498  0.2194
18730W        W34804   0.535   2.084  13.229 -0.1487  0.1403  0.1126
18731W        W34805  11.850   2.648  16.945  0.0660 -0.1426  0.0185
18732W        W34806  13.847  10.296   5.295  0.1332  0.2599  0.1269
18733W        W34807  15.022   4.683   0.620 -0.1204  0.0805  0.1637
18734W        W34808   4.540   1.422   1.013 -0.1682 -0.0033  0.0385
18735W        W34809   6.644   5.122   1.358 -0.0716 -0.1027 -0.2403
18736W        W34810   7.711  14.763   0.554 -0.1434 -0.1731  0.0338
18737W        W34811   5.568   9.240   1.227 -0.2228 -0.1265  0.0896
18738W        W34812  12.507   0.889   4.694  0.1253 -0.0635 -0.1164
18739W        W34813   6.039   1.936   4.333 -0.1447  0.0162 -0.1996
18740W        W34814   5.993   9.696  16.126  0.0713 -0.2648 -0.2751
18741W        W34815  17.190   6.001   1.762  0.1157  0.1766 -0.2992
18742W        W34816   4.000  13.924  13.832  0.1060 -0.1961  0.0474
18743W        W34817   6.000  11.827   3.239 -0.1093  0.1723  0.1581
18744W        W34818  11.868   5.693   2.745  0.3842 -0.0237  0.1234
18745W        W34819   4.483  12.410   3.987 -0.0325  0.2805 -0.2870
18746W        W34820   6.401   8.906   1.662 -0.1074  0.0325 -0.0701
18747W        W34821   0.420   7.164  13.911 -0.0924  0.1943  0.1150
18748W        W34822   5.546   6.420  14.537 -0.0700  0.1076  0.1773
18749W        W34823   7.466  13.924   0.157  0.0163 -0.1674  0.1542
18750W        W34824  10.930  14.117  13.300 -0.0709 -0.0864 -0.1522
18751W        W34825  15.914   7.340   3.309  0.2163 -0.1883 -0.2666
18752W        W34826   8.140  10.345  12.185  0.0197 -0.3143 -0.0712
18753W        W34827  13.609   1.916   0.004 -0.1558 -0.0629 -0.0150
18754W        W34828  11.355   6.045  16.290  0.3030 -0.3055  0.3956
18755W        W34829   8.020   0.598   5.023 -0.0110 -0.1924 -0.0756
18756W        W34830  10.947  11.080   4.162  0.1130  0.0885  0.3263
18757W        W34831  16.099   1.660  15.174 -0.1230  0.0777  0.0563
18758W        W34832   8.808   1.687   0.155 -0.2530 -0.2516  0.0155
18759W        W34833  15.824  14.678  14.556  0.0435 -0.2018 -0.0660
18760W        W34834  13.257   7.213  15.911 -0.1069 -0.0548  0.0567
18761W        W34835  11.181   2.231   1.386 -0.1144 -0.0919  0.1525
18762W        W34836   0.970  17.305   0.951 -0.0014  0.2475  0.0045
18763W        W34837   2.613   2.344  16.852 -0.4547 -0.3120 -0.0372
18764W        W34838   1.822  16.152   3.679  0.1134  0.2449  0.1897
18765W        W34839  13.770   3.770  13.993 -0.2414 -0.1177 -0.1178
18766W        W34840   6.129  15.712   1.836 -0.1309 -0.0435 -0.1193
18767W        W34841  16.150   6.701  15.776 -0.2491  0.2041  0.0255
18768W        W34842   7.853   4.752   5.092  0.1078  0.2317  0.2054
18769W        W34843   9.292   0.180   0.101 -0.0408 -0.5478 -0.5089
18770W        W34844  14.223  12.431   0.104  0.2162 -0.2154 -0.1408
18771W        W34845   6.205   6.580   0.724 -0.2017 -0.2555 -0.2242
18772W        W34846   9.311  17.283  15.303 -0.0455 -0.0424  0.4556
18773W        W34847  10.077  12.764  15.864 -0.0739  0.1186  0.1762
18774W        W34848   7.749  17.733   3.950 -0.2105  0.1838 -0.1304
18775W        W34849   7.367   4.044   5.806  0.1178 -0.0972 -0.0700
18776W        W34850  16.937  16.454   3.049 -0.3107 -0.0707 -0.0475
18777W        W34851   8.363   8.269  15.994 -0.2627 -0.0353 -0.1519
18778W        W34852  11.529   9.147  14.109 -0.1062 -0.4567 -0.0404
18779W        W34853  17.278  17.656  14.185  0.4483 -0.1196 -0.1591
18780W        W34854  12.269  17.623  12.640 -0.2499  0.0479  0.0607
18781W        W34855  16.726   3.071  12.836 -0.1014  0.1018 -0.3215
18782W        W34856  17.418  15.124  13.839 -0.1532 -0.1226 -0.1669
18783W        W34857   0.527  11.025  14.304 -0.2534 -0.2214 -0.0827
18784W        W34858  16.521   9.820  16.538 -0.2559 -0.1298  0.3030
18785W        W34859   8.473  11.302   4.108 -0.1014 -0.2561  0.1135
18786W        W34860   4.847   5.841  15.737 -0.0504  0.1165  0.1577
18787W        W34861  17.317  10.327   0.155 -0.1133 -0.1430  0.1589
18788W        W34862   6.973  15.680  13.135 -0.1421 -0.2519  0.0405
18789W        W34863   2.934   3.552   4.266 -0.0088 -0.0463  0.1984
18790W        W34864   1.881  17.266   3.539  0.1890  0.6497 -0.1400
18791W        W34865   3.089  14.942   2.216 -0.1303 -0.0407 -0.0703
18792W        W34866   3.079  13.193  14.316 -0.1210 -0.1760 -0.2163
18793W        W34867  10.134   9.299   0.798 -0.0882 -0.1235  0.1269
18794W        W34868   8.406   4.147   5.659  0.1409  0.1746 -0.0159
18795W        W34869  16.422  13.910  12.179 -0.0046  0.0181 -0.2365
18796W        W34870   4.186   5.422   1.003  0.1488 -0.1484  0.0498
18797W        W34871  10.812   6.075  12.985 -0.2213 -0.1295 -0.0060
18798W        W34872  12.282   6.280  14.806 -0.1216  0.0591 -0.0203
18799W        W34873  10.224   6.468  12.489 -0.0828  0.1148 -0.5013
18800W        W34874   0.139   3.898  14.542  0.1050 -0.0571  0.0839
18801W        W34875  14.868   1.441  14.973  0.2009 -0.0879 -0.1909
18802W        W34876   6.868   8.046  12.116  0.0332  0.2363  0.4626
18803W        W34877  11.330  11.726  14.629 -0.2624 -0.1901 -0.2363
18804W        W34878   2.141  15.841   1.375  0.1514  0.4938 -0.2397
18805W        W34879   9.701  12.277  16.076 -0.2160 -0.1207  0.1614
18806W        W34880   0.533  11.904  11.554 -0.1073  0.1698 -0.0164
18807W        W34881   6.978   7.624  13.377 -0.2327 -0.0040  0.1967
18808W        W34882   4.880  16.342   4.800  0.0371 -0.0577  0.1028
18809W        W34883   4.723   0.858   3.578 -0.2386 -0.3072 -0.0156
18810W        W34884  10.770   8.182  14.691 -0.3129  0.0220 -0.0386
18811W        W34885   1.587  15.278   4.082 -0.1132  0.0752 -0.0116
18812W        W34886   9.681  16.008   2.203  0.0172 -0.1216  0.3159
18813W        W34887  16.687  15.064   0.638 -0.0155  0.0599  0.2384
18814W        W34888  13.142   8.836   5.460 -0.3576 -0.1089 -0.0551
18815W        W34889  13.671  13.421  12.195 -0.1110 -0.1975 -0.0361
18816W        W34890  17.025  11.836   6.107  0.3210  0.0798 -0.1064
18817W        W34891  15.551  11.278   0.751 -0.1552 -0.1550 -0.0154
18818W        W34892   8.747   8.330   5.337  0.2037 -0.2848  0.2070
18819W        W34893   5.795  12.115  12.258 -0.3473  0.0912  0.2652
18820W        W34894  14.490  15.415   0.232 -0.0848  0.1445  0.2751
18821W        W34895   4.044  17.782   3.365 -0.1212  0.0537 -0.2891
18822W        W34896   2.920  17.460  13.217  0.1787 -0.1480 -0.0605
18823W        W34897   4.508   2.687   2.388  0.4564 -0.2476  0.0610
18824W        W34898   2.913   6.107  13.801 -0.0827  0.0286  0.0909
18825W        W34899   4.237   5.397   5.385  0.0890  0.0224  0.2878
18826W        W34900   1.471  16.633   1.603 -0.1928 -0.1803 -0.0001
18827W        W34901  10.963  16.429   5.379 -0.0011 -0.1541 -0.2851
18828W        W34902   5.670   1.206   3.271 -0.0590  0.1757  0.0435
18829W        W34903  14.200   0.719  12.940 -0.0543 -0.2079  0.0828
18830W        W34904  15.513  10.506  14.855  0.1392  0.1596 -0.0279
18831W        W34905  12.415   5.807  13.937 -0.1807 -0.0415 -0.1789
18832W        W34906  14.190  16.990   4.618  0.0186 -0.2377 -0.0872
18833W        W34907   0.235  14.721   2.063  0.0598 -0.0527 -0.0215
18834W        W34908  10.086   3.327   2.320 -0.2235 -0.0078 -0.0454
18835W        W34909  14.138  11.201  11.676 -0.1563 -0.0348  0.2873
18836W        W34910   5.058  11.087  12.574  0.1093  0.1063  0.0276
18837W        W34911  15.322  11.198   2.229  0.2178  0.0855 -0.0447
18838W        W34912  14.714   2.854   0.240 -0.2827 -0.0978 -0.0342
18839W        W34913   7.220   2.325   1.000  0.0867  0.5755 -0.0138
18840W        W34914   1.073  15.981   2.574 -0.2466 -0.1503 -0.0230
18841W        W34915   1.346  12.158  12.827  0.2920  0.0482 -0.4048
18842W        W34916   2.173  16.948  16.248 -0.1125  0.0882 -0.0061
18843W        W34917  14.612  14.727  14.224  0.0568  0.0892  0.0691
18844W        W34918  14.492  13.235   0.335 -0.2065  0.2891  0.1041
18845W        W34919  12.515   0.531   1.045 -0.1482  0.2154  0.0127
18846W        W34920   1.385  15.390  16.591 -0.0311  0.1307 -0.2436
18847W        W34921  12.181   3.700   5.349  0.1328 -0.0951  0.1046
18848W        W34922  17.256   6.060   3.274 -0.3680  0.1861  0.0305
18849W        W34923  12.375   5.080  16.158  0.0893 -0.0343 -0.0261
18850W        W34924   8.420   9.513  12.907  0.0500 -0.0557 -0.0992
18851W        W34925   5.869   5.779  16.211  0.1052  0.5407 -0.0701
18852W        W34926   9.618  13.927   2.852 -0.2048 -0.2263  0.1541
18853W        W34927   4.153   3.646  11.902 -0.0917 -0.1073  0.0094
18854W        W34928   3.241  13.575  14.579 -0.1386 -0.1199  0.0375
18855W        W34929  11.828  13.851   0.235  0.1714  0.0119  0.2659
18856W        W34930   8.541   2.416  14.922  0.3032  0.0240  0.1259
18857W        W34931  14.486   2.202  16.162 -0.1577 -0.1603 -0.1946
18858W        W34932   2.655   6.708  16.060 -0.1536  0.3635  0.0770
18859W        W34933   5.646  12.295   4.612  0.0171 -0.1523 -0.3109
18860W        W34934   3.620   3.506  13.978  0.2139 -0.0834  0.1088
18861W        W34935   2.709   1.318  16.538  0.2606  0.1185 -0.2578
18862W        W34936   7.213  17.371   4.908  0.0888  0.0798  0.1230
18863W        W34937   5.441  10.965  13.503 -0.2944 -0.2022 -0.3214
18864W        W34938   5.124  12.772  16.242 -0.0915 -0.1241  0.1075
18865W        W34939   7.240   8.461  13.728 -0.0817 -0.0192 -0.0646
18866W        W34940   1.656  11.846  15.073 -0.0578 -0.0554  0.0688
18867W        W34941   3.667  16.278   5.528  0.0911 -0.1343 -0.1466
18868W        W34942   9.306   7.898   3.213 -0.0010 -0.1438 -0.2178
18869W        W34943  12.450   8.830   2.197 -0.0552 -0.0941  0.0881
18870W        W34944  17.246  13.722   2.625  0.1968 -0.1374 -0.0540
18871W        W34945   7.413   1.106   1.784  0.1043  0.1424 -0.2496
18872W        W34946  17.234  13.434  15.402  0.1189 -0.0520  0.2178
18873W        W34947   5.962  15.581   5.038 -0.0316  0.0643 -0.3579
18874W        W34948  13.540  12.710   1.080  0.2142  0.0595 -0.0822
18875W        W34949   3.167  11.069   0.080  0.0683 -0.2654 -0.2132
18876W        W34950   0.273   6.825   1.364 -0.1021 -0.0962  0.2035
18877W        W34951  16.170  10.554  10.886  0.0145 -0.1638  0.3283
18878W        W34952  10.667  15.901   4.789 -0.2529  0.0252  0.3765
18879W        W34953   6.416  17.489   2.181  0.0212 -0.1240  0.0753
18880W        W34954   3.769   0.507   1.494  0.3044 -0.0802  0.3778
18881W        W34955  11.433  12.596   1.238  0.2089 -0.1473  0.1376
18882W        W34956   2.728  12.568   0.948 -0.0866  0.0688  0.1309
18883W        W34957   7.161   3.045   3.112  0.2907 -0.1240 -0.0450
18884W        W34958   8.307   6.378   0.912  0.1045  0.1938 -0.2103
18885W        W34959   0.268   5.767   1.390 -0.1877 -0.0709  0.0261
18886W        W34960   8.305   5.672   0.055 -0.0663 -0.1649  0.0438
18887W        W34961  15.855   4.592  15.300 -0.1949  0.0254 -0.1905
18888W        W34962   4.755  12.743   4.354 -0.0427  0.0704 -0.1261
18889W        W34963   5.755   1.465   2.710  0.0321 -0.3093  0.2527
18890W        W34964  17.738  14.286  16.467 -0.0259  0.2969 -0.1750
18891W        W34965  13.543   3.345  14.355 -0.3391  0.1897 -0.1544
18892W        W34966  11.260   8.043  14.867  0.0811  0.3265 -0.0114
18893W        W34967   3.288   1.936   5.864  0.0172  0.1242  0.2407
18894W        W34968  11.765  12.438  14.887 -0.2071 -0.2179  0.0329
18895W        W34969   8.656   3.110   1.142 -0.2042 -0.4477  0.1507
18896W        W34970   6.171  14.758  11.757 -0.1178  0.2088 -0.0619
18897W        W34971   8.437   1.759  11.767  0.0602  0.1674 -0.0216
18898W        W34972   3.765  13.099   5.295 -0.2517 -0.0860  0.2002
18899W        W34973  12.697  10.380   3.902  0.0544  0.1292  0.0552
18900W        W34974   0.243   2.381  15.155 -0.2356 -0.1739 -0.1499
18901W        W34975   8.195  17.698   5.139 -0.0025 -0.1516  0.2412
18902W        W34976   0.981  11.203  11.969 -0.2044 -0.0009  0.1653
18903W        W34977  10.072   8.780   1.990  0.1558 -0.1923 -0.4202
18904W        W34978   8.347   0.971   1.778  0.0338 -0.0132 -0.1519
18905W        W34979  13.877  11.802  16.325 -0.2607 -0.1503 -0.1018
18906W        W34980  14.523   8.423  13.166 -0.0128 -0.2035 -0.0802
18907W        W34981   6.438  16.522  14.129 -0.0259 -0.1073 -0.0903
18908W        W34982  12.634   6.795   5.736  0.1991  0.1506 -0.0275
18909W        W34983  16.619  15.483   3.332 -0.2415 -0.0508  0.0689
18910W        W34984  15.036   4.818   1.320 -0.0568  0.2961  0.0158
18911W        W34985   8.342  10.699  14.928 -0.3594  0.0742 -0.3133
18912W        W34986  13.897  17.832   4.266 -0.1321 -0.0395 -0.0415
18913W        W34987   3.327   6.442  16.972  0.1617 -0.0677  0.1204
18914W        W34988  13.145   2.448   2.146 -0.2166 -0.1239  0.0326
18915W        W34989   6.933   8.300  16.488 -0.1490 -0.1890  0.1287
18916W        W34990  16.289   9.315   1.486 -0.2435  0.0728 -0.0382
18917W        W34991  14.317   6.693   3.765  0.1583 -0.2862  0.0141
18918W        W34992  14.156  16.689   0.029  0.0032  0.0238 -0.1339
18919W        W34993  11.854  11.468  16.322 -0.1674 -0.0912 -0.2669
18920W        W34994   1.805   0.054  15.030 -0.0999 -0.1479 -0.0905
18921W        W34995  12.387  11.167   3.947 -0.0272 -0.4392  0.0244
18922W        W34996  14.262   8.189  15.616  0.0403 -0.0782 -0.1600
18923W        W34997  14.965   6.516   3.756  0.0643 -0.0934 -0.1941
18924W        W34998  13.906  17.666   1.211  0.2658 -0.0447  0.1769
18925W        W34999   7.965  14.046   3.450 -0.1881  0.2445  0.2310
18926W        W35000  11.887  10.859  14.640 -0.1044 -0.2436  0.1693
18927W        W35001  10.547   5.593  12.528  0.0896  0.0411  0.0706
18928W        W35002   0.494   7.552   6.012  0.1204 -0.1545  0.1208
18929W        W35003  17.547   3.198   0.340 -0.0617 -0.0239 -0.0181
18930W        W35004   0.711   8.616   5.242  0.1931  0.1992 -0.0188
18931W        W35005   7.902  13.826  16.781 -0.1274 -0.1436 -0.0869
18932W        W35006   8.883   2.562   5.005  0.1089 -0.0036 -0.0370
18933W        W35007  17.799   0.208  12.345  0.1263  0.3464  0.3772
18934W        W35008  13.232  17.706  16.764 -0.2646  0.1361 -0.0347
18935W        W35009  13.830  12.452  13.092  0.1357 -0.1124  0.1180
18936W        W35010  10.842   1.765   3.532 -0.1449 -0.1245  0.0204
18937W        W35011  10.788  17.777   5.147 -0.0592 -0.1144 -0.1598
18938W        W35012  12.598  15.233  12.094 -0.3239  0.2868 -0.1265
18939W        W35013   4.777  10.155   1.641 -0.0271  0.2648 -0.2805
18940W        W35014   6.467  12.994   2.377 -0.1640  0.3373  0.4068
18941W        W35015   4.204  17.825  13.132 -0.0630  0.2033 -0.0619
18942W        W35016   6.000   8.582  14.890 -0.2193 -0.0470  0.2357
18943W        W35017   3.213  14.135  16.434  0.1331  0.0326  0.0798
18944W        W35018  16.893  15.642  11.878  0.1807 -0.0955  0.1103
18945W        W35019  12.585  17.299   3.367 -0.1312  0.1155  0.2923
18946W        W35020   3.216  11.896  13.241 -0.2137 -0.0802  0.0064
18947W        W35021   8.673  15.845  15.200  0.3273 -0.1226  0.0372
18948W        W35022   6.603   7.305   0.263 -0.2888  0.2463  0.3423
18949W        W35023   8.595  10.297  16.306 -0.0380 -0.1233  0.1035
18950W        W35024  15.142   5.789   5.458 -0.1744  0.0995  0.2547
18951W        W35025  13.655  15.102   2.699 -0.1113  0.0369 -0.0353
18952W        W35026  17.188  16.694  14.307 -0.0836 -0.0508 -0.1889
18953W        W35027   6.128  17.014  12.324 -0.0593 -0.1417 -0.0932
18954W        W35028   9.964   2.131   5.655 -0.0986 -0.0948 -0.0747
18955W        W35029  15.270  14.550   1.632  0.1371 -0.0314  0.1306
18956W        W35030   1.901  10.278  12.022  0.0460  0.0308 -0.0872
18957W        W35031  12.553  10.961   5.312  0.1029  0.2677  0.0204
18958W        W35032   5.549   6.105  15.892 -0.1544  0.0507 -0.0151
18959W        W35033   3.259  16.200   2.377 -0.0198 -0.2464  0.1230
18960W        W35034   2.437  17.165  15.395 -0.1875 -0.0181  0.2652
18961W        W35035   3.500   1.208  11.208 -0.2447 -0.1143  0.2496
18962W        W35036  16.190   0.289  13.332  0.2178 -0.0785  0.2633
18963W        W35037   1.251  17.374  12.020  0.0778  0.1011  0.1258
18964W        W35038   5.575   6.611  15.032 -0.2226 -0.0175  0.1021
18965W        W35039  12.943   8.812  13.642  0.1750  0.0992 -0.1354
18966W        W35040   2.078  17.091  14.465 -0.1332  0.0139  0.2575
18967W        W35041   4.820  15.600  14.705 -0.0165 -0.0478  0.0778
18968W        W35042  16.657  11.528  13.313  0.1457 -0.3715  0.0070
18969W        W35043   0.154   0.464   4.307 -0.0071 -0.1718 -0.0865
18970W        W35044   6.671  11.974  13.529  0.4500 -0.2506  0.0122
18971W        W35045   9.319  10.609  14.459  0.1673  0.1249 -0.2339
18972W        W35046  10.655   4.773   6.063  0.0608 -0.4081  0.2366
18973W        W35047  15.018   7.818   3.024  0.1629  0.2861 -0.0119
18974W        W35048  10.021   3.758  15.339  0.0872  0.0790  0.0457
18975W        W35049   7.622   2.887   1.332 -0.0081 -0.2410 -0.0037
18976W        W35050   3.569   3.588   2.713 -0.1384 -0.0835  0.0280
18977W        W35051   6.169   5.404   2.313 -0.0043 -0.0967  0.0095
18978W        W35052  11.104  17.298   0.852  0.0711 -0.1501 -0.2692
18979W        W35053  16.558  16.441   0.105 -0.0278 -0.3859  0.1215
18980W        W35054  14.510   6.673   4.630  0.1289  0.2091 -0.0963
18981W        W35055   2.664   7.561   0.660 -0.3015 -0.0847  0.1466
18982W        W35056  13.967  10.886  16.694  0.1332 -0.0623  0.0375
18983W        W35057  14.570   1.606  13.302  0.0690 -0.1554  0.2825
18984W        W35058   0.754   6.962   0.230  0.0236  0.0687  0.1978
18985W        W35059   8.060   4.140  11.100 -0.0293 -0.3023  0.1456
18986W        W35060  14.211   2.902  12.700 -0.0548  0.0659  0.0056
18987W        W35061   9.943  16.807   3.988  0.0249 -0.0581  0.1298
18988W        W35062   3.343  16.574  15.648  0.0129  0.0333  0.2248
18989W        W35063  10.531   4.545  11.963  0.0270  0.0834 -0.2219
18990W        W35064  17.580  17.413   2.491  0.0141 -0.1509  0.1711
18991W        W35065   1.761  17.008  14.822 -0.0003 -0.1281 -0.2705
18992W        W35066   4.131   2.806   2.741  0.1664 -0.0628  0.2574
18993W        W35067  10.377   1.849  16.747 -0.4072 -0.2886  0.2550
18994W        W35068  11.188   3.228  15.790  0.3253 -0.0544  0.0441
18995W        W35069  12.119   7.839   5.166  0.1752  0.0567  0.1186
18996W        W35070  12.696   7.831   1.365 -0.0828 -0.0922 -0.0815
18997W        W35071   8.093   0.506  15.950  0.0795 -0.0864 -0.0420
18998W        W35072  13.358  14.388   0.257 -0.2193 -0.0048 -0.1076
18999W        W35073   5.997   9.558   0.901  0.1719  0.0131  0.0558
19000W        W35074   0.093   3.381  14.468  0.1524  0.4247 -0.1396
19001W        W35075  11.444  12.513   0.496  0.1199  0.1180 -0.0589
19002W        W35076   2.284   4.937  16.542 -0.0928 -0.0189  0.2778
19003W        W35077   2.708  12.925  14.215 -0.2691 -0.0732 -0.0697
19004W        W35078  12.053  11.079   0.746  0.0058 -0.0300  0.1140
19005W        W35079  10.059   7.154  14.256  0.0405  0.1243  0.0996
19006W        W35080   8.684  12.793   2.580 -0.1525  0.0458  0.2392
19007W        W35081  14.418   3.092  14.501 -0.2666  0.2042 -0.0875
19008W        W35082   6.783   6.890  16.472  0.0402 -0.1368 -0.0253
19009W        W35083   5.454   6.214  13.386  0.0897  0.1250  0.0292
19010W        W35084   2.755   1.374   0.465  0.3417 -0.0075  0.0464
19011W        W35085   1.272  13.431  13.468 -0.3461 -0.1016  0.2856
19012W        W35086  13.479   3.288   2.468 -0.0690  0.1311  0.0248
19013W        W35087   9.937   0.847  12.220 -0.2071  0.2871 -0.0228
19014W        W35088  13.189   2.875   1.819  0.1665 -0.1630  0.3296
19015W        W35089   3.416   8.514   2.566  0.2902  0.1089 -0.0057
19016W        W35090   9.683  10.707  15.997 -0.0798 -0.1666  0.1110
19017W        W35091  11.347  12.032   4.179  0.1291  0.0463  0.0569
19018W        W35092  14.488   2.887  12.266  0.0435 -0.1439  0.0258
19019W        W35093   6.368   4.583   2.543 -0.0764 -0.0171 -0.1047
19020W        W35094   6.574  12.541  12.672  0.0985  0.3318  0.1712
19021W        W35095   0.166  11.457   5.566 -0.0635 -0.1921 -0.2648
19022W        W35096   9.719   2.783   4.104 -0.1512 -0.2848  0.0998
19023W        W35097   4.375   3.060   1.978 -0.3181 -0.0360  0.1386
19024W        W35098   7.809  13.220   0.552  0.0317  0.2289 -0.1966
19025W        W35099  10.884  12.748  12.169 -0.1170  0.2732 -0.4003
19026W        W35100   1.972   8.049   3.060  0.3486 -0.3722  0.0188
19027W        W35101  17.659   4.432   2.759 -0.1999 -0.1478 -0.0338
19028W        W35102  13.858   9.919  15.017  0.1885  0.1205 -0.0509
19029W        W35103   2.708  10.962  14.616  0.1648 -0.1141 -0.2402
19030W        W35104   5.956  10.084  14.329 -0.0307  0.2988  0.3112
19031W        W35105   5.316  17.651   3.831  0.0393 -0.2895 -0.0978
19032W        W35106   9.175   1.357   0.028 -0.1294  0.2717 -0.1422
19033W        W35107   4.686  10.508   3.638  0.1612  0.1740  0.1833
19034W        W35108  10.144  11.006   3.765 -0.1555  0.2136  0.0069
19035W        W35109   7.232   8.370  13.240  0.1341  0.3456  0.2026
19036W        W35110  17.157  15.107   0.390  0.1611 -0.0391 -0.0864
19037W        W35111  15.523   2.793  12.255  0.0911 -0.0402 -0.1438
19038W        W35112  10.448   4.333  14.668  0.3752 -0.1668 -0.0346
19039W        W35113  13.974   7.466  11.629  0.0313  0.1203  0.1010
19040W        W35114   2.529  13.277  12.546  0.0940  0.0290  0.0220
19041W        W35115   5.887  13.089  14.123 -0.1418  0.0682  0.1325
19042W        W35116  10.059   3.613   5.228 -0.2210 -0.0051  0.0786
19043W        W35117   0.978  10.536   2.304  0.0348 -0.1689  0.2946
19044W        W35118  14.939   0.293  15.775  0.2133 -0.1979  0.0917
19045W        W35119   1.407  13.198  14.840 -0.0182 -0.0239  0.4188
19046W        W35120  11.150   0.001  12.465  0.3450 -0.1225  0.0197
19047W        W35121   5.784  14.161   0.033 -0.1238 -0.0952  0.0694
19048W        W35122   8.370   1.898   0.073 -0.0205  0.1429 -0.4048
19049W        W35123   9.144  13.542   1.298 -0.0389  0.2090 -0.0095
19050W        W35124  12.976  13.545   0.885  0.0522 -0.0987  0.2207
19051W        W35125  11.048   7.715   0.689 -0.0728 -0.1199  0.1678
19052W        W35126   5.298  12.088  14.891 -0.2418 -0.0491 -0.3001
19053W        W35127   6.349   2.326  15.271 -0.0253  0.3857  0.0354
19054W        W35128   7.153   6.001  15.862 -0.0966  0.0018  0.2075
19055W        W35129   2.289   7.983  15.741  0.0808 -0.3679 -0.0264
19056W        W35130   8.474   4.310   4.015 -0.1059 -0.0462 -0.0838
19057W        W35131   3.960  14.948   3.578 -0.1508 -0.0922 -0.1442
19058W        W35132  11.049   3.427   5.791  0.0221  0.0201  0.2000
19059W        W35133  11.157   6.831  12.298 -0.0701 -0.0671 -0.1282
19060W        W35134  14.872   7.309   0.412 -0.3443  0.0124 -0.0498
19061W        W35135  17.179  15.507  16.016  0.2206 -0.3767 -0.0684
19062W        W35136   4.174   9.625   2.672  0.3256  0.0338 -0.2448
19063W        W35137   3.778   8.758   4.808 -0.1691  0.2120  0.2239
19064W        W35138   3.510  17.125   1.014 -0.0595  0.0486 -0.0521
19065W        W35139   5.457   0.730   4.065  0.0378  0.1562 -0.1566
19066W        W35140   8.655  11.106   4.637  0.1367 -0.2601 -0.0467
19067W        W35141  14.324  10.708   0.630 -0.1562  0.1188 -0.0134
19068W        W35142   2.140  13.155   2.485  0.0840 -0.0312  0.2165
19069W        W35143   0.543  11.806  14.820 -0.0559  0.2660 -0.1253
19070W        W35144   9.250  17.697  16.275  0.0129  0.3502 -0.0054
19071W        W35145   4.757  13.269  16.371 -0.0698  0.0996  0.2532
19072W        W35146   5.649  15.379   5.886 -0.1442  0.3256 -0.1244
19073W        W35147  10.593   3.732   3.758  0.0616 -0.0365 -0.1072
19074W        W35148   4.670   7.881  16.812  0.0776 -0.2778 -0.3897
19075W        W35149   8.222  12.131   4.266 -0.2261  0.1111 -0.0416
19076W        W35150   8.834  16.305   3.033  0.2694 -0.1420  0.1956
19077W        W35151   2.669   5.293   1.846 -0.2166 -0.1027  0.5675
19078W        W35152  13.468  15.916   0.325 -0.0207 -0.2163 -0.0657
19079W        W35153   9.074  14.705   2.365  0.1570  0.1800  0.1121
19080W        W35154  15.802   9.471   0.008 -0.0920 -0.1444 -0.3194
19081W        W35155   9.456  12.633  16.471  0.1775 -0.1013 -0.2011
19082W        W35156  12.103  14.640   1.178  0.0923 -0.1220  0.0005
19083W        W35157  11.532   2.185   1.732 -0.1160 -0.5698  0.2266
19084W        W35158  11.380   9.571  11.641  0.0919 -0.0374 -0.0339
19085W        W35159  17.344  15.509   2.058 -0.0443  0.1853  0.0487
19086W        W35160   4.166   1.651  11.736 -0.1294 -0.0341 -0.0092
19087W        W35161   1.680   9.478   2.006 -0.0681  0.2036 -0.1366
19088W        W35162   5.413   4.940   5.168 -0.0557 -0.0606  0.2816
19089W        W35163   6.089   2.464  15.817  0.1860  0.0594  0.1977
19090W        W35164  13.092   5.420  16.422 -0.1570 -0.0128 -0.0656
19091W        W35165   9.859   5.674   2.813 -0.1997 -0.4651 -0.3168
19092W        W35166   9.615  15.073  12.558  0.0059 -0.1122  0.2742
19093W        W35167  12.560  14.195   1.989  0.3161 -0.2118 -0.2049
19094W        W35168   3.206  11.671  15.818  0.0134  0.2052 -0.0368
19095W        W35169  14.270   8.254   3.313 -0.0629  0.2306 -0.1264
19096W        W35170   5.661   0.219  12.972 -0.1055 -0.1583 -0.0802
19097W        W35171  11.348  10.584   4.225 -0.2324 -0.4000  0.0557
19098W        W35172   6.121   0.419   4.286 -0.1252  0.0362  0.2142
19099W        W35173  12.802   3.381  12.786  0.2773  0.2218  0.0586
19100W        W35174   6.521  12.622   5.084  0.2147  0.0297 -0.0493
19101W        W35175  13.459  11.451   5.530 -0.1650  0.0862 -0.0176
19102W        W35176  10.959   2.782  15.629  0.4755 -0.3793  0.2005
19103W        W35177   0.692   4.713   4.735 -0.1164  0.0868  0.1236
19104W        W35178  11.501   9.899  12.772 -0.0747 -0.0578 -0.0557
19105W        W35179  10.398  15.524   2.874  0.2144  0.1681  0.0507
19106W        W35180   6.581   4.848   0.038  0.1577 -0.1354  0.1427
19107W        W35181   3.047   7.768   2.462  0.0945  0.2380 -0.1898
19108W        W35182   0.217  13.065   3.884 -0.0067 -0.1398 -0.1988
19109W        W35183  10.022   0.647  12.819  0.3399  0.1950  0.1966
19110W        W35184  15.551   6.893  15.229  0.2052 -0.0571  0.2759
19111W        W35185   3.685   4.650  13.835  0.0008 -0.0265  0.0393
19112W        W35186  13.899  11.596  13.011  0.0060  0.0058  0.1170
19113W        W35187   2.367   9.339   3.657 -0.0720 -0.2313  0.0321
19114W        W35188   9.678   7.378   0.069 -0.0629  0.0175 -0.0457
19115W        W35189  14.969   5.847  15.297  0.0862  0.1671  0.2368
19116W        W35190  10.046   5.152  13.168 -0.3435 -0.1326 -0.1018
19117W        W35191  11.441   1.825   4.297  0.0782  0.1219  0.0012
19118W        W35192   2.950  11.959   4.926  0.1419  0.1149  0.1834
19119W        W35193  10.632   2.435  15.489  0.1516  0.0950 -0.2444
19120W        W35194  17.763   5.860   4.124  0.0424  0.0042  0.0037
19121W        W35195  15.987   0.457  12.876 -0.2345  0.1700 -0.0124
19122W        W35196   4.115  15.775   2.518 -0.2600 -0.0487 -0.1944
19123W        W35197   9.415  10.570   3.818 -0.1399  0.0740  0.1689
19124W        W35198   4.413   0.751  16.566 -0.1080  0.0055  0.0608
19125W        W35199   8.535  15.361   2.917  0.1261 -0.2671 -0.2493
19126W        W35200   2.769   4.307  11.575 -0.0844  0.3347  0.0450
19127W        W35201   4.956   5.221  14.112 -0.1729 -0.3781  0.1950
19128W        W35202   1.830  17.026   5.479  0.2777  0.0560  0.0173
19129W        W35203   0.263  10.929  15.294 -0.0728  0.1980 -0.0014
19130W        W35204   3.382   2.801  16.217 -0.0134 -0.1017  0.2454
19131W        W35205   6.799   7.291   2.379  0.0170  0.0268  0.1467
19132W        W35206   3.724   7.965  12.957 -0.1666 -0.2662 -0.1248
19133W        W35207  13.009   2.512   4.441 -0.0157 -0.0382  0.0325
19134W        W35208  15.210  10.505  15.340 -0.0181 -0.0458  0.2123
19135W        W35209  13.363   5.603  11.876  0.0134 -0.3460 -0.0765
19136W        W35210   1.467  12.078  11.871 -0.2332 -0.3444  0.0922
19137W        W35211  13.355  16.979  13.684 -0.0902  0.1282  0.1775
19138W        W35212   7.570   4.531   3.991 -0.1024 -0.1239  0.0646
19139W        W35213   5.906  14.415  14.813 -0.0493 -0.2254 -0.0240
19140W        W35214   6.362  11.314  15.272 -0.0700  0.1025  0.4220
19141W        W35215   7.633  14.898   4.980  0.0238  0.0629 -0.0532
19142W        W35216  15.169  15.261  16.158  0.0408 -0.0648  0.1850
19143W        W35217  10.073  16.784  13.803 -0.0800 -0.0561  0.3040
19144W        W35218   8.257   3.529  15.471 -0.1656  0.1802 -0.0050
19145W        W35219   0.128   2.856   4.329  0.0518 -0.2365 -0.0755
19146W        W35220  17.756  10.617  13.413 -0.1918  0.2191  0.0643
19147W        W35221   3.982   9.099   2.860  0.0472 -0.2327  0.0237
19148W        W35222   6.400   9.553   2.509 -0.1506  0.1195  0.6051
19149W        W35223   6.301   2.029  14.440  0.1360 -0.0595 -0.0955
19150W        W35224  15.876   6.355   3.232 -0.0502 -0.3826  0.3050
19151W        W35225   3.760   2.227   5.689  0.0676  0.2186  0.1994
19152W        W35226   3.449  10.539   2.926 -0.0922 -0.0041 -0.4201
19153W        W35227   8.101   0.782  14.186  0.1638 -0.0735  0.0806
19154W        W35228   2.662   3.583   3.517  0.0308  0.0951 -0.0648
19155W        W35229   0.696  10.238   0.761 -0.2357  0.1859 -0.0253
19156W        W35230  14.071  16.424  16.228 -0.1295  0.0186 -0.1276
19157W        W35231  11.864  16.584  12.949 -0.0904 -0.2594  0.1380
19158W        W35232  13.573   1.504  13.826 -0.2289  0.2078  0.0470
19159W        W35233  12.830  13.434   3.274 -0.0865 -0.0199 -0.0100
19160W        W35234  16.885   1.210  12.020 -0.0118  0.1021  0.1726
19161W        W35235   1.266  10.747   3.736 -0.0541  0.2554  0.0644
19162W        W35236   6.208   8.889  14.060  0.4375 -0.0204  0.3557
19163W        W35237  10.925   6.755   4.024  0.1229 -0.0019 -0.2031
19164W        W35238   8.649  17.744   5.004 -0.2901 -0.0273  0.0130
19165W        W35239  11.192  12.493   4.330 -0.1256 -0.2032  0.0405
19166W        W35240   0.576  13.578  12.134 -0.2070  0.0123  0.1554
19167W        W35241   0.885   0.551   4.373 -0.1785  0.1836 -0.2275
19168W        W35242   9.639   5.133  14.126  0.0214 -0.1140 -0.0793
19169W        W35243   1.535   1.970  13.106  0.2143 -0.3451  0.1931
19170W        W35244   1.608   8.395  13.233 -0.0257 -0.1756 -0.0556
19171W        W35245  16.654   8.481  14.223 -0.0996  0.4293 -0.0919
19172W        W35246   2.497  12.219   5.084  0.0604 -0.0331 -0.0773
19173W        W35247  17.515   1.027   0.592  0.0778  0.2841 -0.0379
19174W        W35248  16.007   9.380   4.134  0.1404 -0.1643 -0.0462
19175W        W35249   7.970   2.000   0.944 -0.0019  0.0976  0.0096
19176W        W35250   4.907  14.213   1.945  0.0155  0.2602  0.0858
19177W        W35251   1.824  14.040  15.724  0.2684  0.1872  0.2186
19178W        W35252   8.116   5.517   5.070  0.0340  0.3096 -0.1174
19179W        W35253   1.279  15.990  13.837 -0.1321 -0.0994 -0.0309
19180W        W35254   7.546   4.831  12.987 -0.1743 -0.3025  0.0534
19181W        W35255   8.117   4.881   3.313 -0.0014  0.1226  0.0635
19182W        W35256   0.518   5.092  12.496  0.0675  0.6454 -0.1162
19183W        W35257   5.320   8.035   2.667 -0.1038 -0.1174 -0.2098
19184W        W35258   3.561   6.195   1.359  0.4517  0.0588  0.4702
19185W        W35259   2.012  12.577  13.385  0.3375  0.1032 -0.1121
19186W        W35260   3.117   1.087  14.629 -0.0873  0.0215 -0.0336
19187W        W35261   1.409   8.703   1.598 -0.1333  0.0674 -0.1799
19188W        W35262   2.588   4.739  15.001  0.1723 -0.1713 -0.1651
19189W        W35263   8.169   0.806  13.628  0.0494 -0.0488  0.1435
19190W        W35264  10.502   9.753   4.546  0.1152 -0.0904  0.2204
19191W        W35265  17.375  17.367  12.434  0.0527 -0.0731 -0.0834
19192W        W35266   5.392   2.511   1.313 -0.0068 -0.3722 -0.0071
19193W        W35267   8.550   0.395  10.613 -0.1663  0.1194 -0.2882
19194W        W35268   6.784   9.039  13.187 -0.4715 -0.0154  0.1154
19195W        W35269   1.566   8.767   2.496 -0.4861 -0.2019 -0.0466
19196W        W35270   3.430  10.413   5.561  0.0357  0.2388 -0.1077
19197W        W35271  13.082   5.850  16.782 -0.1128 -0.2943 -0.1031
19198W        W35272  14.727  13.484   4.436  0.0120  0.0922 -0.0610
19199W        W35273   8.099  12.344   2.110 -0.1683 -0.1002 -0.4163
19200W        W35274  13.864  15.698   1.443  0.1098  0.0420 -0.2819
19201W        W35275  15.928  10.229   3.562 -0.0209  0.0418 -0.1670
19202W        W35276  12.703  17.392  12.556  0.0551 -0.2103  0.1425
19203W        W35277  15.638   5.032  16.296  0.3080 -0.0009  0.2199
19204W        W35278   5.037   1.267   1.763  0.0817 -0.0698  0.0969
19205W        W35279  13.948   8.894   1.941  0.3123 -0.1186  0.0194
19206W        W35280  10.269  12.096  12.648  0.0094  0.3308 -0.0698
19207W        W35281  10.853   1.971   2.844  0.1613  0.0161 -0.2325
19208W        W35282   6.328   9.916  15.338 -0.1742  0.1084  0.0085
19209W        W35283   6.722   6.752  15.670  0.2356  0.2250 -0.4877
19210W        W35284   4.799   0.341   3.587  0.1553 -0.0638 -0.0445
19211W        W35285  17.728   1.799   4.115 -0.1744 -0.2501 -0.0914
19212W        W35286   3.904   4.688   1.358  0.0317  0.2551  0.0539
19213W        W35287   8.353   0.342   0.163 -0.1404  0.1074  0.2521
19214W        W35288   8.414   0.569   3.808  0.0754  0.4062  0.2155
19215W        W35289  14.093   7.915   2.945  0.0532 -0.3423 -0.1936
19216W        W35290  15.234   4.314   2.529  0.2912  0.1559 -0.1808
19217W        W35291  17.722   6.319   2.091 -0.1900 -0.0879  0.1462
19218W        W35292   3.882   6.686  16.024  0.1848 -0.2717  0.0213
19219W        W35293  11.300  15.451  15.002 -0.0292 -0.0208  0.2891
19220W        W35294  16.121   8.160  16.464  0.0394 -0.2591 -0.2719
19221W        W35295   0.254   9.802   1.204 -0.5733 -0.0878  0.0485
19222W        W35296  17.042  17.671  12.710  0.2179  0.5058 -0.4532
19223W        W35297  15.338   8.301   1.875 -0.0342  0.5446 -0.4214
19224W        W35298  12.041   2.302   1.523  0.1492 -0.0184 -0.1453
19225W        W35299   8.520  14.474  13.737 -0.1398  0.0395  0.0767
19226W        W35300  13.267  16.224  11.761 -0.2154  0.2710  0.1985
19227W        W35301   8.848  17.513   4.590  0.1143 -0.0940 -0.0215
19228W        W35302   8.651   6.623  15.033 -0.0057  0.3619 -0.4693
19229W        W35303   3.658  14.332   2.293  0.0200  0.0251 -0.0326
19230W        W35304   8.287   4.943  15.263  0.0484 -0.0055  0.0355
19231W        W35305   5.144   8.196   1.337 -0.5061 -0.1158 -0.0345
19232W        W35306  15.415   4.860   0.141 -0.2981 -0.0420  0.2100
19233W        W35307   3.565  14.790  16.222 -0.2235 -0.1301 -0.4020
19234W        W35308   2.846   8.070   3.655 -0.2980 -0.0743  0.4692
19235W        W35309   1.306   3.692  13.695 -0.0536 -0.2764  0.1088
19236W        W35310   8.936   2.287  16.705 -0.1784  0.0666 -0.1823
19237W        W35311  11.294   1.237  12.230 -0.1689  0.1365  0.2131
19238W        W35312   6.450   6.107   2.563  0.1407  0.0633  0.0820
19239W        W35313   8.986   6.539  16.504 -0.2408  0.0285  0.3694
19240W        W35314   0.296  10.418   4.376  0.0428  0.0761 -0.1770
19241W        W35315   4.348  15.892  13.930 -0.1170 -0.1442  0.0117
19242W        W35316  13.201  10.921  12.014  0.0275  0.0512  0.1950
19243W        W35317   9.345  15.550  13.253  0.1530  0.1343  0.1174
19244W        W35318   8.452  10.192   0.032 -0.1516 -0.2048  0.1320
19245W        W35319   4.673   8.444   1.366 -0.3103  0.1717 -0.1220
19246W        W35320   6.754  11.345   3.613  0.1904  0.0415 -0.0585
19247W        W35321  16.772   3.633   4.771  0.3399  0.2000  0.1802
19248W        W35322  12.695   0.686   0.546 -0.2985 -0.3580  0.0065
19249W        W35323   6.456  11.335   2.512 -0.0368  0.1328  0.0630
19250W        W35324  13.757   1.631  11.049 -0.2872  0.4053 -0.1251
19251W        W35325   6.697  10.334   3.554 -0.2783  0.0759  0.0392
19252W        W35326   5.062   4.994   3.051  0.2579 -0.0449  0.1735
19253W        W35327   9.011  14.592   1.858 -0.2179  0.1404  0.0879
19254W        W35328   6.572   5.801  15.083  0.0467 -0.2311 -0.0888
19255W        W35329   8.839  17.176  14.856 -0.1537  0.3279  0.0827
19256W        W35330   1.027  12.099   5.447 -0.1953  0.0989 -0.2392
19257W        W35331   0.846  17.661   1.308  0.1560  0.0188 -0.0547
19258W        W35332   6.038   3.890   1.397 -0.0826 -0.1063  0.0834
19259W        W35333  17.182  14.206   3.729 -0.1549  0.1043 -0.0397
19260W        W35334   2.902   2.029  12.966  0.0064  0.0955  0.1854
19261W        W35335  10.942   8.994  12.379 -0.2959  0.0726  0.2265
19262W        W35336   9.234   2.790   4.599  0.2624  0.0000 -0.2665
19263W        W35337  17.277   5.373   4.563 -0.1674 -0.1074 -0.1588
19264W        W35338   0.227  14.056  13.387  0.4181  0.2591 -0.1428
19265W        W35339  11.383  14.167  11.287 -0.0980 -0.1110  0.1760
19266W        W35340  10.623   7.770   2.877  0.0337  0.2684 -0.2344
19267W        W35341  16.109  12.356  13.073 -0.1352 -0.1165 -0.1401
19268W        W35342  11.066  17.291  16.948  0.0600 -0.1218 -0.2326
19269W        W35343   0.901  10.544  12.912  0.0135 -0.1214  0.0518
19270W        W35344   4.988   4.667   5.827 -0.5079  0.3175 -0.0225
19271W        W35345   9.585  11.013  12.857  0.0773 -0.1441 -0.0349
19272W        W35346   5.996   4.610  13.811  0.0631 -0.1594 -0.2788
19273W        W35347   2.185  16.704  13.299 -0.0135 -0.0014 -0.0333
19274W        W35348   8.643  15.709   3.858  0.2732  0.0200  0.2924
19275W        W35349   3.253   3.486   4.635  0.2728  0.0848  0.2771
19276W        W35350   7.435   9.401  11.263 -0.0468 -0.1978  0.0868
19277W        W35351   1.288  16.390  13.533  0.0923  0.0735  0.1143
19278W        W35352  15.077   4.846   3.965 -0.0933  0.2543 -0.1273
19279W        W35353  12.816  12.106  15.438 -0.0423  0.2755  0.1081
19280W        W35354   3.159  12.124  12.771  0.0574  0.4335  0.0939
19281W        W35355   3.557   9.464   4.076  0.0496  0.0139  0.1546
19282W        W35356  16.294   2.088  14.836 -0.1195 -0.0044  0.2081
19283W        W35357  15.195  17.363  12.940 -0.2441 -0.0260 -0.0232
19284W        W35358  14.657  16.491  16.190  0.1795 -0.1258 -0.0482
19285W        W35359   0.477  10.857   4.447  0.1803  0.0948  0.1229
19286W        W35360   4.671  14.126   4.703 -0.0057  0.1008  0.4467
19287W        W35361   0.689   3.284   5.323 -0.1143 -0.2876 -0.0815
19288W        W35362  10.173  12.675   6.214  0.1558  0.0720 -0.2194
19289W        W35363   4.062   1.946   3.017 -0.4100  0.1430  0.1613
19290W        W35364  13.195  10.076   4.560 -0.1830 -0.2937  0.0866
19291W        W35365  16.416  15.166   1.175  0.1936  0.2873 -0.2607
19292W        W35366  13.085  14.508   6.171 -0.1121 -0.1721  0.3952
19293W        W35367   2.844   2.198   1.037 -0.0860 -0.1385 -0.1226
19294W        W35368   4.326  12.407  11.765 -0.2179  0.1839 -0.0119
19295W        W35369   8.872  15.025  13.750  0.1033 -0.1064 -0.3386
19296W        W35370   9.452   6.367  10.801  0.1245  0.0957  0.1731
19297W        W35371   3.493   4.930  11.946  0.0118 -0.1054  0.0149
19298W        W35372   7.906   4.346  15.699  0.1782  0.0950 -0.0519
19299W        W35373  12.049  14.693  16.769 -0.1814  0.0235 -0.0915
19300W        W35374  13.852  17.348   4.589  0.0272  0.0788 -0.0044
19301W        W35375  11.382  11.023  11.942  0.0320 -0.0703 -0.3102
19302W        W35376  16.751  17.279  16.515 -0.1029  0.0905 -0.0438
19303W        W35377   5.511   3.179  15.304 -0.1052 -0.1843  0.3798
19304W        W35378   4.435  17.297   1.220 -0.1658 -0.3917  0.1118
19305W        W35379   4.446  13.244  13.386  0.2217  0.3167  0.2183
19306W        W35380   0.389   3.984   1.208 -0.1536  0.1835 -0.0488
19307W        W35381   3.574   7.365   1.537  0.0981  0.1672 -0.1785
19308W        W35382   0.389  14.657  13.561 -0.0147  0.0158  0.0534
19309W        W35383   6.325   7.081  16.899  0.0540 -0.3103  0.1393
19310W        W35384   4.612  10.438  16.721 -0.1291  0.3727 -0.0942
19311W        W35385   3.482  14.160  12.988  0.0668  0.1793  0.0388
19312W        W35386   1.006   1.924  14.703  0.5358  0.6257  0.2051
19313W        W35387   0.958  16.966   3.522  0.0971 -0.1000 -0.2504
19314W        W35388   9.264   5.270   0.101  0.1115 -0.1361  0.0492
19315W        W35389   6.282  16.673   1.699  0.0698  0.0077 -0.2848
19316W        W35390  12.725  13.754   5.836 -0.1551 -0.0501  0.2655
19317W        W35391  13.550   7.093  16.338  0.0839 -0.1346 -0.0535
19318W        W35392  17.577   9.324  12.876  0.0063 -0.0304 -0.1563
19319W        W35393   9.481   8.008  14.471  0.3062 -0.1582 -0.0990
19320W        W35394  13.657   7.445  12.915 -0.0532  0.1262 -0.0381
19321W        W35395  15.373   3.245   3.683 -0.0192 -0.0318 -0.0155
19322W        W35396  11.462  15.906   2.174  0.0145  0.2281 -0.0050
19323W        W35397   5.788  13.614   0.126 -0.0589  0.1694 -0.1334
19324W        W35398  17.824   1.225   5.731  0.0195 -0.1492 -0.2967
19325W        W35399  11.055   8.110  11.862  0.1847 -0.3896 -0.2293
19326W        W35400  12.086   3.630  12.597  0.1036  0.2838  0.0550
19327W        W35401   4.567   8.820  13.892  0.2023 -0.0961 -0.1161
19328W        W35402   5.578  11.706   3.993  0.1090 -0.3191  0.1856
19329W        W35403  13.776   3.090   4.386 -0.0571 -0.1538 -0.1516
19330W        W35404   8.931  16.752   3.300  0.0869  0.0356 -0.0040
19331W        W35405  10.129   9.269   1.309  0.1681  0.0164 -0.1800
19332W        W35406   1.203   7.600   1.602 -0.0696  0.1158  0.1875
19333W        W35407  14.703   9.920   4.393 -0.1590 -0.0126  0.3238
19334W        W35408   4.850   3.160   1.537 -0.2520 -0.0420  0.0830
19335W        W35409   2.413   1.481   0.003  0.0952  0.0426 -0.1031
19336W        W35410   4.585   5.403   1.337 -0.0440  0.2340  0.0885
19337W        W35411   9.776   1.146  11.797  0.1939 -0.0217  0.0479
19338W        W35412  11.433   4.899   5.026 -0.0808 -0.0550  0.0570
19339W        W35413   8.822   6.419   2.865 -0.0421 -0.0181  0.0353
19340W        W35414   3.203   5.311  16.448 -0.3515  0.1058 -0.0182
19341W        W35415  11.382  10.713   1.073 -0.2208 -0.2004  0.1091
19342W        W35416  12.159   4.041  15.982 -0.0942 -0.1854  0.1546
19343W        W35417  15.062   4.731  16.108  0.2252  0.2434 -0.0603
19344W        W35418  11.235  12.950   2.570  0.0230  0.0765  0.1969
19345W        W35419  14.496  14.616   6.662 -0.1491 -0.3171  0.0545
19346W        W35420  11.625   6.161   5.203 -0.0361 -0.1278 -0.2092
19347W        W35421   7.241   8.125   2.572 -0.0806 -0.0988 -0.1375
19348W        W35422  17.440  16.005   1.849  0.0663  0.1738 -0.0854
19349W        W35423   6.140  14.511   0.075 -0.1423 -0.0115  0.0373
19350W        W35424   7.174   5.859   1.500  0.3237  0.1249 -0.1471
19351W        W35425   1.368  15.296  14.176  0.0692  0.0836  0.0733
19352W        W35426   0.025  12.455   0.556  0.0235  0.1959  0.1346
19353W        W35427   5.441  13.012   1.292 -0.0848 -0.0284 -0.2821
19354W        W35428   2.147   4.685   0.715  0.1149  0.2582 -0.0776
19355W        W35429  10.778   3.788   0.941  0.4121  0.0645  0.0569
19356W        W35430  16.641   2.484   3.597  0.3747  0.0686 -0.0852
19357W        W35431   3.753   5.627  14.009  0.1523 -0.1683  0.0921
19358W        W35432   6.248  13.528   0.385  0.0407  0.3962 -0.2582
19359W        W35433   2.380   6.022   0.612 -0.0034  0.2582  0.1170
19360W        W35434  14.848  11.404   0.784 -0.2987 -0.0887  0.1184
19361W        W35435   4.171   9.348   1.629 -0.4225 -0.2907  0.1187
19362W        W35436   6.581  11.204   4.753  0.2953  0.2066 -0.0525
19363W        W35437  14.231  12.308  14.218  0.2219  0.0720 -0.2701
19364W        W35438   7.871  15.124  13.842 -0.0104 -0.1721 -0.0224
19365W        W35439   2.075  15.845   3.345  0.3066 -0.1941 -0.1197
19366W        W35440  15.293   7.343  15.845  0.0061 -0.0699 -0.1568
19367W        W35441   2.654   4.157   5.505  0.2474 -0.0142  0.3573
19368W        W35442   7.776   2.195   2.326  0.0028 -0.0564  0.0770
19369W        W35443  16.953   9.716   5.323  0.3450  0.1848 -0.0409
19370W        W35444   6.774   2.565  15.047  0.3921 -0.2415  0.0823
19371W        W35445  16.093   3.979   3.597  0.0250 -0.0142 -0.1549
19372W        W35446  13.940  14.859  14.854 -0.1825 -0.1516  0.1718
19373W        W35447  11.654  12.164   4.547  0.1165 -0.3468 -0.1137
19374W        W35448  13.008  16.779  14.370 -0.2691 -0.0727 -0.0699
19375W        W35449  10.797  16.737   3.610  0.0856  0.0996  0.1246
19376W        W35450   6.089   1.036   0.149 -0.0189  0.0429 -0.1486
19377W        W35451   5.108   1.366  14.031 -0.0769  0.0437  0.1172
19378W        W35452  14.033  13.131   5.754  0.1011 -0.2574 -0.1042
19379W        W35453  11.338  17.785  11.975  0.2785  0.2740  0.0391
19380W        W35454   1.253   6.427  16.463  0.0275 -0.2730  0.1967
19381W        W35455   4.908   6.138  10.471  0.0347  0.0697  0.1356
19382W        W35456  16.704   2.674  16.606  0.0711 -0.0054  0.0404
19383W        W35457   7.695   6.378  14.714 -0.2800  0.0163 -0.2424
19384W        W35458  16.077  15.058   0.195  0.3262 -0.2314 -0.2962
19385W        W35459  11.249  16.027  14.122 -0.1192 -0.0134  0.0767
19386W        W35460  17.216  12.121  16.286  0.2469 -0.2923 -0.0713
19387W        W35461  16.420   7.722  12.372 -0.2819  0.2262 -0.2674
19388W        W35462  13.697  10.077  13.724  0.1465  0.1830 -0.0168
19389W        W35463   7.857  11.027   1.596  0.1485 -0.0423  0.0190
19390W        W35464   0.907   9.053   4.994  0.2382  0.0980  0.0464
19391W        W35465  10.739   2.503   1.456  0.3776 -0.0685  0.1174
19392W        W35466  15.397   6.391   4.793 -0.2076 -0.1623  0.1196
19393W        W35467  12.562  14.906  14.656  0.0408 -0.4041  0.0836
19394W        W35468  10.604   8.173   1.324  0.2911 -0.0677  0.3234
19395W        W35469  14.861   6.213   1.446 -0.1109  0.1636  0.0392
19396W        W35470  12.519  16.037  15.390  0.0203 -0.0868  0.0448
19397W        W35471  13.667  11.473   3.770 -0.1167 -0.0494 -0.0202
19398W        W35472  17.467   2.931   4.475  0.2212 -0.0515 -0.1871
19399W        W35473  14.936  13.763   1.116  0.0242  0.2246 -0.1671
19400W        W35474   7.880   3.015  11.722  0.0038 -0.0237  0.0568
19401W        W35475   2.475   1.172  13.882  0.2869 -0.1090  0.3221
19402W        W35476   0.660  13.216   3.647  0.1323  0.2351 -0.1280
19403W        W35477   0.447  13.627   5.464  0.0832  0.1893 -0.1813
19404W        W35478   1.562   7.511  14.690  0.1109 -0.0174 -0.0426
19405W        W35479  12.273  16.012  16.215  0.1060 -0.1582  0.1586
19406W        W35480   3.797   7.661  13.892  0.0065 -0.0167  0.0362
19407W        W35481   0.131  17.166  13.186  0.2391 -0.0736 -0.3202
19408W        W35482  14.231   2.420  14.866  0.0981  0.1536 -0.3893
19409W        W35483  12.922   4.744   4.510  0.2817 -0.0260  0.1228
19410W        W35484  15.240   5.791   2.743 -0.0282 -0.0107 -0.1316
19411W        W35485   4.183   1.374  10.405  0.1270 -0.0688  0.0460
19412W        W35486   3.814   4.696   4.723  0.0147  0.0329  0.0272
19413W        W35487  15.786   1.152  15.071  0.0176  0.1281  0.1379
19414W        W35488   7.788  13.355   4.573  0.2371 -0.1658  0.3010
19415W        W35489  17.435   6.948   5.682 -0.2740  0.0581 -0.2500
19416W        W35490  10.661  17.364  15.467 -0.0343  0.0261 -0.0376
19417W        W35491   0.923   5.889   3.087  0.0968 -0.0204  0.0188
19418W        W35492  11.329   4.050  12.777  0.1292  0.1465  0.0875
19419W        W35493  13.748  10.258   3.036 -0.3938  0.2286  0.1515
19420W        W35494  15.777   4.726   5.987  0.1237  0.0627 -0.0165
19421W        W35495   6.494   0.267  14.981  0.1124  0.0099 -0.3156
19422W        W35496  12.173  10.426  14.664 -0.1475 -0.1065  0.3998
19423W        W35497   7.316   5.598  16.125 -0.4813  0.0600  0.0569
19424W        W35498   3.399  14.007   0.822  0.1204  0.2049  0.0772
19425W        W35499  17.668  15.753   5.770  0.2128  0.0357 -0.1050
19426W        W35500   0.707   1.152   2.667 -0.1785 -0.1231 -0.2896
19427W        W35501   8.387  10.463  13.251  0.1540 -0.1527 -0.3259
19428W        W35502   8.982  10.808  12.244  0.1580 -0.1118 -0.2523
19429W        W35503   3.842  17.515  13.286 -0.2848  0.0814 -0.0791
19430W        W35504  10.797   0.398   1.722 -0.1207  0.4499 -0.0153
19431W        W35505   1.975  14.940  13.125 -0.1801 -0.3190 -0.1809
19432W        W35506   7.467   9.107   5.410 -0.1108 -0.1644  0.1820
19433W        W35507   6.983   3.698   6.553 -0.1865 -0.0945  0.2382
19434W        W35508   2.958  11.016  11.342  0.0009 -0.2974  0.1562
19435W        W35509   9.108   6.376  15.665  0.1761 -0.0280  0.2239
19436W        W35510   0.118   7.953   5.986  0.0562 -0.1721 -0.0498
19437W        W35511  13.873   7.363   0.943  0.1400 -0.3922  0.0572
19438W        W35512   6.687  14.473   5.185 -0.0131  0.0291  0.2603
19439W        W35513   3.773   3.864   4.645  0.0424  0.1445 -0.3972
19440W        W35514   5.315   7.485   2.786  0.1033  0.1248 -0.2441
19441W        W35515   7.572  16.803  12.416 -0.0487  0.1724  0.1475
19442W        W35516  13.427   5.949   2.519  0.3536 -0.0388 -0.1272
19443W        W35517  11.766  15.715   6.808  0.3579 -0.0471  0.0200
19444W        W35518   3.113  14.017   0.131  0.1096 -0.0477 -0.3285
19445W        W35519   6.577   9.375  14.666 -0.2550  0.2152  0.3227
19446W        W35520   3.613   4.353   4.411  0.0176 -0.1635  0.0217
19447W        W35521   7.182  15.797  16.413  0.0779  0.3670  0.2489
19448W        W35522  13.263   3.303   1.452 -0.0912  0.1615 -0.0776
19449W        W35523   2.501   8.659   5.942 -0.1479 -0.0837 -0.2001
19450W        W35524  12.594  14.260   4.991  0.1683  0.1054  0.0009
19451W        W35525   9.978  16.326   4.138  0.0059 -0.0194 -0.0662
19452W        W35526  17.272   9.783   1.109  0.2128 -0.1303  0.0270
19453W        W35527   2.372  12.452   3.278  0.0882  0.2862  0.1702
19454W        W35528   8.596  14.230   0.394  0.0551  0.1309 -0.0965
19455W        W35529   5.971  16.035  13.291 -0.0618  0.1599  0.0947
19456W        W35530  15.846   3.437   2.506 -0.1372 -0.2611  0.0816
19457W        W35531   5.019   9.867  12.119  0.0572 -0.0672  0.1492
19458W        W35532   9.887   7.375   2.850 -0.2278  0.0139 -0.0247
19459W        W35533   0.677   6.768  15.189  0.0956  0.1048 -0.3407
19460W        W35534   4.271  10.252  13.112  0.0341  0.0355 -0.2507
19461W        W35535  11.173   1.752  16.216 -0.0827  0.0768 -0.0551
19462W        W35536  12.459  13.772  15.591  0.1370 -0.0196 -0.0499
19463W        W35537  10.825   8.582  13.014  0.1447  0.2354 -0.2342
19464W        W35538   5.268   7.238   1.401  0.1167 -0.0739  0.1974
19465W        W35539   0.471   8.857   1.325  0.2633  0.0945 -0.1728
19466W        W35540  14.395  15.194   5.128 -0.2119 -0.2665 -0.3514
19467W        W35541  14.173   1.775  14.256  0.0460 -0.2035 -0.2410
19468W        W35542   2.546   0.885  12.815  0.0002  0.2641 -0.0246
19469W        W35543  10.103   2.892   4.865 -0.0753  0.1064 -0.1066
19470W        W35544   1.210   9.350  12.477 -0.2484 -0.1076 -0.2185
19471W        W35545   1.133   5.180  13.010 -0.1488 -0.0709 -0.0742
19472W        W35546   8.596   2.252   5.365 -0.4107 -0.1354 -0.1353
19473W        W35547  14.169   3.290   5.781 -0.1334  0.2988 -0.2948
19474W        W35548   7.911  11.979  16.816  0.4874 -0.2708  0.1930
19475W        W35549   1.582   1.887  15.133  0.1796  0.4397  0.2528
19476W        W35550  17.844  12.593  16.810  0.3152  0.1722  0.1855
19477W        W35551  13.184  15.135   2.202  0.0365 -0.0039 -0.1007
19478W        W35552  16.396   1.061   4.100  0.1556  0.0688 -0.3212
19479W        W35553  11.159   3.838   5.100  0.3338 -0.2558  0.3826
19480W        W35554   5.992   7.815  11.932 -0.1438 -0.2226  0.2617
19481W        W35555   1.198   8.656   5.891 -0.0165  0.1426 -0.0295
19482W        W35556  14.332   4.508   1.503 -0.0604 -0.1657  0.2030
19483W        W35557   8.922  12.209   4.510  0.0018 -0.2533 -0.2230
19484W        W35558   8.411   3.152  14.369  0.3091  0.0391 -0.2009
19485W        W35559  17.096   9.480   0.214 -0.2088  0.0596  0.1149
19486W        W35560   1.575   5.009   3.779 -0.0649 -0.2173 -0.3696
19487W        W35561   1.273   2.256  14.945 -0.0127 -0.1929  0.3340
19488W        W35562   9.743   8.084   5.337 -0.4033  0.2403  0.0232
19489W        W35563   4.296   2.266   2.585 -0.1463  0.1738  0.0682
19490W        W35564   1.161   0.187  16.650  0.0043  0.2565 -0.1917
19491W        W35565   7.266   6.622   0.836 -0.2019 -0.0090  0.2016
19492W        W35566   0.663  16.382  15.010 -0.2849 -0.2228  0.0309
19493W        W35567   7.858  17.581  16.758  0.2258 -0.5220 -0.0364
19494W        W35568   9.896  17.834   5.477  0.1048  0.2523 -0.2989
19495W        W35569  15.347  16.816  12.235  0.2275  0.0986  0.1345
19496W        W35570   2.595   0.206   2.819 -0.4086  0.1391  0.2158
19497W        W35571   7.723   4.900   4.294 -0.2079 -0.2727 -0.2674
19498W        W35572   9.312   2.868   1.845 -0.4082  0.1612  0.0264
19499W        W35573  16.579  15.221  14.147 -0.2128  0.1438 -0.1205
19500W        W35574   2.870   8.489   3.904 -0.0639  0.2608  0.1376
19501W        W35575   9.169   7.198  15.935 -0.3118  0.2276  0.1446
19502W        W35576   6.071  14.836   3.371  0.2815  0.1415 -0.0586
19503W        W35577   0.402   9.425  12.228 -0.1534  0.1908 -0.1523
19504W        W35578   8.035   5.648   2.693 -0.0933  0.0439 -0.1226
19505W        W35579   3.634   0.182   1.092 -0.0652 -0.1866 -0.0194
19506W        W35580   2.730   2.253   0.481  0.1521  0.3659  0.1207
19507W        W35581   2.857   2.191   2.371  0.0738  0.2726  0.1238
19508W        W35582  11.524   2.685   1.548  0.1040 -0.1246 -0.0263
19509W        W35583  15.256   0.108  13.683  0.2076 -0.0803 -0.1104
19510W        W35584   5.677  17.109  15.146  0.1445 -0.0006  0.1997
19511W        W35585   0.646   2.779   1.987  0.0775 -0.4412 -0.0292
19512W        W35586  11.962   6.155   1.294  0.0441  0.0875 -0.0597
19513W        W35587   3.049   9.048  16.076  0.0965  0.1674  0.1589
19514W        W35588   6.251   8.868   4.724  0.2646  0.1452  0.2191
19515W        W35589   3.503   0.993   2.059  0.6005 -0.2003 -0.1158
19516W        W35590   2.765   8.250   4.677  0.0123 -0.0856 -0.2758
19517W        W35591  16.300  12.150  14.175  0.0214  0.0585  0.0743
19518W        W35592   1.244  15.236   4.998  0.1490 -0.2914  0.0196
19519W        W35593  16.821   3.740  12.444 -0.0445 -0.0571 -0.3118
19520W        W35594  10.086  13.372   4.980 -0.2096  0.3121  0.1325
19521W        W35595   0.874   4.286   4.460  0.3369 -0.2494  0.2930
19522W        W35596  15.898   3.140  11.841  0.1296 -0.2477  0.2714
19523W        W35597  12.114  13.049   5.587  0.0442 -0.0836 -0.5815
19524W        W35598  13.254  11.370  12.845 -0.1440  0.0433 -0.1739
19525W        W35599  14.848   2.164  16.513  0.0068 -0.4306  0.5203
19526W        W35600   1.045   1.081   4.497 -0.1424 -0.1589  0.2329
19527W        W35601   5.935  11.002  15.971  0.0981  0.0768 -0.3106
19528W        W35602  13.543  16.816  12.481  0.1351 -0.3380 -0.0587
19529W        W35603   8.332  17.501   2.612  0.0165 -0.3057 -0.2593
19530W        W35604   0.784   1.615   2.844  0.1029 -0.2206 -0.0471
19531W        W35605  11.807  15.388   2.325 -0.2061 -0.0869 -0.0390
19532W        W35606   9.593   1.203  14.505 -0.0664 -0.0049 -0.2835
19533W        W35607  16.683  16.059  14.879  0.1206  0.0895  0.1056
19534W        W35608   9.272   2.471  15.712 -0.2551 -0.2370 -0.1181
19535W        W35609  11.871  13.241  15.338 -0.0977 -0.0700 -0.3171
19536W        W35610   5.902  11.271  11.296  0.1397  0.0029  0.1141
19537W        W35611   1.421  17.752   3.895  0.3114  0.2048  0.0588
19538W        W35612  12.989  13.446   2.789 -0.1607 -0.0472  0.0824
19539W        W35613  16.465  13.257  16.794 -0.0773  0.0045 -0.0048
19540W        W35614   1.530   3.570   1.468  0.1738  0.3317  0.0644
19541W        W35615   5.883  13.288  13.065 -0.1063  0.1376  0.0548
19542W        W35616  17.440   2.223   3.270 -0.1792 -0.2149  0.1155
19543W        W35617  13.680  14.771   2.360 -0.1970  0.1859 -0.0738
19544W        W35618   7.114   0.957  13.508 -0.1306 -0.2146 -0.2120
19545W        W35619  16.806  15.603   4.596 -0.1068 -0.0751 -0.0126
19546W        W35620  15.616  15.670   1.190  0.2316 -0.1201  0.0364
19547W        W35621   2.048   6.379   3.291  0.0990  0.0290  0.0859
19548W        W35622  13.765   9.429   2.194 -0.1724 -0.0656  0.0371
19549W        W35623  14.880   0.513   4.450 -0.0208 -0.0064  0.0426
19550W        W35624   3.399   4.468  15.601  0.0368 -0.2079  0.3096
19551W        W35625  17.638   6.354  12.284 -0.1963  0.1070 -0.1040
19552W        W35626  11.653   7.133   4.215  0.1125 -0.2495 -0.2879
19553W        W35627  15.278  11.147  16.327  0.0618  0.1403 -0.0792
19554W        W35628  12.058   7.680   2.930  0.2773  0.3236  0.1841
19555W        W35629   1.319   6.239  12.220  0.1866 -0.3786 -0.0145
19556W        W35630  16.879   5.015   1.954 -0.0207 -0.0262 -0.3725
19557W        W35631   2.014   5.799  14.658 -0.1692  0.2569  0.0123
19558W        W35632   9.782   4.656   4.479 -0.2691 -0.0104  0.1308
19559W        W35633   0.132  12.242  15.576 -0.4446  0.0603  0.0035
19560W        W35634   8.857   4.039   4.353 -0.0480 -0.0540  0.0174
19561W        W35635   3.967  15.548   0.958  0.0735  0.0654 -0.1878
19562W        W35636  17.382   3.525   1.023 -0.3397  0.1363 -0.0991
19563W        W35637   1.405   2.508   2.674  0.1646  0.2398 -0.3944
19564W        W35638   0.808   4.216   4.970 -0.0745 -0.1978  0.0961
19565W        W35639   2.006  15.317  11.425  0.0500  0.0786 -0.0149
19566W        W35640   4.993   5.241  12.618 -0.0223  0.1780 -0.0922
19567W        W35641   9.320  15.689   6.629  0.1011  0.0563  0.1188
19568W        W35642   8.959   0.800   3.556  0.0792  0.0870  0.0370
19569W        W35643   3.437  10.604  12.634 -0.2490  0.3604 -0.1741
19570W        W35644   5.478  12.493  12.025 -0.3112  0.1770  0.2499
19571W        W35645   7.277   8.880   2.057  0.1872 -0.0295  0.0221
19572W        W35646   3.686   1.353   2.432  0.0183  0.0643 -0.0489
19573W        W35647  12.508   4.166  13.302 -0.2265 -0.3485 -0.0380
19574W        W35648   2.934   5.498   1.431 -0.0647  0.0153 -0.2939
19575W        W35649  17.005   6.225   5.580  0.1746  0.1154 -0.0760
19576W        W35650  11.697  13.050  16.763 -0.2396  0.0023  0.1774
19577W        W35651   8.116  17.516   1.238 -0.0207  0.1209 -0.2571
19578W        W35652   1.644  14.431  14.225  0.0240 -0.0603  0.0737
19579W        W35653  12.768  15.185   0.485 -0.1271  0.1961 -0.2394
19580W        W35654   8.903  17.692   0.184  0.0533 -0.0568 -0.0902
19581W        W35655   5.013   8.693   2.245  0.3611 -0.0410  0.3643
19582W        W35656   8.931   8.129  15.770  0.0313 -0.0869 -0.1508
19583W        W35657  16.504  14.488  12.402  0.0931 -0.1700  0.1460
19584W        W35658   3.262   8.323   5.881  0.2987  0.0267 -0.1988
19585W        W35659   0.154   3.029  11.953 -0.0518 -0.2883  0.0539
19586W        W35660   8.949   9.870  13.632 -0.1864 -0.1957 -0.0617
19587W        W35661   5.554  13.888   1.522  0.0115  0.3045  0.1536
19588W        W35662  16.626  17.687   4.882  0.0058 -0.1807 -0.0113
19589W        W35663  10.514   3.715  11.649  0.0758  0.2344 -0.0150
19590W        W35664   0.038   7.220   4.233  0.0309 -0.0666  0.1777
19591W        W35665   8.312  17.518   3.947 -0.0883  0.0182 -0.2253
19592W        W35666  11.198   0.016   1.192 -0.2784 -0.0234 -0.1731
19593W        W35667  10.623   8.234  15.918  0.1806  0.2660  0.1348
19594W        W35668  12.298   7.280  16.347 -0.0845  0.2516 -0.2476
19595W        W35669   4.006   3.124   0.745 -0.0402 -0.0872  0.0904
19596W        W35670   4.437  17.577   0.701 -0.1266  0.1041  0.2417
19597W        W35671   0.230  10.165  11.702 -0.0153  0.1601  0.1108
19598W        W35672  13.593  10.278   3.522  0.0806 -0.2957 -0.1120
19599W        W35673   1.546  13.771  11.554  0.1452  0.2255  0.2612
19600W        W35674   3.053   1.489   6.097  0.2604 -0.0941 -0.0613
19601W        W35675   9.524  13.394  15.942  0.3669 -0.0202  0.0908
19602W        W35676   7.528   0.920  12.366 -0.0536  0.0768 -0.1826
19603W        W35677   4.186  12.147   2.638  0.0514  0.0100 -0.0128
19604W        W35678   8.398  11.967   3.440  0.3613  0.1765 -0.1678
19605W        W35679   2.507   8.471  15.982 -0.0752 -0.1633 -0.0121
19606W        W35680   8.966  14.549  11.431  0.1369 -0.0244 -0.0088
19607W        W35681   1.956  16.033   4.605  0.2242  0.3113  0.0953
19608W        W35682   1.986  11.155  12.049 -0.0481  0.3808  0.2029
19609W        W35683   7.094  10.052  16.890  0.1030  0.0178 -0.1470
19610W        W35684  12.013   0.612  12.114 -0.0445  0.0043  0.1209
19611W        W35685   6.619  15.685   1.552 -0.1027 -0.1977 -0.2912
19612W        W35686   2.480  10.835  13.675  0.1487 -0.3034 -0.2341
19613W        W35687   6.235  15.910   0.315  0.1888 -0.0713 -0.3127
19614W        W35688  16.002   9.658   3.724 -0.0945 -0.0627 -0.2572
19615W        W35689   2.942  10.598  12.486 -0.0444  0.0251  0.1452
19616W        W35690   5.619  17.208   1.175  0.0286  0.1864 -0.1984
19617W        W35691   0.051   7.803  15.569  0.2669 -0.2980  0.0688
19618W        W35692  11.327  14.219  15.989  0.1404 -0.0811 -0.1799
19619W        W35693  12.277   5.288   5.388  0.5283  0.1636 -0.1854
19620W        W35694   8.735   5.394   0.166  0.2428 -0.1658  0.1933
19621W        W35695   3.571   2.959   0.893 -0.0357 -0.0587  0.0125
19622W        W35696   8.780  15.749   1.481 -0.0386  0.1619  0.1233
19623W        W35697   2.413   4.098  12.017  0.2781  0.1145 -0.2161
19624W        W35698   6.076   2.027   3.814 -0.0752  0.0411  0.1374
19625W        W35699  14.327   4.654   2.263 -0.0158  0.2800 -0.2091
19626W        W35700   7.438   8.227   5.111  0.0026  0.1372  0.1703
19627W        W35701   9.682  12.232   3.628  0.1120 -0.2629  0.2447
19628W        W35702   3.010   3.686   5.138 -0.1170  0.0376 -0.0645
19629W        W35703   4.949   2.704   1.330  0.0485 -0.2293  0.1866
19630W        W35704  15.804   0.507   5.140 -0.2409 -0.0105  0.0850
19631W        W35705   8.018   9.374  16.828 -0.0922  0.2190 -0.3901
19632W        W35706  12.831  10.671   0.663  0.0177  0.2350 -0.1623
19633W        W35707  15.398   3.386   2.658  0.1744  0.1780 -0.1051
19634W        W35708  16.034  10.329  15.768 -0.0439  0.3955 -0.0066
19635W        W35709  14.157   2.423  12.283 -0.1840  0.2208  0.0078
19636W        W35710  15.742  16.053   0.321  0.0306  0.2707 -0.3403
19637W        W35711  12.014  17.611   6.314 -0.0439 -0.4448 -0.0647
19638W        W35712   8.002   1.610   3.879  0.0402  0.0239  0.1406
19639W        W35713   2.846   6.548   4.964 -0.4638 -0.0224  0.0852
19640W        W35714  14.728   0.741   3.489 -0.0756  0.1303  0.0207
19641W        W35715  17.585   1.399   0.301 -0.1342  0.0403  0.0096
19642W        W35716  11.215  12.093  16.731 -0.2148  0.3579  0.1426
19643W        W35717  16.267  16.806   4.994  0.1176 -0.1321  0.1148
19644W        W35718  15.478  13.516  12.273 -0.2173  0.1027 -0.1765
19645W        W35719  14.758  15.522  12.763 -0.0751 -0.0542  0.1131
19646W        W35720  10.560   1.635  13.586  0.2650  0.2727  0.1912
19647W        W35721   7.526   8.219  14.062 -0.0262 -0.1718 -0.0717
19648W        W35722  10.284  15.685   4.594  0.0666 -0.0448 -0.0629
19649W        W35723   8.254   6.922   3.229  0.2507  0.0995 -0.1658
19650W        W35724  10.645   6.117   6.382 -0.2090  0.1231 -0.2708
19651W        W35725   4.412   4.138   1.633  0.1349  0.2399  0.0678
19652W        W35726   4.599  10.161  12.252 -0.1697 -0.1776 -0.3713
19653W        W35727  13.552   6.578   3.025 -0.3698  0.0984  0.1573
19654W        W35728  17.038  11.974  16.773  0.1367 -0.2171 -0.0507
19655W        W35729   5.280   8.970   4.704 -0.0738 -0.2293  0.1959
19656W        W35730   4.447   5.095   4.200  0.0161  0.0182  0.0379
19657W        W35731  12.915   8.153   3.762 -0.0802  0.3132 -0.2271
19658W        W35732  14.549  14.403   5.497  0.1041  0.1150 -0.3037
19659W        W35733  12.138  12.588   1.447 -0.0720  0.2352 -0.0010
19660W        W35734   3.148   2.647  14.081  0.0613 -0.4206 -0.0369
19661W        W35735  15.228  16.069   0.162 -0.1727  0.3652  0.0231
19662W        W35736   3.154  16.431   5.623 -0.2005  0.0760  0.1159
19663W        W35737  15.589   4.292   5.949 -0.2427 -0.0227  0.1575
19664W        W35738  17.292  16.466   6.143  0.2123  0.0021 -0.0246
19665W        W35739  14.458   0.807   1.823 -0.0649  0.1833  0.1271
19666W        W35740  14.034  14.716   3.641  0.1542  0.0194 -0.1336
19667W        W35741   0.876   8.692  13.799 -0.0451 -0.5739  0.3981
19668W        W35742   7.639   6.054  15.978  0.1657  0.2369  0.2233
19669W        W35743   9.163   0.353   5.562  0.0620  0.0859 -0.0215
19670W        W35744   1.804   0.690  12.787  0.2562  0.2837 -0.3249
19671W        W35745   4.281   5.787   5.013 -0.2329  0.1323 -0.1809
19672W        W35746   9.517   6.683   4.496  0.0140 -0.1886  0.3257
19673W        W35747  11.060   0.191   4.803 -0.3655  0.2214 -0.2177
19674W        W35748  15.854   0.547   4.249 -0.1398  0.2050  0.0606
19675W        W35749  15.280  12.994  15.038 -0.0871  0.0901  0.3654
19676W        W35750  15.582  11.799   5.185  0.2542  0.1148 -0.0426
19677W        W35751  17.723   3.841   4.499 -0.0835  0.0938 -0.0875
19678W        W35752  14.059   9.434  13.638  0.2610 -0.1538 -0.1577
19679W        W35753   9.385  15.502  14.110  0.0383  0.0741  0.1700
19680W        W35754   5.020   3.543  13.800 -0.0066  0.0487  0.0588
19681W        W35755   2.820   0.736   2.360 -0.2931  0.0425  0.0835
19682W        W35756  10.491   5.198  14.903 -0.1098 -0.0222  0.0835
19683W        W35757   9.295  13.837   1.922 -0.0224 -0.1220 -0.0004
19684W        W35758   4.094   6.110  11.593 -0.2412 -0.2452  0.1305
19685W        W35759   4.018   6.771  12.354  0.0941  0.1745  0.1737
19686W        W35760  13.981   4.826  16.961 -0.3015 -0.1805  0.0749
19687W        W35761   2.817   6.688   3.824  0.4346  0.0701 -0.3254
19688W        W35762  16.258   9.264  15.830 -0.2500 -0.2189 -0.0505
19689W        W35763  16.453  12.006  16.555  0.0134 -0.0870 -0.1641
19690W        W35764   6.892   0.844   4.496  0.1167 -0.4560 -0.3248
19691W        W35765   3.633  15.150   4.474 -0.0515 -0.2101 -0.4407
19692W        W35766   8.090  12.974   2.668  0.2510  0.1260 -0.0212
19693W        W35767   9.289   8.057  16.129  0.1979 -0.0945 -0.1707
19694W        W35768   3.012  10.384  13.814  0.0652 -0.0997  0.0219
19695W        W35769   0.525  17.559   1.739  0.1574 -0.1006  0.2691
19696W        W35770  12.746  15.935  16.500 -0.0856  0.1270  0.0778
19697W        W35771  17.828   8.699   1.893 -0.0043  0.2041 -0.2647
19698W        W35772   3.619  13.079  11.766  0.4511 -0.3137 -0.2215
19699W        W35773   7.252   4.796   3.613 -0.0850 -0.3947 -0.0574
19700W        W35774  13.723  14.043   4.767  0.0808 -0.0756  0.0423
19701W        W35775  14.905   3.944   1.678 -0.2129 -0.0864  0.2232
19702W        W35776  12.911  15.509  13.710 -0.1798  0.1815  0.1237
19703W        W35777   4.033   1.881  12.585 -0.0152 -0.0586 -0.2711
19704W        W35778  15.655  10.077   3.930 -0.2034  0.3361 -0.0106
19705W        W35779   9.325   0.336  14.574  0.1297  0.2648 -0.1664
19706W        W35780   9.462  11.373   4.150  0.0353  0.1500 -0.0379
19707W        W35781   0.259  14.440   3.906  0.2647 -0.0459  0.2715
19708W        W35782   6.993   3.150  12.840 -0.0561 -0.3974 -0.0021
19709W        W35783  13.601   5.106  16.420 -0.2592 -0.1857 -0.0692
19710W        W35784  13.969   5.933   2.721 -0.1861  0.4460 -0.0813
19711W        W35785   8.587  17.064   2.451 -0.1165 -0.1497 -0.1643
19712W        W35786   8.059   1.450   2.831 -0.0901  0.2525  0.1030
19713W        W35787  13.131   9.283  13.407  0.2991  0.0483  0.1416
19714W        W35788  12.590   0.134   1.601  0.0404 -0.0779 -0.2079
19715W        W35789  11.508   5.648  15.349 -0.0032  0.0041  0.1560
19716W        W35790  13.613  11.851  12.047 -0.2512  0.2903 -0.0556
19717W        W35791  14.059   9.318   4.104 -0.0602  0.0761  0.1697
19718W        W35792   4.991  16.607   0.024  0.2139 -0.3010  0.0892
19719W        W35793  12.668   6.594   1.406 -0.0242 -0.0081  0.1248
19720W        W35794  10.271   9.373  15.312 -0.0517 -0.1187  0.1618
19721W        W35795   2.057   5.135   0.542 -0.0438  0.0639  0.1445
19722W        W35796   1.794   8.566  16.884  0.0302 -0.1464  0.0880
19723W        W35797  15.317   8.403  13.728  0.0669  0.1726  0.1374
19724W        W35798  16.458  14.108  16.035  0.3406 -0.3551 -0.1182
19725W        W35799  15.198   7.870  13.674  0.0571  0.1734  0.1857
19726W        W35800   3.750   0.622  14.481 -0.0528 -0.0119  0.1075
19727W        W35801   8.137   7.195   4.240 -0.0670  0.0774  0.0478
19728W        W35802  13.046   9.068   2.608  0.3960  0.0555 -0.3820
19729W        W35803  15.360  16.040   1.409  0.0207 -0.0830 -0.2919
19730W        W35804  16.278   8.536  15.805 -0.0843  0.0255  0.1784
19731W        W35805   1.047   8.726   3.730 -0.3878 -0.2283 -0.0847
19732W        W35806  14.832  12.466   1.135  0.0821  0.0388  0.0643
19733W        W35807  14.087   4.229  14.334  0.1140 -0.2068 -0.0125
19734W        W35808   4.015  16.772   3.383  0.0236  0.1002  0.0205
19735W        W35809   9.027  11.934  12.004  0.1466  0.0465  0.0673
19736W        W35810   0.790   5.882  13.170 -0.1477  0.1819 -0.0398
19737W        W35811   8.130  16.023  13.724 -0.0057  0.0448  0.1116
19738W        W35812   3.083  13.417  15.615 -0.0631 -0.3588  0.2495
19739W        W35813  12.650   5.975  12.230  0.0336  0.1723 -0.0051
19740W        W35814  17.564  13.530  14.679  0.0838 -0.0102  0.0585
19741W        W35815   4.234   8.607   3.725 -0.0075 -0.2617  0.0228
19742W        W35816   2.417   5.523  12.406 -0.2825  0.1097  0.1372
19743W        W35817   8.939   6.729   1.782 -0.1239  0.0384  0.1029
19744W        W35818  15.766   7.204  13.151 -0.0905 -0.1422  0.0386
19745W        W35819   2.386   3.058   1.473  0.2011 -0.0580  0.0150
19746W        W35820  16.915   5.703   3.259 -0.2131 -0.2019 -0.4737
19747W        W35821  16.478   9.153   0.032 -0.4446  0.0417 -0.1202
19748W        W35822   7.920   7.275  15.035  0.0055  0.1589 -0.0013
19749W        W35823   0.856   2.993   0.461 -0.4000 -0.1052  0.0114
19750W        W35824   3.991   6.579  13.094 -0.1811 -0.1986 -0.4275
19751W        W35825   8.895   2.116  15.700  0.0998 -0.3439 -0.0430
19752W        W35826   0.456  14.322  12.671 -0.2848  0.1880 -0.2567
19753W        W35827   0.921  17.416   0.356 -0.1786 -0.1756  0.2339
19754W        W35828  15.895  10.593   5.067  0.2311  0.1941 -0.1852
19755W        W35829   5.132   5.835   3.911  0.1024  0.0443 -0.2839
19756W        W35830   3.419   2.689  12.289 -0.4059  0.0824 -0.3482
19757W        W35831   6.328  12.899  14.390  0.3020 -0.0269  0.2360
19758W        W35832   7.940  13.396   5.137 -0.1707 -0.2117 -0.1026
19759W        W35833   7.970   8.100   0.759  0.1535 -0.1850 -0.2999
19760W        W35834  17.016   1.003   1.939  0.0593 -0.3178 -0.0706
19761W        W35835   9.702   0.881  15.989  0.1965 -0.1942  0.1130
19762W        W35836  10.751  17.428   4.100 -0.1898  0.1147  0.2683
19763W        W35837  10.323  10.993   0.660 -0.0615 -0.2601  0.0582
19764W        W35838   7.227  11.994   2.251 -0.0949 -0.1379 -0.0885
19765W        W35839   6.941   7.985   3.695 -0.1722 -0.2609 -0.1847
19766W        W35840  13.953  10.392   4.813 -0.0756  0.1473  0.4292
19767W        W35841   8.381   1.981   2.445  0.1947 -0.0373 -0.1094
19768W        W35842   5.019  16.813   2.230  0.0215  0.2144  0.2061
19769W        W35843  15.203   5.294  15.430 -0.0301 -0.0756  0.2208
19770W        W35844   1.563   7.880   4.514  0.1269 -0.2204 -0.0816
19771W        W35845   2.967   7.483   2.026 -0.1993  0.3194 -0.0810
19772W        W35846  16.638   0.999   3.198  0.0250  0.0085 -0.1797
19773W        W35847  13.788   9.447   5.268  0.0646 -0.2848  0.0993
19774W        W35848  11.593   0.054   1.892  0.1150  0.0244  0.0515
19775W        W35849   5.546   7.034  16.181 -0.1539 -0.0810  0.1338
19776W        W35850   7.086   4.263  11.416 -0.0277 -0.1891  0.0366
19777W        W35851  10.008  11.398   1.613 -0.0187  0.1940  0.0007
19778W        W35852  16.053  14.924   2.959 -0.1683 -0.0206  0.0327
19779W        W35853  15.691  15.423  16.048 -0.4988 -0.1482 -0.3024
19780W        W35854  11.150  12.580  16.791  0.2760 -0.1347  0.2273
19781W        W35855   0.769  10.035  13.513  0.2730  0.0466  0.0601
19782W        W35856   6.851  16.523  15.478 -0.1605 -0.1421  0.1092
19783W        W35857  17.753  16.004  12.773  0.0427  0.0123  0.1894
19784W        W35858   3.863  16.756   0.002  0.2348  0.4487 -0.1444
19785W        W35859   7.395  15.278  13.154  0.2478 -0.2035  0.1138
19786W        W35860  13.159  11.861  13.542  0.1086  0.0274  0.0852
19787W        W35861  11.787   4.033   5.190  0.0933  0.0131 -0.0703
19788W        W35862  15.766  12.529   2.751  0.0596  0.2590 -0.1051
19789W        W35863   2.140   4.798  12.000 -0.1161 -0.0672 -0.1877
19790W        W35864   2.562  10.367   0.384  0.1211 -0.1118  0.4093
19791W        W35865   6.045   5.885   2.361  0.0097  0.1762  0.0607
19792W        W35866  11.601  13.864   3.292  0.1348 -0.2254  0.0852
19793W        W35867  15.071  12.404   6.461 -0.1058  0.1271  0.0762
19794W        W35868   8.493  11.783   3.994  0.0700 -0.1120 -0.1111
19795W        W35869   6.292   3.809   6.284 -0.0572 -0.0175 -0.1962
19796W        W35870   8.825   3.353   3.601 -0.1486 -0.3601 -0.2694
19797W        W35871  17.500   2.822   6.547  0.0453  0.0360  0.1936
19798W        W35872   7.942  17.778  16.032  0.0091 -0.1111 -0.2282
19799W        W35873   5.648   4.516   0.950 -0.0642 -0.2402  0.0286
19800W        W35874   3.722  17.539  12.311 -0.0083  0.1836 -0.2499
19801W        W35875   6.468   8.854   3.782 -0.1720  0.1129 -0.0009
19802W        W35876   2.285   6.456  16.287  0.1286 -0.1095  0.0054
19803W        W35877  13.557  13.542   0.294 -0.1407 -0.2233  0.0390
19804W        W35878   5.420  12.874  10.731 -0.0829  0.1437 -0.0182
19805W        W35879   3.490   3.967   5.374 -0.0159 -0.0672 -0.1417
19806W        W35880  12.323  15.631  16.597  0.3545 -0.4395  0.0495
19807W        W35881   5.907  12.830   3.342  0.4280  0.0604 -0.0092
19808W        W35882  17.747   7.736  12.772 -0.1640  0.1116  0.3224
19809W        W35883   1.250  13.587  15.095 -0.1327  0.2797 -0.2273
19810W        W35884   9.048  13.141  13.565  0.3898  0.1207 -0.1976
19811W        W35885  14.845  17.158  12.669 -0.1557  0.1429  0.0894
19812W        W35886  14.061   7.798   3.421  0.1423 -0.2144 -0.1582
19813W        W35887   7.270  10.460   1.964  0.0325  0.2283 -0.0581
19814W        W35888   2.697   0.951   4.553  0.1861  0.0773  0.0418
19815W        W35889  15.306   2.336   5.877 -0.5814 -0.0151  0.2039
19816W        W35890  14.840  14.810   1.724  0.2323  0.4293 -0.2371
19817W        W35891   2.225  13.640  13.696 -0.1866  0.2046  0.1294
19818W        W35892  15.112  17.612  12.059  0.1182 -0.4096  0.1231
19819W        W35893   5.787  17.092  15.636  0.2772  0.2114  0.0858
19820W        W35894   1.986   3.693   0.731  0.3682  0.2254 -0.3620
19821W        W35895  10.752   9.916   2.636  0.2263  0.2462  0.0496
19822W        W35896  10.228   2.730  16.770 -0.2399  0.1035  0.1827
19823W        W35897  14.184   7.858   5.119 -0.1313  0.0486  0.0576
19824W        W35898  14.340  12.194   5.634 -0.0301  0.2545  0.0415
19825W        W35899  15.277   8.419   4.932  0.1773 -0.4885 -0.1005
19826W        W35900   1.637  13.078   3.934 -0.2339  0.1479 -0.0519
19827W        W35901  16.755   5.871  16.039 -0.2971  0.1202 -0.1112
19828W        W35902   2.052   9.966   2.892  0.1133 -0.1208 -0.1994
19829W        W35903   9.221   2.759  13.782 -0.1094  0.0120 -0.1487
19830W        W35904  16.578  11.161   1.092 -0.2633  0.1241 -0.1944
19831W        W35905  16.394   0.114  12.867 -0.1149 -0.2195 -0.1432
19832W        W35906  15.092   1.714  16.537 -0.0417 -0.0505 -0.0992
19833W        W35907  15.325  15.463  14.955 -0.0872 -0.0200 -0.0830
19834W        W35908  14.019  16.689  14.161 -0.2632 -0.1111 -0.0044
19835W        W35909  17.139   5.327   0.073  0.3421  0.5550  0.5007
19836W        W35910   2.271   5.222  12.810 -0.0098  0.0001  0.2213
19837W        W35911  15.248   9.872   1.086  0.0245 -0.0553  0.0572
19838W        W35912  15.682  17.693  15.709  0.2685 -0.1839  0.0560
19839W        W35913   6.946   6.678   5.594 -0.1470  0.0894  0.0376
19840W        W35914   9.852  12.863  13.938  0.0409  0.2176  0.1379
19841W        W35915   3.449  14.933   1.704 -0.1882 -0.0341  0.1324
19842W        W35916  14.140   5.393  13.625 -0.0935  0.1539 -0.0079
19843W        W35917  12.661   6.145  11.711  0.3523 -0.0523  0.1256
19844W        W35918  15.051   9.994  15.580 -0.1242  0.1485 -0.1070
19845W        W35919  14.122  13.491  12.860  0.0245 -0.0048  0.1071
19846W        W35920  15.523  14.195  15.185 -0.5208 -0.1538 -0.0583
19847W        W35921  11.089  10.289   3.627 -0.0796  0.1361 -0.2067
19848W        W35922  13.967   2.168  15.264 -0.3053  0.2064  0.4274
19849W        W35923  10.720  15.344  13.905  0.1276  0.2936 -0.1718
19850W        W35924  15.987  12.856   1.874  0.0693  0.2454 -0.0230
19851W        W35925  12.959   5.541   2.204  0.2781  0.0168  0.2931
19852W        W35926  15.454   3.073   0.412 -0.2409 -0.2737  0.1615
19853W        W35927   7.928   8.290   5.030 -0.0224 -0.1393  0.1935
19854W        W35928  13.967   4.707  15.800  0.1501 -0.0620  0.1146
19855W        W35929   7.395   0.237   5.305 -0.0438  0.0347  0.1649
19856W        W35930  13.139   7.464  16.318 -0.2984  0.3822  0.0443
19857W        W35931  13.507  12.768   3.015 -0.1357 -0.1540 -0.0708
19858W        W35932  16.730   8.736   0.245  0.0853  0.2624  0.1575
19859W        W35933   9.692  13.076   2.813 -0.0454 -0.2847  0.1921
19860W        W35934  12.220  14.332  13.696  0.1062  0.0314  0.0141
19861W        W35935  14.473  14.663   2.678  0.0744  0.2936  0.2154
19862W        W35936   1.718   7.786   2.248 -0.2317 -0.0688  0.3630
19863W        W35937   0.599   6.211   5.885 -0.2010  0.0507  0.3750
19864W        W35938  12.362   3.225  12.985  0.0176 -0.1551 -0.1096
19865W        W35939   1.596   6.160   1.327 -0.0218 -0.0596  0.0999
19866W        W35940  10.699  10.905   1.933  0.2050  0.1075 -0.1520
19867W        W35941   4.678   2.732   5.601 -0.0786 -0.0037  0.0034
19868W        W35942  13.839   6.139  15.224 -0.0673  0.1528 -0.2045
19869W        W35943   8.291  14.782   1.161  0.1784 -0.2598  0.2455
19870W        W35944  13.457  11.272   0.566 -0.1889  0.0794 -0.1034
19871W        W35945   7.377   8.042   4.054  0.3452  0.0330  0.0999
19872W        W35946   4.403   0.286  12.237  0.0496 -0.1769  0.3309
19873W        W35947  17.033   9.969   0.386 -0.1652  0.1830 -0.0140
19874W        W35948  15.209  14.812  11.680 -0.1272 -0.1689  0.1698
19875W        W35949  16.047  12.928   2.448  0.3257 -0.2249  0.1631
19876W        W35950  10.242  14.676   4.056 -0.1397 -0.2206  0.1614
19877W        W35951  13.867   1.052  14.520 -0.1122 -0.1878 -0.1504
19878W        W35952   0.839   0.109   5.961 -0.1513  0.3517 -0.0652
19879W        W35953   6.646   6.991   1.174  0.1766  0.3850 -0.0474
19880W        W35954   7.921  13.657   0.832 -0.2092  0.1254 -0.1348
19881W        W35955   2.832   3.090   2.263 -0.0521  0.0565  0.0209
19882W        W35956   3.864   9.378  16.359 -0.1036  0.1332  0.0321
19883W        W35957   3.842   5.200   1.222  0.1651 -0.0942 -0.0504
19884W        W35958   4.471  10.754   2.040 -0.2098 -0.1550  0.1062
19885W        W35959   5.661   5.319  12.008 -0.0755  0.3048  0.1849
19886W        W35960  10.841   2.567   2.328  0.1538  0.0203  0.2572
19887W        W35961   2.850   6.624  13.964 -0.1831  0.3473  0.1450
19888W        W35962   9.667   7.279  16.026  0.0799 -0.1963 -0.1384
19889W        W35963  10.440  12.876   0.376 -0.0548  0.2114  0.0340
19890W        W35964   2.079   2.174  15.448  0.2496  0.2108 -0.1712
19891W        W35965   7.465  17.708   3.113  0.1687  0.0245  0.0937
19892W        W35966   6.177  15.409   0.411  0.1994 -0.1438  0.0320
19893W        W35967   6.500  13.698  16.377 -0.2084 -0.2152  0.1438
19894W        W35968  11.590  17.443  16.139  0.1075 -0.1526  0.2310
19895W        W35969   3.438  12.793   3.957  0.1195  0.1043  0.0012
19896W        W35970  14.491   9.614   5.357 -0.1364 -0.0798 -0.1767
19897W        W35971   9.779   3.559  12.462 -0.2926 -0.0905  0.1223
19898W        W35972   4.676   0.863   4.508 -0.0970  0.1649 -0.1767
19899W        W35973  10.598  10.478  14.827  0.0000 -0.0991 -0.0459
19900W        W35974  17.086   8.952   1.489  0.0410 -0.3208  0.0102
19901W        W35975  16.400   5.425   4.400  0.1729 -0.0168 -0.0565
19902W        W35976   6.645  17.198  14.978  0.1493  0.2196  0.4583
19903W        W35977   6.130   6.508  15.630  0.0058  0.0030  0.0533
19904W        W35978  17.338  13.456  12.348  0.2558  0.4058  0.3161
19905W        W35979  10.547  11.611  13.602  0.1630  0.3676  0.0482
19906W        W35980   0.979   8.421   1.538  0.1322 -0.2927 -0.0816
19907W        W35981  17.091   1.006   0.187  0.1877  0.1308 -0.0607
19908W        W35982   1.236   8.593   2.107 -0.0752 -0.0200  0.0004
19909W        W35983   5.425  16.959  14.156 -0.1498 -0.0034 -0.0157
19910W        W35984   1.710   5.457  14.452  0.0232 -0.4640 -0.2393
19911W        W35985   1.142  16.210   3.286  0.0475 -0.0019 -0.2315
19912W        W35986   3.529   5.578  15.639 -0.0896 -0.0505  0.0688
19913W        W35987  10.045  16.456  11.582  0.1025  0.0456 -0.1441
19914W        W35988  15.778   9.318   0.509  0.2066 -0.0106 -0.1449
19915W        W35989  12.439   5.892   5.756  0.2403 -0.0440  0.2977
19916W        W35990   4.919  10.044  15.672  0.2430 -0.2729  0.2257
19917W        W35991   1.438   2.553   4.404  0.0734 -0.1494 -0.1909
19918W        W35992   1.526   8.957  12.715 -0.0211 -0.0127  0.1970
19919W        W35993   1.482   0.623  14.534 -0.1477  0.0279 -0.0153
19920W        W35994   6.225  10.846   4.075 -0.0738 -0.0060 -0.1109
19921W        W35995  12.469   3.719  15.675 -0.0157  0.1050  0.2340
19922W        W35996   0.940   7.183   2.874 -0.2891 -0.0131  0.0911
19923W        W35997   4.049  12.849   4.902 -0.0610  0.1279 -0.0627
19924W        W35998   2.685   2.694   0.327 -0.2315 -0.0380  0.0031
19925W        W35999  15.388   3.247  13.545 -0.0364  0.1704 -0.0462
19926W        W36000  11.493  17.508   1.588  0.1445 -0.2519  0.0311
19927W        W36001  12.632   6.792   4.653 -0.3180  0.0769 -0.0894
19928W        W36002   6.374   4.579   1.161  0.0643  0.3105  0.1926
19929W        W36003   5.829  11.186  13.235 -0.2130 -0.0244 -0.0366
19930W        W36004   7.609  14.513   4.185  0.0415 -0.0529  0.0941
19931W        W36005   4.772   4.520   4.928 -0.1814 -0.0710 -0.4523
19932W        W36006  17.415  14.404   0.508 -0.1213 -0.0778 -0.0963
19933W        W36007  11.322  12.546   2.932 -0.2246 -0.3335  0.4176
19934W        W36008   6.335   7.351  11.741  0.1553  0.1014 -0.0668
19935W        W36009  16.147   7.466   5.560  0.1753 -0.0739  0.2790
19936W        W36010   8.396   8.531   0.628  0.0364 -0.0179 -0.2574
19937W        W36011  15.271   2.346   0.698  0.0315 -0.0955  0.0170
19938W        W36012  13.076   3.873  16.789  0.0004  0.3760 -0.2666
19939W        W36013  15.933  17.668  16.624 -0.1590  0.3308 -0.1474
19940W        W36014   9.415   8.479  12.659 -0.1227  0.2943  0.0411
19941W        W36015   5.068  11.460  15.854  0.0834  0.1709  0.0601
19942W        W36016   5.775   0.699  16.182  0.0166  0.1707  0.2314
19943W        W36017   5.348  16.237   2.185  0.1481  0.0148  0.0142
19944W        W36018  12.133   0.100  13.423  0.3526 -0.3554 -0.2219
19945W        W36019  17.218   4.228  13.203 -0.0004 -0.0384  0.2016
19946W        W36020   8.741   9.458  16.252 -0.0126 -0.1673 -0.0298
19947W        W36021   5.978   5.468  13.764  0.0924  0.2836 -0.1065
19948W        W36022   1.527   9.000  12.210  0.0981  0.2158  0.1484
19949W        W36023  12.857   0.336   3.479  0.0625  0.0512  0.0734
19950W        W36024  13.399  16.593   1.216  0.0343  0.2754  0.0132
19951W        W36025   8.201   5.141   5.635 -0.1872  0.1085  0.0549
19952W        W36026   9.739  13.428   3.209  0.2329 -0.0489 -0.1595
19953W        W36027  16.458  11.652   5.424 -0.2481 -0.2613  0.1661
19954W        W36028  13.480  15.633  15.920  0.2819  0.0234 -0.0696
19955W        W36029  12.547   1.163  12.627 -0.0102  0.0898  0.2639
19956W        W36030   1.706  17.440   3.031 -0.0913  0.1510 -0.1928
19957W        W36031  14.814   8.771   5.747 -0.2932  0.1283  0.1763
19958W        W36032   0.913  14.881   0.162 -0.2910 -0.1732  0.0119
19959W        W36033   4.188  10.836  12.717  0.0219  0.0997 -0.1390
19960W        W36034  15.249   0.413  16.763  0.1103  0.1007 -0.1497
19961W        W36035   2.830  16.864  12.802 -0.0974  0.0185 -0.0361
19962W        W36036  10.798  15.015   3.340 -0.0872 -0.2440  0.1059
19963W        W36037  12.843  11.062   6.240  0.0641 -0.0001 -0.1181
19964W        W36038   3.282  12.660  15.680 -0.0745 -0.0574  0.0080
19965W        W36039  14.779  12.037   3.752  0.0440 -0.1522  0.1047
19966W        W36040  13.656  13.922   5.592  0.2863 -0.2603 -0.0385
19967W        W36041   5.055   4.734   1.613 -0.1431  0.1906  0.0807
19968W        W36042   4.337   9.772  16.154  0.2207  0.3417  0.0924
19969W        W36043  15.948   3.937   4.084 -0.0671  0.1453  0.4038
19970W        W36044  14.857   2.743   3.966 -0.0340  0.1082 -0.1713
19971W        W36045  11.465   4.923   2.807 -0.0113 -0.1063 -0.1339
19972W        W36046   2.855  11.201  13.848 -0.1511 -0.1494 -0.1946
19973W        W36047  17.273  11.530   3.604 -0.2782  0.1740  0.0325
19974W        W36048  15.584   9.043   3.139 -0.0655  0.0509 -0.1371
19975W        W36049  11.141   2.368  13.742  0.2655 -0.0582  0.0704
19976W        W36050  16.063  10.532  13.503 -0.2691 -0.1731 -0.4934
19977W        W36051   7.120   8.446  12.254 -0.6430  0.0294 -0.2558
19978W        W36052  13.300  17.470  16.064 -0.2798  0.0391 -0.1388
19979W        W36053   6.569  16.771   2.273 -0.2453 -0.2908 -0.0049
19980W        W36054  17.294  14.158  15.859 -0.3278  0.0288  0.1683
19981W        W36055   2.934  13.927  11.792 -0.0352 -0.1327 -0.2089
19982W        W36056  13.021   4.583  13.557 -0.1583  0.0197  0.2194
19983W        W36057   4.586   9.678   5.177 -0.0340 -0.3313  0.1285
19984W        W36058  12.327   3.254  12.366 -0.1613 -0.1214 -0.0234
19985W        W36059  12.342   0.373  15.288 -0.2704  0.1675 -0.3245
19986W        W36060  15.390   1.653   0.026 -0.1436  0.2849 -0.1249
19987W        W36061   3.059  15.424   2.417 -0.0559 -0.2265  0.1467
19988W        W36062  14.729  10.716   3.394  0.5015 -0.0777 -0.0237
19989W        W36063  15.690   8.098   1.190 -0.0880 -0.1175  0.0782
19990W        W36064   0.982   7.360  12.264 -0.3702  0.2761  0.1152
19991W        W36065  17.264   3.990   4.829 -0.1705 -0.0630 -0.5122
19992W        W36066   5.573   3.834  12.413 -0.4153  0.0921  0.0745
19993W        W36067  16.424  14.629   2.782  0.0754 -0.2593  0.0437
19994W        W36068  11.663   6.186   4.639  0.0788  0.0308  0.1345
19995W        W36069   6.322  13.734   3.114  0.0105  0.5694 -0.1234
19996W        W36070   8.451  12.354   2.520  0.4649  0.0401  0.1610
19997W        W36071   1.969   1.399   0.312  0.0812  0.0804 -0.0975
19998W        W36072   6.837   9.338  16.324 -0.2307  0.2333  0.0761
19999W        W36073  17.005   5.109   2.526  0.2296 -0.2722 -0.2319
20000W        W36074   3.343  10.885   4.826 -0.3666 -0.0645  0.1236
20001W        W36075   6.233  11.115   5.215 -0.3555  0.0461  0.2965
20002W        W36076  10.772  10.646   4.038 -0.1601  0.0979  0.0968
20003W        W36077   9.249   2.036  15.384 -0.0518 -0.2218 -0.1819
20004W        W36078   3.213   7.013  12.746  0.1224  0.0609 -0.1755
20005W        W36079   0.662   5.235   4.728 -0.0341  0.0490 -0.3931
20006W        W36080  17.479  11.445   1.502  0.1811  0.0746 -0.3757
20007W        W36081   8.579   4.928  13.974 -0.3840 -0.2002 -0.1639
20008W        W36082  11.387  15.081   0.207 -0.0106 -0.0175  0.1955
20009W        W36083   6.006   5.715  13.302 -0.1456 -0.2357 -0.0871
20010W        W36084   5.017   9.923   2.845 -0.1122 -0.1661  0.1060
20011W        W36085  15.988  13.626   3.326 -0.1833  0.0100 -0.0932
20012W        W36086  11.369  11.247  14.758 -0.0918  0.0075  0.2643
20013W        W36087   1.344  14.808  16.910  0.2994 -0.1463 -0.2069
20014W        W36088   7.200  15.657   1.213  0.0559  0.0370 -0.0464
20015W        W36089  15.893  10.766  16.922 -0.1104 -0.4787 -0.0911
20016W        W36090  17.451  10.565  12.160  0.1944 -0.0094  0.1471
20017W        W36091   5.820   8.949  13.417  0.0092  0.0645 -0.2790
20018W        W36092   3.721  10.784   2.540 -0.0166  0.0468 -0.1439
20019W        W36093   9.220   0.921   0.458 -0.1750  0.1512 -0.1279
20020W        W36094   3.582   0.677   3.587 -0.1029 -0.0528 -0.1902
20021W        W36095  15.736   1.061   0.133  0.0593 -0.0097  0.0889
20022W        W36096  11.497   5.792   2.323 -0.0834 -0.0767  0.0010
20023W        W36097  11.189   3.169   6.289 -0.0621 -0.2754  0.4315
20024W        W36098  14.913   4.612   2.184 -0.0470 -0.2206  0.0527
20025W        W36099   1.433   0.677  11.876 -0.2064 -0.1949 -0.1266
20026W        W36100  15.032   9.102  12.779  0.0190  0.0446 -0.3204
20027W        W36101  15.894   3.681   1.668 -0.0645 -0.3639 -0.2317
20028W        W36102  16.023  10.258  12.111  0.0798 -0.0698  0.2461
20029W        W36103  12.855   1.737   3.390 -0.2122  0.3647  0.1465
20030W        W36104   2.718  11.982   2.451  0.0257  0.1776  0.0869
20031W        W36105  10.883   4.129  16.539 -0.0089 -0.3351  0.1118
20032W        W36106   2.360  14.740  12.677 -0.0197 -0.0424 -0.2810
20033W        W36107  12.668   8.510   0.358  0.2443  0.1017  0.2889
20034W        W36108  10.214  17.692  12.768 -0.1131  0.0439 -0.4305
20035W        W36109   7.463  17.790  12.238 -0.0673  0.0614 -0.1900
20036W        W36110  13.329   4.411   4.273 -0.1140  0.0697  0.1086
20037W        W36111  15.350  17.671  16.704  0.0281 -0.0083  0.2261
20038W        W36112  16.273   0.662   4.763 -0.0800 -0.2014 -0.2322
20039W        W36113  13.652  16.368   3.996 -0.0253 -0.2410 -0.1870
20040W        W36114  13.145   9.606   3.805  0.0910  0.0414  0.1852
20041W        W36115  15.809  15.088  15.689  0.1752  0.0300  0.2356
20042W        W36116   5.960  15.750  12.849 -0.2384  0.2347 -0.0556
20043W        W36117  11.928   2.157  16.595  0.0159 -0.2286 -0.1355
20044W        W36118   7.172   6.008  15.114 -0.0129  0.2198  0.0146
20045W        W36119  15.616   6.812   1.207  0.1161  0.0160  0.0145
20046W        W36120  14.514   1.862   1.141 -0.1406 -0.0644  0.0221
20047W        W36121   6.905   3.817   3.736  0.3373  0.2443 -0.1521
20048W        W36122   2.275   2.428   2.825 -0.2099 -0.0815 -0.2235
20049W        W36123   0.251   6.401   3.457  0.0511 -0.1350 -0.2096
20050W        W36124   1.576   5.441   5.756 -0.0305  0.2212 -0.2498
20051W        W36125   1.717   0.267  12.530  0.1768  0.0915 -0.1954
20052W        W36126  16.059   6.082   2.855  0.2022  0.0989  0.1705
20053W        W36127  14.858  17.732   3.698  0.0509  0.1101  0.0189
20054W        W36128  16.438   7.320   5.190  0.1020  0.2060  0.1750
20055W        W36129  14.640  15.518   5.781 -0.2378 -0.1808 -0.0116
20056W        W36130   8.099   1.984  16.618 -0.0230  0.2527  0.1659
20057W        W36131   2.166  14.842  16.813  0.0023  0.1699  0.0046
20058W        W36132   5.041   6.656   2.807 -0.2217 -0.0707 -0.0675
20059W        W36133   8.771   9.053  15.667  0.2641  0.0872  0.0841
20060W        W36134   0.289   6.274  16.379 -0.0039  0.1990  0.0031
20061W        W36135   1.880  12.841   4.961  0.1428 -0.0426  0.3263
20062W        W36136  10.337   5.087   2.135  0.0224  0.1214  0.0711
20063W        W36137  15.379   2.893   1.304  0.1303 -0.2107  0.0170
20064W        W36138   4.044  13.456   5.019 -0.3136  0.0373 -0.0934
20065W        W36139   6.160   6.091   3.188 -0.1675  0.1989  0.2508
20066W        W36140  15.643  17.520   4.468  0.1755 -0.2553 -0.3174
20067W        W36141  15.752   7.812   0.789 -0.0719 -0.1219 -0.0014
20068W        W36142   7.190  13.007   4.928  0.3297 -0.0125 -0.5212
20069W        W36143  13.095   6.331  13.533 -0.0796 -0.0887  0.0497
20070W        W36144  13.510   7.273  13.762 -0.0653  0.1208 -0.2084
20071W        W36145  11.710  17.837   0.020  0.2407 -0.2894 -0.1500
20072W        W36146  15.300   4.539  12.845 -0.0161  0.1273  0.0482
20073W        W36147  10.282   1.385   2.225  0.1729  0.0881  0.0118
20074W        W36148   1.580  12.229   6.119 -0.1007  0.1745  0.2006
20075W        W36149  12.596   1.269  14.057 -0.0154  0.0295 -0.2319
20076W        W36150   3.551  13.427   4.723 -0.0507  0.1250  0.0838
20077W        W36151   7.390   6.535  15.141 -0.0319  0.1538 -0.1646
20078W        W36152   8.419   1.345   4.769  0.1836 -0.1275  0.0957
20079W        W36153  13.590   2.434  16.872 -0.0237  0.0660 -0.1733
20080W        W36154  14.248   0.576   0.881  0.0426 -0.0091  0.3175
20081W        W36155   1.362   3.758  11.794 -0.0318  0.2639 -0.1015
20082W        W36156  10.214   3.929   4.626 -0.0756 -0.0034 -0.0070
20083W        W36157  13.798  11.727   2.921 -0.0480  0.0672  0.0463
20084W        W36158  17.106  14.785   1.744  0.1444  0.1315  0.1255
20085W        W36159  16.847   8.886  12.182  0.1686  0.0462  0.2558
20086W        W36160  12.705  11.341  16.693 -0.3072  0.3834 -0.0247
20087W        W36161  14.184  15.119   3.931  0.0804  0.0440 -0.3790
20088W        W36162  10.752   6.424  16.401 -0.0744  0.0326  0.0270
20089W        W36163   2.125   2.089   5.323  0.2220  0.0285 -0.0820
20090W        W36164   2.699  12.857   4.434 -0.0568  0.2021  0.3027
20091W        W36165  14.108  11.557  15.978  0.4204 -0.0085  0.0771
20092W        W36166   2.856   6.986   5.249 -0.0234 -0.0708 -0.1623
20093W        W36167   3.100   0.128   4.966 -0.1544  0.0617  0.1754
20094W        W36168   7.667  10.616   1.055 -0.0128 -0.1476 -0.2554
20095W        W36169   7.384   3.020  11.723  0.1029 -0.5740  0.4551
20096W        W36170  16.756   5.935  14.248 -0.2166  0.2554 -0.3164
20097W        W36171   8.779  15.167   5.452 -0.1237 -0.0557  0.1019
20098W        W36172   1.808   8.604  12.315  0.0163 -0.0488  0.0363
20099W        W36173   9.049  10.408  13.547 -0.3401 -0.0531 -0.1461
20100W        W36174   1.866   0.480  15.936 -0.1820 -0.4366  0.0968
20101W        W36175   2.395   0.677  13.725 -0.0861 -0.0678 -0.1568
20102W        W36176  13.362  10.968   5.526  0.2285  0.1540 -0.1560
20103W        W36177   4.533   5.785   5.461  0.0171 -0.3676  0.2073
20104W        W36178  14.366  15.658  15.724  0.0884 -0.2993 -0.0860
20105W        W36179   4.526   3.892  15.260  0.0520  0.3359  0.1937
20106W        W36180   2.290  13.823   0.947 -0.0118 -0.0814 -0.1172
20107W        W36181   2.400  16.635   0.280 -0.1390 -0.1683  0.3098
20108W        W36182   5.935   6.994   2.842  0.0232 -0.1664  0.0565
20109W        W36183  14.536  16.251   3.931 -0.0227  0.1123  0.1030
20110W        W36184  12.921  13.737  15.727 -0.1350 -0.2747 -0.1314
20111W        W36185   9.360   9.552  13.223  0.0510 -0.1547 -0.2832
20112W        W36186   4.281  15.925   3.018 -0.0352  0.0142 -0.1228
20113W        W36187  12.758   0.859  16.181 -0.1016  0.1403  0.1447
20114W        W36188   4.849  14.821   4.823  0.0618  0.1613  0.0808
20115W        W36189  10.812   5.696   0.622 -0.1523  0.0818  0.0269
20116W        W36190   5.971   0.641   3.890 -0.1420  0.1782 -0.1205
20117W        W36191  16.977  13.566   1.033  0.0797  0.0896 -0.0757
20118W        W36192  10.054  13.655   0.953 -0.0870  0.0420  0.3142
20119W        W36193  14.606   4.827   5.088 -0.0997  0.2821  0.0907
20120W        W36194   6.009   0.455  14.525  0.3170  0.0816  0.0329
20121W        W36195  13.831   2.659  16.511  0.0056 -0.1153 -0.3193
20122W        W36196   8.441   8.607   0.091 -0.0965 -0.0232 -0.1170
20123W        W36197   4.174  17.118  15.524 -0.1659 -0.0859 -0.0670
20124W        W36198   8.268   5.021   5.164  0.1517  0.1482 -0.0374
20125W        W36199   8.705   7.435  14.470  0.1114 -0.1472  0.2569
20126W        W36200   4.027   3.750   3.300 -0.2457  0.2693  0.0353
20127W        W36201   3.830   7.109  16.703 -0.0891 -0.1654 -0.0801
20128W        W36202   9.891  12.835   1.947  0.3903 -0.0434 -0.0023
20129W        W36203   1.600   3.770   0.272 -0.1414  0.2506 -0.1046
20130W        W36204  10.943   8.478   5.881 -0.1320  0.0713 -0.0768
20131W        W36205   4.895   4.103   5.463  0.1592  0.0162 -0.1343
20132W        W36206  13.392   2.978   5.028  0.2547  0.1662  0.0786
20133W        W36207   7.748  12.701   2.941  0.1438 -0.1040  0.1081
20134W        W36208  17.354   5.344  13.143 -0.2886 -0.0604 -0.3391
20135W        W36209  14.166   2.746   2.176  0.3872 -0.3066 -0.1463
20136W        W36210  17.110  14.866   5.731 -0.3282 -0.1823  0.1364
20137W        W36211   3.611  16.942  13.413 -0.1903 -0.2121  0.0570
20138W        W36212   1.837  14.945  12.624  0.2012  0.1532  0.2533
20139W        W36213  17.382   3.419   2.532 -0.2442  0.0137 -0.0462
20140W        W36214   0.808   1.928   4.712 -0.2432 -0.0961  0.1269
20141W        W36215  12.313  14.066   5.781  0.0355  0.0424 -0.1337
20142W        W36216   5.828   6.551  13.183  0.0936 -0.0196  0.2002
20143W        W36217  14.958  15.139   0.883  0.0001  0.0713 -0.3120
20144W        W36218   9.660  16.991   1.154 -0.2510  0.0379 -0.1126
20145W        W36219   2.739  17.741  11.856 -0.2034 -0.0370 -0.1686
20146W        W36220   4.330  15.233  13.335 -0.1838 -0.2223 -0.1053
20147W        W36221  15.681   5.467  15.097  0.0579  0.3180 -0.1761
20148W        W36222  17.210  12.237   1.831  0.1673 -0.1479 -0.1432
20149W        W36223  13.639   5.497  14.592 -0.0746  0.2952  0.0796
20150W        W36224  17.821  10.056  13.568 -0.2610 -0.1226  0.1439
20151W        W36225   8.039   3.946   4.531 -0.2088  0.1883  0.0921
20152W        W36226  15.750   0.785   4.719 -0.0695  0.1178 -0.0207
20153W        W36227   2.135   6.958  15.246 -0.1793 -0.2863 -0.1779
20154W        W36228  16.696   5.632   0.907  0.2707 -0.0599  0.0997
20155W        W36229  16.435   0.771  13.609  0.0068  0.0680  0.0111
20156W        W36230   6.393   9.368   5.365  0.2006  0.1265 -0.1252
20157W        W36231  16.194   4.541   1.561  0.0903 -0.0247 -0.0560
20158W        W36232   6.847   4.953   1.899 -0.0185 -0.1032  0.1644
20159W        W36233   5.280  15.139   5.551  0.3747  0.0844  0.1910
20160W        W36234  12.299   4.102   3.090 -0.1704 -0.2556 -0.0171
20161W        W36235  12.159  15.197  16.596  0.1561  0.3701 -0.0610
20162W        W36236   9.299   9.199   1.512  0.0280  0.1651  0.0160
20163W        W36237   6.714   1.420  13.853  0.1135 -0.3890 -0.0202
20164W        W36238   7.948   2.869   3.671 -0.1862 -0.0577 -0.1066
20165W        W36239   5.918   9.038   3.728  0.0284  0.1331 -0.0670
20166W        W36240  16.315   8.588   4.388  0.0205  0.2202  0.0016
20167W        W36241   2.749  14.346  14.790  0.0368  0.1647 -0.0936
20168W        W36242   7.829   3.554   3.364 -0.2341 -0.1271  0.0003
20169W        W36243   8.956   4.411  14.687  0.3364 -0.2996 -0.1993
20170W        W36244  11.016   5.105  13.794  0.5251 -0.0145 -0.1384
20171W        W36245  12.446  15.641  13.414  0.2909  0.0341 -0.1635
20172W        W36246   1.871   6.754   5.173 -0.1795  0.2755  0.0147
20173W        W36247   7.210  15.763  11.353  0.0503 -0.1299 -0.0826
20174W        W36248  11.666  14.105  13.978  0.2378  0.0085  0.0384
20175W        W36249  15.690  15.158  13.223  0.2009  0.1141 -0.1081
20176W        W36250   4.071   0.184  14.542 -0.0600 -0.0991  0.1655
20177W        W36251  17.762  16.983  12.495  0.1913  0.1841  0.1614
20178W        W36252  16.067   6.405   5.744  0.1275  0.1476 -0.1603
20179W        W36253  10.689   0.512   5.835  0.1240 -0.3887 -0.3272
20180W        W36254  16.064   4.070   2.594 -0.0349  0.0215  0.2334
20181W        W36255  17.807   9.479   4.224 -0.1326 -0.0280 -0.0251
20182W        W36256  11.742   4.852  15.005  0.1646  0.0611  0.2256
20183W        W36257  12.452   8.302   3.836  0.0910  0.1941  0.0142
20184W        W36258  13.346  16.262   2.016  0.0254 -0.3019 -0.2801
20185W        W36259  15.098  15.507   3.740  0.0077  0.0577 -0.0996
20186W        W36260   2.281   4.644  16.155 -0.1458  0.0313 -0.1186
20187W        W36261   8.984   4.823   3.606 -0.2599  0.1052  0.0300
20188W        W36262   6.157  12.085  13.487  0.1488 -0.0427  0.0441
20189W        W36263  17.247  17.836   0.255  0.0603 -0.1087 -0.3537
20190W        W36264   0.387   9.164   4.217 -0.3509 -0.0820  0.2116
20191W        W36265   6.593   0.639  16.023 -0.3351 -0.0058  0.1613
20192W        W36266  16.130   2.281   5.755  0.0880  0.1227  0.0540
20193W        W36267   4.177  15.435   0.169 -0.3649 -0.2929  0.1541
20194W        W36268   3.302   7.458   4.739  0.0309 -0.0541  0.1784
20195W        W36269  14.476   5.426   1.845  0.0595  0.0679 -0.1316
20196W        W36270   6.276  15.043   3.821 -0.1034  0.1094 -0.1044
20197W        W36271  16.334   8.729  12.017 -0.0333  0.3373  0.0968
20198W        W36272  14.491  13.117  13.677  0.1263  0.3765 -0.0168
20199W        W36273  15.670  12.703  12.218 -0.0127 -0.2111  0.1146
20200W        W36274   5.868   6.153   2.771 -0.2358 -0.5549 -0.1421
20201W        W36275   5.221   8.600   5.442 -0.0658 -0.0015 -0.0766
20202W        W36276  17.495  17.359   5.152  0.1476 -0.2270 -0.2711
20203W        W36277  13.637   4.163  14.687  0.0324  0.2538  0.1053
20204W        W36278   2.151   0.849  15.647 -0.0539  0.2830 -0.1784
20205W        W36279   6.564  16.877   3.793  0.1804  0.0345 -0.2523
20206W        W36280  16.952  12.806   4.487  0.0007 -0.0756  0.0554
20207W        W36281   8.485  12.058  12.008  0.1130  0.1203  0.1529
20208W        W36282   2.688  12.338   1.408 -0.1006  0.3007  0.0409
20209W        W36283   9.126   9.183   3.682 -0.0083 -0.3955 -0.2423
20210W        W36284  12.140   3.452   1.300 -0.1491 -0.2360  0.0214
20211W        W36285  13.244   1.296  14.400 -0.1514 -0.3782  0.1418
20212W        W36286   0.105   5.896   6.288  0.0760 -0.2435 -0.2155
20213W        W36287   8.455  15.859   0.027  0.0414 -0.0595  0.0909
20214W        W36288  16.338   6.322   4.209  0.1412 -0.2532 -0.0437
20215W        W36289   1.626   7.206  14.306 -0.1408 -0.0677 -0.1527
20216W        W36290   7.979   8.465   0.384 -0.2861  0.0699  0.0741
20217W        W36291  12.539   9.660  15.558  0.0243  0.0385  0.3318
20218W        W36292   9.655  14.004  13.882 -0.1739  0.2238 -0.1740
20219W        W36293  15.475   8.539  11.735  0.2794 -0.3749 -0.1188
20220W        W36294  11.967  14.805   3.031  0.0512  0.0564 -0.2636
20221W        W36295  10.104  13.965  16.397 -0.0388  0.1745  0.0135
20222W        W36296  16.592  14.123   5.818 -0.1188  0.1654 -0.0733
20223W        W36297  14.957  15.827   4.099 -0.3040  0.1082 -0.2730
20224W        W36298   0.054   9.959  16.470 -0.0785  0.1428 -0.0081
20225W        W36299   7.139   1.501   1.282  0.2532  0.1631 -0.0506
20226W        W36300   4.813  10.470   3.124 -0.0475 -0.1783  0.2012
20227W        W36301   5.620   7.861   1.040 -0.0263 -0.2239  0.0432
20228W        W36302  12.126   4.023  16.474  0.0041  0.0976  0.1662
20229W        W36303  10.217   9.144  16.885 -0.0690 -0.0241 -0.0838
20230W        W36304  14.542   3.329  12.514  0.1170 -0.2153 -0.3139
20231W        W36305   8.826  14.546   2.906  0.2121  0.1992  0.0994
20232W        W36306  13.230  16.049  16.393 -0.1448 -0.0995  0.0234
20233W        W36307  15.612  14.426   2.275 -0.3335 -0.2674  0.1546
20234W        W36308  11.045  12.110  14.987  0.0699  0.0477  0.0041
20235W        W36309  17.423  10.834  13.036 -0.0961 -0.3792  0.1498
20236W        W36310  16.994  15.664   2.482  0.1359  0.1174  0.0040
20237W        W36311  10.510   6.239  14.281  0.3771 -0.0100  0.1504
20238W        W36312   7.548   9.230  13.092 -0.0730 -0.4078  0.3666
20239W        W36313   3.453  16.778   5.428  0.2055 -0.1345  0.1372
20240W        W36314   8.150  16.015  15.635  0.2458  0.2210 -0.2034
20241W        W36315   9.796  13.342  12.582 -0.0967  0.0913 -0.0162
20242W        W36316  16.667   1.309   5.121 -0.0248  0.2601  0.4240
20243W        W36317  13.396   9.271   3.399  0.0843 -0.1147  0.0776
20244W        W36318  12.833  17.495  15.082 -0.0759  0.0159 -0.0786
20245W        W36319   3.482   6.166   1.963  0.0830 -0.0915  0.0323
20246W        W36320  14.696  12.297  14.027  0.0455  0.3324 -0.0917
20247W        W36321   3.182  13.971   5.361 -0.1152 -0.1285  0.1002
20248W        W36322  14.259  15.106  13.322 -0.0891  0.0141 -0.3581
20249W        W36323  13.347   1.494  16.761 -0.2220  0.2611 -0.1015
20250W        W36324   8.823  15.147   4.297  0.1363  0.0694 -0.1272
20251W        W36325   8.891   0.576  13.652  0.0556  0.0504 -0.0838
20252W        W36326  11.961  12.858  14.586  0.1304  0.0783 -0.0547
20253W        W36327  17.282   7.560  12.512 -0.3305  0.1792 -0.0600
20254W        W36328   7.304  11.579   2.643 -0.0572 -0.1974  0.3225
20255W        W36329   1.498  12.521   4.682 -0.1496 -0.1735  0.0399
20256W        W36330  15.768   1.784  13.200 -0.1655  0.0992  0.1038
20257W        W36331  13.044  12.071   6.103  0.3010  0.1460 -0.1757
20258W        W36332  17.634  14.642   1.526 -0.0468 -0.0784 -0.0962
20259W        W36333   2.947   1.255  13.466 -0.2135 -0.2957 -0.2115
20260W        W36334   9.235  13.260  12.604  0.2870 -0.2912 -0.2303
20261W        W36335   7.696  14.504  15.392  0.0468  0.0490  0.0206
20262W        W36336   8.517  15.188  14.557  0.0731 -0.2342 -0.3763
20263W        W36337  14.258  17.360   4.966 -0.1955  0.0768 -0.2908
20264W        W36338   4.180  12.942   0.403  0.1115 -0.0063  0.1901
20265W        W36339   1.080   3.798   2.503  0.0226  0.2198  0.0104
20266W        W36340  16.977   9.529   0.766  0.1048  0.0595 -0.0094
20267W        W36341  11.466  17.694  15.275  0.0475 -0.3589 -0.2172
20268W        W36342   5.860   6.804   4.472 -0.0860 -0.3699 -0.1604
20269W        W36343  15.601   6.986   4.043  0.0561  0.1102 -0.0513
20270W        W36344  13.487  13.284   2.209 -0.2704  0.3336  0.1614
20271W        W36345   0.805   3.400   1.129  0.2074  0.0760 -0.1539
20272W        W36346  10.521   5.852   2.684  0.3469  0.0442 -0.0344
20273W        W36347   4.435   6.803   4.569 -0.0828  0.1888 -0.1340
20274W        W36348   3.373   9.904  10.960 -0.3696 -0.1562 -0.0299
20275W        W36349  13.386   4.735   5.317  0.0476  0.0982 -0.0937
20276W        W36350  12.153  15.803   0.064 -0.0616 -0.2061  0.0213
20277W        W36351   7.474   2.224  15.223 -0.0562 -0.0147  0.0817
20278W        W36352  15.788   4.792   4.741  0.1606  0.2641  0.0765
20279W        W36353   9.892   8.295  12.835 -0.2816 -0.1586  0.0386
20280W        W36354  10.549   3.393   5.620 -0.2976 -0.0235 -0.1228
20281W        W36355   1.683   8.269  12.700 -0.0858 -0.2612 -0.1137
20282W        W36356  12.223  11.557  11.837 -0.0454 -0.0839  0.0403
20283W        W36357   3.567   1.099  16.226 -0.1878 -0.3604 -0.2268
20284W        W36358  13.105  15.362   3.497 -0.0464  0.1344 -0.0714
20285W        W36359   1.605   9.929  13.181  0.1780  0.1270  0.2402
20286W        W36360  13.659  14.122  14.062  0.3480 -0.0199  0.3210
20287W        W36361   3.866  11.748  15.527 -0.1840 -0.2064  0.1366
20288W        W36362   9.431   6.167   1.452  0.1785  0.1619  0.0112
20289W        W36363   5.062   7.674  14.320 -0.1482 -0.1189 -0.0187
20290W        W36364   1.820   3.824  15.394 -0.0266  0.3380  0.0737
20291W        W36365   0.259  12.957  15.041  0.2400  0.0166  0.0426
20292W        W36366  13.314  17.588   0.378 -0.2182  0.0040 -0.2740
20293W        W36367   1.347   4.180  11.960  0.1189  0.0608 -0.1641
20294W        W36368  17.247  16.885  12.352  0.0365  0.0397  0.2733
20295W        W36369   5.259  17.661  16.236  0.1166 -0.0904  0.1986
20296W        W36370   8.211   4.054  14.273  0.0271  0.2293  0.0242
20297W        W36371  13.933  10.550  12.017  0.0734  0.0348 -0.1506
20298W        W36372   1.728  14.785   1.106 -0.3623  0.2999 -0.4350
20299W        W36373   7.604  10.164  16.807 -0.2876  0.2908  0.2279
20300W        W36374   1.792  14.264   5.636  0.5220  0.0171  0.0157
20301W        W36375   8.202   2.234  13.517 -0.1510  0.0803  0.2422
20302W        W36376  16.044   5.716   4.591  0.1332  0.0051  0.0960
20303W        W36377   2.139  12.028   0.607 -0.2594  0.1011  0.1365
20304W        W36378   1.111  16.471   2.758 -0.0595 -0.1655  0.1379
20305W        W36379  14.385   5.436   1.187  0.0213 -0.3627  0.3508
20306W        W36380  13.951   2.137  16.072 -0.2771 -0.1169 -0.0886
20307W        W36381  16.567  15.329   4.978 -0.0086  0.4719 -0.2532
20308W        W36382   5.369  16.480   4.113  0.2019 -0.0108 -0.1652
20309W        W36383  10.354  15.656   3.420  0.1882 -0.0507 -0.0821
20310W        W36384   0.480   0.843   0.248 -0.1595 -0.1403  0.2812
20311W        W36385  17.560   5.982  13.930 -0.0734 -0.3884 -0.1804
20312W        W36386  13.001   0.805   5.521 -0.0321  0.0184 -0.2807
20313W        W36387   0.740   7.778  12.479  0.1741  0.1604  0.2526
20314W        W36388   7.885   1.989   2.823  0.0177  0.0946  0.0461
20315W        W36389   5.501   5.783   0.939 -0.1048 -0.4140 -0.2357
20316W        W36390  11.253  10.943   4.643  0.0085  0.0662 -0.2047
20317W        W36391   1.015   2.531   2.262 -0.1083 -0.0861  0.3140
20318W        W36392  16.052   5.956   0.688  0.2787 -0.2156  0.0749
20319W        W36393  10.009   2.659   5.317  0.2513 -0.3350 -0.1119
20320W        W36394  15.243   6.442  16.539  0.0654 -0.0238  0.0390
20321W        W36395   3.599  14.161   3.650 -0.0451  0.0711  0.1215
20322W        W36396   6.659  11.496   0.947  0.2534  0.0833  0.0586
20323W        W36397   5.434  12.823   3.131 -0.0925  0.0278 -0.2330
20324W        W36398   2.094   8.045   1.441  0.1363  0.1104 -0.0706
20325W        W36399   3.920   5.723   2.142 -0.4461  0.1323 -0.0031
20326W        W36400  16.335   6.234  13.303 -0.0870 -0.1717  0.1470
20327W        W36401  11.794  15.357  14.560  0.0559 -0.2482 -0.0462
20328W        W36402   8.776   7.966   1.773  0.0280  0.2946  0.0129
20329W        W36403  16.154   1.644  12.835 -0.0350 -0.1126  0.0976
20330W        W36404   1.166   0.418   5.771  0.0859 -0.0675 -0.1111
20331W        W36405  15.403   1.020   3.076 -0.1017 -0.1529 -0.1843
20332W        W36406  15.001  11.863  11.935  0.3669  0.0987  0.0640
20333W        W36407   9.455   9.440   4.364  0.2085 -0.0026 -0.2038
20334W        W36408   2.491  10.247  13.437 -0.0592 -0.2301  0.1568
20335W        W36409   8.223  13.995  13.089 -0.2053  0.1295 -0.1404
20336W        W36410  16.087  14.998   1.596 -0.0876  0.1128  0.1139
20337W        W36411   4.539   7.251   4.347 -0.4813  0.3057  0.2403
20338W        W36412  12.700   5.477   5.670  0.2814  0.1326  0.0591
20339W        W36413   4.580   6.778  16.171  0.2674  0.2563  0.0902
20340W        W36414  17.027   7.486  13.472 -0.1469 -0.1210 -0.1822
20341W        W36415  15.156  11.386   2.666  0.1121 -0.0008 -0.2074
20342W        W36416  15.106  11.531  16.612 -0.2332  0.0203 -0.1789
20343W        W36417  10.999   9.982   4.665 -0.1167  0.3914  0.0636
20344W        W36418   0.835  11.984   2.841 -0.1534 -0.2244 -0.0348
20345W        W36419  13.630  10.922  13.017  0.1658  0.3510  0.0566
20346W        W36420   7.745  14.808   1.016  0.0092  0.0982 -0.2699
20347W        W36421  13.774  10.304   2.530  0.0809  0.0727  0.2138
20348W        W36422   4.665   9.814  14.818  0.2310 -0.1821  0.1650
20349W        W36423  11.244   8.460   4.245  0.2834  0.0762 -0.1217
20350W        W36424  16.094  14.480  14.907  0.0956  0.2319  0.0429
20351W        W36425  11.680  11.398  14.335 -0.0992 -0.1599 -0.0629
20352W        W36426   9.349   5.945  15.320  0.1845 -0.0817 -0.1477
20353W        W36427   2.366   2.257   0.946 -0.0666 -0.1684  0.0556
20354W        W36428  17.365   9.745  15.740  0.3885  0.3404  0.2694
20355W        W36429  16.509   5.078  12.392  0.0338  0.0425 -0.0283
20356W        W36430   0.309   6.744   5.157  0.1444 -0.1398 -0.1000
20357W        W36431  15.944  17.420   3.400 -0.1276  0.1981  0.1058
20358W        W36432  13.031  17.478  13.736  0.2425 -0.0890 -0.1772
20359W        W36433   4.202   7.045  16.324 -0.3041  0.0348  0.2971
20360W        W36434   1.165  10.177  13.147 -0.0724 -0.2884  0.0391
20361W        W36435   1.063  14.102   2.721  0.0440  0.1011 -0.0606
20362W        W36436   6.354   3.954   5.798 -0.0551  0.3598 -0.3704
20363W        W36437  10.737   7.172   2.964  0.1747 -0.0047 -0.0047
20364W        W36438  16.480  16.737   0.817 -0.2456 -0.0699 -0.2342
20365W        W36439  15.211  13.325   2.029  0.0911 -0.3637  0.1587
20366W        W36440  17.141   4.794  14.754  0.2588 -0.2032 -0.0360
20367W        W36441  12.687  11.837  16.416  0.0075 -0.2421 -0.1203
20368W        W36442  13.640   5.934  12.067 -0.0317  0.4072  0.0716
20369W        W36443  10.811   7.356   4.895 -0.2896 -0.2967  0.0013
20370W        W36444   3.906   3.788  15.296 -0.0797  0.1522  0.1225
20371W        W36445   9.858  12.409   4.882 -0.0476  0.0100  0.1346
20372W        W36446   8.812  15.968  13.527 -0.0922  0.2195 -0.2297
20373W        W36447  13.511  15.834  12.349 -0.3127 -0.3182 -0.0101
20374W        W36448   8.442   5.442  16.033 -0.0057  0.0068  0.1285
20375W        W36449   4.400   1.665  12.876  0.0357  0.0979  0.1375
20376W        W36450  14.442  17.711  15.160 -0.1337  0.0185 -0.2683
20377W        W36451   4.128   9.413   0.333 -0.1878  0.3589 -0.1528
20378W        W36452  14.235  10.951   1.974 -0.0086 -0.0200  0.0662
20379W        W36453  16.970  13.953   1.922  0.3297 -0.1362 -0.0058
20380W        W36454   1.733  12.906   2.417  0.1235 -0.1853 -0.0854
20381W        W36455   6.475   8.744  12.892  0.2851  0.1956 -0.4054
20382W        W36456  12.975   1.155   3.830  0.1873  0.0435 -0.2031
20383W        W36457   1.756   2.905  14.392 -0.1176  0.0016 -0.0004
20384W        W36458  13.591   8.839  15.781 -0.0064 -0.0358 -0.1099
20385W        W36459  14.860  15.257   5.403 -0.1226 -0.0500 -0.1637
20386W        W36460   1.732   4.933  15.019  0.1225 -0.0298 -0.2694
20387W        W36461   3.751   0.144   6.062 -0.2974  0.1695  0.0172
20388W        W36462  17.312   9.006   1.903  0.2190 -0.1566  0.0133
20389W        W36463   5.840   1.412  16.837 -0.1316  0.0764 -0.0908
20390W        W36464   6.986  17.764  14.912 -0.0537 -0.2036 -0.1882
20391W        W36465  11.154   6.880  12.853 -0.0271  0.0156  0.0409
20392W        W36466  12.063  11.231  15.526 -0.1663  0.1802  0.0662
20393W        W36467   4.596   4.073  13.936  0.1703  0.2078  0.0961
20394W        W36468  16.210  11.716   2.737 -0.1086 -0.0604  0.1783
20395W        W36469   8.429   4.188  16.035 -0.0678 -0.2635  0.0741
20396W        W36470  10.210  14.076  13.194  0.0850  0.1767 -0.1307
20397W        W36471  15.937   8.539  16.192 -0.1489 -0.1740 -0.1160
20398W        W36472   1.592  10.083  15.769  0.1274  0.0058  0.0955
20399W        W36473  16.888   8.194   2.017 -0.0025  0.0049  0.0559
20400W        W36474   0.077  16.880   6.722 -0.0827 -0.2098  0.3559
20401W        W36475  11.190   8.790   1.167  0.1551  0.1263 -0.0660
20402W        W36476   0.912  14.540  16.158  0.0040  0.1719 -0.0179
20403W        W36477   8.988  17.540   5.340 -0.0759 -0.0671  0.0021
20404W        W36478   3.631  14.261   3.162  0.2398  0.1907  0.1899
20405W        W36479  12.564   4.968   5.624  0.3891 -0.1507 -0.0203
20406W        W36480   5.450  15.898  16.037 -0.0370  0.1936 -0.2144
20407W        W36481  14.645  13.405   3.357 -0.0350 -0.3207 -0.3651
20408W        W36482   0.513  17.186  13.532  0.1396 -0.0024  0.1093
20409W        W36483  10.430  17.183  13.918 -0.0606 -0.0617  0.3705
20410W        W36484  12.881  16.136   4.583 -0.1084  0.1808  0.0209
20411W        W36485  11.169   3.448   2.325  0.1043 -0.0049 -0.2132
20412W        W36486   3.739  12.373  11.151  0.1517 -0.1352 -0.5932
20413W        W36487   5.457  11.478  13.527  0.0257 -0.0149  0.1664
20414W        W36488   8.697  13.046  12.543 -0.0895  0.2524  0.0547
20415W        W36489   4.135  14.851   2.574 -0.2004 -0.0516  0.0546
20416W        W36490   1.603   8.385   0.461 -0.0044 -0.1464 -0.1650
20417W        W36491  10.870  13.536  12.339 -0.1469 -0.2252 -0.1113
20418W        W36492   1.061   0.363   3.350 -0.2880 -0.0466 -0.3725
20419W        W36493  11.190   5.648   0.296 -0.2605  0.2020 -0.1824
20420W        W36494   4.093  16.998  11.284  0.1214 -0.0482 -0.3191
20421W        W36495   6.100   0.108   0.189  0.0740  0.4410 -0.0193
20422W        W36496  11.323   2.398   5.088 -0.1291  0.0142 -0.1684
20423W        W36497   4.156  10.215  13.711 -0.0714 -0.2221  0.1244
20424W        W36498  13.300  14.203   3.045  0.1354  0.1723  0.0285
20425W        W36499   4.270   4.135  14.291  0.0689 -0.0313 -0.1423
20426W        W36500  15.067  17.780  15.140  0.3967 -0.1728  0.0389
20427W        W36501   3.140   4.621   4.336 -0.2364  0.1903  0.2129
20428W        W36502   8.936  15.235  14.301  0.0740  0.2859  0.0078
20429W        W36503   9.676  12.584  12.293  0.1095 -0.2910  0.1438
20430W        W36504   6.980   6.445  16.043 -0.0241  0.0366 -0.1125
20431W        W36505   3.467   9.061  16.360  0.1133 -0.0434 -0.0524
20432W        W36506   0.656   8.149   0.552  0.1919  0.1779  0.1019
20433W        W36507   8.622   9.734   6.282 -0.2397 -0.3863  0.0360
20434W        W36508  15.506   5.370   3.132 -0.2036 -0.1245  0.1214
20435W        W36509   6.010   8.559   0.645 -0.1400  0.0150  0.1474
20436W        W36510   1.616   6.599  14.833  0.0571 -0.2661  0.0066
20437W        W36511   6.537   2.569   3.266 -0.1790 -0.0488 -0.0948
20438W        W36512   9.885  17.644  15.462  0.2969  0.1400 -0.1211
20439W        W36513   2.656   1.538   2.320 -0.1689  0.1440  0.2453
20440W        W36514   0.292   4.024   2.850 -0.0432  0.0336 -0.1955
20441W        W36515   4.250   6.783   1.977 -0.2078  0.3096  0.0248
20442W        W36516  10.728   9.305  15.072  0.0445  0.2796  0.2659
20443W        W36517   0.387  14.844   0.883  0.2973 -0.2766  0.1149
20444W        W36518   5.860   7.667  15.125  0.0398 -0.2067 -0.0795
20445W        W36519  11.007  15.743   2.755  0.0513 -0.1487 -0.0032
20446W        W36520   8.805   9.906   4.056  0.1126  0.3805 -0.0334
20447W        W36521   6.518  11.257  14.814 -0.1067  0.0275 -0.0152
20448W        W36522  15.516  10.723   4.409 -0.2449  0.1299  0.0755
20449W        W36523   6.248   0.078   3.012  0.1840  0.1713  0.0534
20450W        W36524  13.984   2.829  11.992 -0.0459 -0.0819  0.0550
20451W        W36525  11.825   8.153  16.496  0.0427  0.2685 -0.1290
20452W        W36526  17.549  11.904   1.627 -0.5483  0.1220 -0.0190
20453W        W36527  15.509   5.622   1.741  0.0763 -0.0909  0.1482
20454W        W36528   2.303   8.624  13.887 -0.1821  0.3135 -0.2709
20455W        W36529   2.867   9.134   5.669  0.2185 -0.1331 -0.2678
20456W        W36530   3.226   6.299   0.791  0.1294  0.4915 -0.1469
20457W        W36531   7.054  13.708   3.439  0.0147 -0.1232 -0.0496
20458W        W36532  11.130  13.154  11.526  0.3250 -0.3497 -0.0866
20459W        W36533  16.938   0.936  13.691  0.0930  0.3785  0.2157
20460W        W36534   1.461  14.240   2.294 -0.2007  0.0609  0.0092
20461W        W36535  14.238  12.456   1.992 -0.1931 -0.2939  0.1260
20462W        W36536   2.480  12.341  11.696  0.4393 -0.0753  0.1072
20463W        W36537  17.493  13.058   3.764 -0.1638 -0.2901  0.1665
20464W        W36538   2.570  14.675   1.419  0.2425  0.0589  0.3361
20465W        W36539  16.816   9.359  12.312 -0.0858  0.0723  0.3500
20466W        W36540   6.908   7.068   5.235 -0.0654 -0.1051 -0.0946
20467W        W36541   9.272  10.475   5.834  0.3564  0.0013 -0.2333
20468W        W36542   6.926  13.645   2.982 -0.0518 -0.4779  0.1450
20469W        W36543   7.001   7.226   6.175 -0.3116 -0.0344  0.1713
20470W        W36544  10.520  13.234  14.214  0.1178  0.0961  0.0632
20471W        W36545   7.884   5.502   2.182  0.0582  0.0439  0.0878
20472W        W36546  12.879   1.454   4.646  0.1866 -0.1975 -0.1946
20473W        W36547  17.315   1.696  14.285  0.0183  0.2116  0.3101
20474W        W36548   5.355   5.733   4.331  0.0205 -0.2220 -0.0513
20475W        W36549  13.940  13.621  14.139  0.0140 -0.0601  0.3075
20476W        W36550   9.656  11.127  16.476  0.1378 -0.2209 -0.0054
20477W        W36551   8.786  13.988   1.161  0.0939 -0.1327  0.1441
20478W        W36552   4.517   4.976   5.190  0.0021  0.3095  0.0408
20479W        W36553  12.503   7.006  13.364  0.2940  0.1330  0.2815
20480W        W36554  12.871   8.098  14.049 -0.3186  0.1085 -0.0306
20481W        W36555   2.641   2.129  15.912  0.0080  0.0194 -0.1101
20482W        W36556  11.622   5.259   1.519 -0.0341  0.5616  0.0893
20483W        W36557   2.292   9.376  15.889 -0.0144 -0.1654 -0.0164
20484W        W36558   3.395  12.527  15.232 -0.0587  0.1975 -0.2842
20485W        W36559  12.522   3.446   1.628 -0.0902  0.0494 -0.3091
20486W        W36560   1.807   0.930   1.544  0.1333 -0.0638  0.0782
20487W        W36561   0.572  11.479   2.117  0.1522  0.1436 -0.1961
20488W        W36562   1.399  10.535   2.563 -0.2583  0.0636 -0.0033
20489W        W36563  12.033   7.505   0.265  0.0455  0.0282  0.1661
20490W        W36564   7.446  15.438  13.627  0.0353 -0.1192 -0.1270
20491W        W36565   9.767   7.627   3.282  0.2968 -0.0713 -0.0223
20492W        W36566   3.190   9.192   3.075 -0.0815  0.2765 -0.0275
20493W        W36567  16.671   8.468   1.530  0.0554 -0.0879 -0.0587
20494W        W36568   3.352  11.571   3.614  0.2221 -0.2076  0.2682
20495W        W36569  11.667  16.420  16.755  0.1551 -0.4473 -0.0939
20496W        W36570  16.253  16.824   4.471 -0.0630 -0.1466 -0.0016
20497W        W36571  10.160  14.190  13.801  0.0313  0.2873  0.4211
20498W        W36572   7.329  10.677  12.102 -0.0652  0.2627 -0.2141
20499W        W36573  17.818  13.277  11.866 -0.1318  0.0439  0.1536
20500W        W36574   2.570   9.069  14.407  0.1875  0.0592  0.0446
20501W        W36575  11.355  14.164   1.671  0.0397  0.2146  0.1605
20502W        W36576  17.755  12.378  14.017  0.1157 -0.4215 -0.0773
20503W        W36577  14.425   6.944  16.062 -0.1825  0.1615 -0.2814
20504W        W36578   1.242  15.191  13.677 -0.1648 -0.1903 -0.3288
20505W        W36579  10.968   3.387  14.192  0.2116  0.0545 -0.3620
20506W        W36580   6.845  10.677   1.149  0.0383  0.2952 -0.1260
20507W        W36581   2.122   3.907  13.707  0.6797  0.2252 -0.0509
20508W        W36582   1.341   8.550  12.438 -0.1740 -0.0437  0.0828
20509W        W36583  14.879   4.631  16.534 -0.2192  0.1084 -0.0065
20510W        W36584   0.435  15.006  15.533 -0.0290  0.0725 -0.0635
20511W        W36585  10.331  11.554  15.433 -0.2771 -0.1956  0.3208
20512W        W36586  14.572   5.025   6.518  0.1336  0.1256  0.0821
20513W        W36587   6.988  10.511  16.705 -0.1590  0.2291  0.3874
20514W        W36588  12.393  14.614   0.180 -0.1081 -0.2317 -0.1421
20515W        W36589  10.551  16.296   5.778  0.0708 -0.0270  0.1166
20516W        W36590  10.539   9.583   1.392 -0.0797  0.0246 -0.1574
20517W        W36591   3.944  14.866   1.664 -0.2395 -0.0296 -0.0732
20518W        W36592  14.979  17.019  11.956 -0.2792  0.1519  0.1398
20519W        W36593   1.839  11.085   4.547 -0.4620  0.1906  0.2564
20520W        W36594  16.381   9.365   3.441 -0.1470  0.0570 -0.1294
20521W        W36595   4.429  15.270   5.468 -0.0697 -0.1323 -0.1675
20522W        W36596   6.426  12.824   0.188  0.1204  0.2721 -0.1958
20523W        W36597  16.562   0.033   1.685  0.0529 -0.1550  0.0317
20524W        W36598   9.933   7.619   2.272 -0.0308 -0.0441  0.1200
20525W        W36599   3.194   4.481  15.140  0.0206 -0.0799 -0.0538
20526W        W36600   0.670   1.375   3.660 -0.0239  0.2358  0.0999
20527W        W36601  15.938   5.071  12.280  0.1920 -0.0787 -0.0850
20528W        W36602  12.237   4.473   6.437  0.2263  0.1184 -0.2334
20529W        W36603   7.874  15.112  12.032 -0.0125 -0.0811  0.0224
20530W        W36604  15.960   1.867  15.715 -0.1124  0.0788 -0.1055
20531W        W36605   4.712  16.469  12.623  0.0353  0.2782  0.1851
20532W        W36606   6.957   6.330  14.281  0.2835  0.0601 -0.3393
20533W        W36607  16.783   6.821   2.635 -0.2513 -0.0124 -0.0513
20534W        W36608  10.919  14.985   5.280  0.0346 -0.2163  0.1012
20535W        W36609   8.356  12.773  13.838  0.1629  0.2105  0.0493
20536W        W36610   9.788  14.335  15.109  0.2816 -0.0460  0.0047
20537W        W36611   1.326  11.894   3.585  0.1466 -0.1271 -0.1015
20538W        W36612   7.510   7.460  11.757  0.2387 -0.0854  0.0005
20539W        W36613  16.029   5.375  13.196 -0.0206 -0.1475  0.1497
20540W        W36614  13.842   3.491  11.841  0.4053 -0.1941 -0.1621
20541W        W36615   9.372   3.527   3.884 -0.1423  0.0129  0.0127
20542W        W36616  11.848   4.209  14.929  0.1153  0.3875 -0.1724
20543W        W36617   0.480   4.957   6.526  0.2498 -0.1476  0.0262
20544W        W36618  12.774  11.481   0.236 -0.1137  0.0119  0.0252
20545W        W36619  16.886   1.727   6.621 -0.0801  0.1324  0.0361
20546W        W36620   7.699   0.201  11.255 -0.1557  0.2118 -0.0738
20547W        W36621  15.107  15.834   2.879 -0.0587 -0.1684  0.1122
20548W        W36622  13.288  14.912  13.908 -0.3131  0.1083 -0.0628
20549W        W36623   3.309  17.173   2.213  0.1631 -0.3263  0.1323
20550W        W36624  10.215  12.329   4.018 -0.2088 -0.1854  0.0070
20551W        W36625   4.104   7.776  12.113  0.2510 -0.0810  0.2790
20552W        W36626  14.111  12.279  10.691 -0.3219 -0.0378  0.4537
20553W        W36627  15.732  16.437  16.311 -0.0117  0.2232  0.1504
20554W        W36628  16.138   5.564   3.019 -0.2163  0.2206  0.0456
20555W        W36629  13.694   1.474   5.888  0.3136  0.1527  0.0266
20556W        W36630   2.514  15.279  15.952  0.0745  0.0962  0.0782
20557W        W36631  13.141  15.277   4.350  0.2916  0.0886  0.4186
20558W        W36632  10.965  11.754   2.406 -0.0647  0.3320  0.1013
20559W        W36633  12.275   1.151   3.162  0.2538 -0.0828 -0.2216
20560W        W36634   2.193  10.872  14.939 -0.1150  0.0084 -0.0919
20561W        W36635   9.401   4.275   3.697 -0.2579  0.1151  0.0122
20562W        W36636  10.141   5.246   3.491 -0.2000  0.0383  0.0704
20563W        W36637  14.511   7.462   2.697  0.0517 -0.0605  0.1057
20564W        W36638  15.036  15.421  13.272  0.3275 -0.0809  0.2674
20565W        W36639   9.658   9.722  12.712 -0.0425  0.1261  0.3078
20566W        W36640   5.918  14.336   4.691  0.1467 -0.1383 -0.1929
20567W        W36641   3.707   6.300   0.432 -0.0437  0.0401 -0.0150
20568W        W36642   6.532  15.921   5.387  0.0494  0.1165  0.0152
20569W        W36643  17.035  14.337  14.141  0.0009 -0.3235  0.1624
20570W        W36644   5.359  12.851   0.787 -0.0088  0.2535 -0.1477
20571W        W36645   8.599   8.705  14.583  0.2826  0.1051  0.0043
20572W        W36646  15.873   3.144  15.326  0.0369 -0.1361  0.3249
20573W        W36647   0.449  15.387   5.580  0.1966  0.0470 -0.1836
20574W        W36648  15.804   5.651   3.970 -0.0845 -0.0902  0.0121
20575W        W36649  10.937  17.204   2.405 -0.0475  0.1742  0.0922
20576W        W36650  12.589  10.190  16.277 -0.0613  0.0252  0.1075
20577W        W36651   4.483  14.089  13.658 -0.0349  0.2664 -0.2796
20578W        W36652  14.070   1.311  15.544 -0.2771  0.1450 -0.1570
20579W        W36653   9.956  11.862  12.980 -0.2076 -0.1677 -0.2116
20580W        W36654  14.031   9.849   5.564  0.2461 -0.1105  0.1766
20581W        W36655   0.855  16.964   0.494 -0.1960 -0.0699  0.3221
20582W        W36656  11.246  10.176   1.104 -0.0971 -0.3554  0.2247
20583W        W36657   5.410   0.025  14.200 -0.1996  0.2634 -0.0152
20584W        W36658   8.185   8.925   0.470  0.4988 -0.0203 -0.1287
20585W        W36659   2.052   9.354  11.569  0.1099 -0.1088 -0.0714
20586W        W36660  10.838   7.320  14.280  0.3866  0.2038  0.2575
20587W        W36661   9.836   8.947   6.006  0.3629 -0.0605 -0.3091
20588W        W36662   0.694  13.465  15.298 -0.2560 -0.2890 -0.1687
20589W        W36663   7.594  10.865   4.347 -0.2055  0.2457  0.1219
20590W        W36664   0.649   3.014  12.735  0.0302  0.1004 -0.2823
20591W        W36665   0.566   0.746  13.485  0.2562 -0.0309 -0.4106
20592W        W36666   1.066  16.384  14.017  0.0556 -0.0163 -0.2651
20593W        W36667  11.451   3.310   0.576 -0.0507  0.1101 -0.0903
20594W        W36668  12.221  17.087  12.472 -0.1155 -0.1248 -0.1349
20595W        W36669  15.682   7.680   4.653 -0.0352  0.2144 -0.0049
20596W        W36670  17.209  10.845  11.856  0.6845 -0.2112  0.0529
20597W        W36671  10.781  13.221  11.924 -0.1224 -0.1132  0.1079
20598W        W36672  12.253  16.867  15.153 -0.0944 -0.1244 -0.0697
20599W        W36673  11.864   2.756   1.974  0.1001  0.4420  0.0220
20600W        W36674   2.050   1.302  16.041  0.0240 -0.1983 -0.4041
20601W        W36675   3.357  12.402  13.212  0.2681 -0.0648  0.1104
20602W        W36676  11.585  10.827  16.797 -0.2818  0.1192 -0.0699
20603W        W36677   8.701   4.362  12.536 -0.0539  0.0405 -0.3174
20604W        W36678   2.112   0.224   0.322 -0.0242 -0.1208 -0.1086
20605W        W36679   8.911  15.535  12.099  0.2626 -0.0916  0.0477
20606W        W36680   7.491   5.262   0.010 -0.0387  0.0431 -0.0642
20607W        W36681  12.140  16.253  15.715 -0.1161 -0.1282  0.1965
20608W        W36682  16.737   1.846  13.819 -0.3465  0.1455  0.2022
20609W        W36683  12.024   1.731   5.162  0.3790  0.3039  0.1344
20610W        W36684  15.306   0.438   2.183 -0.0349  0.1591 -0.1980
20611W        W36685   0.178   7.880   4.356 -0.1961 -0.0217 -0.0921
20612W        W36686   1.481   8.515  14.365  0.0477 -0.5478  0.3233
20613W        W36687  12.431  12.401  15.788 -0.1090  0.0720  0.4223
20614W        W36688  14.988  11.324   4.126  0.1156  0.2062  0.1956
20615W        W36689  14.411   9.789  14.304  0.2038  0.5186 -0.1597
20616W        W36690  12.987   6.756   0.034 -0.2200 -0.1056 -0.1178
20617W        W36691   3.425   0.989  13.573 -0.1827 -0.2229  0.1974
20618W        W36692   9.143   9.819   0.238 -0.0906  0.2109  0.0990
20619W        W36693   9.603   4.968   2.703  0.1886  0.0946 -0.3297
20620W        W36694   2.014   8.624  12.924  0.0721 -0.0245  0.3771
20621W        W36695  12.642   8.162   4.346 -0.1916 -0.4036  0.0157
20622W        W36696  11.942   6.021  13.886 -0.0640 -0.2936 -0.2328
20623W        W36697  16.541   5.883   4.418  0.0490  0.0026 -0.1146
20624W        W36698   7.235   6.100  12.270 -0.1310  0.1333  0.1965
20625W        W36699  10.345  15.645   1.705 -0.1063  0.0476  0.2846
20626W        W36700   1.033  10.633  12.041 -0.1465  0.1166 -0.0141
20627W        W36701  14.057   7.606   3.917 -0.1149  0.0732  0.2036
20628W        W36702   6.002   9.427   4.385 -0.3854 -0.0618  0.2794
20629W        W36703  13.916   5.605  16.296 -0.2196 -0.3295 -0.2576
20630W        W36704  11.146  14.707   0.906  0.1261  0.1897 -0.2564
20631W        W36705   4.298   2.794  16.290 -0.0471 -0.0921  0.0460
20632W        W36706   1.553   4.614  16.066 -0.1899 -0.2813 -0.0573
20633W        W36707  11.837   8.779  13.878 -0.2754 -0.0692 -0.0439
20634W        W36708   0.098   0.495  15.135 -0.1234 -0.0856 -0.0416
20635W        W36709  11.481  10.484   5.719  0.2425 -0.0963 -0.4881
20636W        W36710  11.639  14.988  14.879 -0.0295 -0.0321 -0.3081
20637W        W36711   4.267   9.798   5.687 -0.0384  0.0579  0.2217
20638W        W36712  10.548   7.368  12.160  0.1409 -0.0939  0.0265
20639W        W36713   6.226   4.874  11.395  0.0517  0.1904 -0.2534
20640W        W36714   7.105   3.263  14.324 -0.0767  0.0446 -0.0204
20641W        W36715   3.124   7.300  16.847  0.2489 -0.2048 -0.1826
20642W        W36716  11.118   2.208  15.393  0.0408  0.0436 -0.1720
20643W        W36717   5.063  11.482  16.442 -0.0648  0.1913 -0.0682
20644W        W36718   5.238  13.757   2.251  0.0671  0.0903 -0.0012
20645W        W36719  12.603  14.059  12.930 -0.4706 -0.0335  0.2326
20646W        W36720   6.059   1.098  13.264 -0.2224  0.1620  0.1291
20647W        W36721  10.013   3.669   2.726 -0.0516 -0.0617  0.1219
20648W        W36722   2.147  15.105   1.308 -0.1113 -0.1559 -0.2512
20649W        W36723   4.845  17.274   1.528 -0.3970 -0.0879  0.1626
20650W        W36724   7.566  15.702   2.083  0.1618 -0.2199 -0.2498
20651W        W36725   5.631  12.818  12.801 -0.2641  0.3563 -0.1683
20652W        W36726  12.724  10.924   1.173 -0.2362 -0.1316  0.0446
20653W        W36727  14.538  10.767  15.802  0.0379 -0.4840 -0.0296
20654W        W36728   4.626   2.843   2.901 -0.1763  0.2143 -0.1091
20655W        W36729   5.246   1.713   1.758 -0.0233 -0.1145 -0.0094
20656W        W36730  12.284  12.500  12.087 -0.0437  0.1094  0.0531
20657W        W36731  17.165  15.152  13.303 -0.2049 -0.0355 -0.1969
20658W        W36732  17.677  10.117  11.994  0.1180 -0.0375 -0.2109
20659W        W36733   1.485   5.398  13.993 -0.2018 -0.0021  0.0311
20660W        W36734  11.825   8.668   2.152  0.1046 -0.0665  0.0080
20661W        W36735   9.258   7.225  14.266 -0.2113 -0.1419 -0.0932
20662W        W36736  15.154   5.507  16.867  0.0661  0.2449 -0.0121
20663W        W36737   9.616  15.252   5.849  0.1597  0.2649 -0.0444
20664W        W36738   6.042   4.305  13.163 -0.0821  0.0445  0.0907
20665W        W36739   1.952  12.652   3.853  0.1941 -0.2727  0.0556
20666W        W36740   8.503   1.522   2.553 -0.0574  0.2273  0.0989
20667W        W36741   8.384   8.999   0.989 -0.0010  0.3177  0.3097
20668W        W36742   8.001   6.715  12.638  0.1921 -0.0473  0.0593
20669W        W36743  13.411  17.439  15.114  0.0138 -0.0439 -0.2540
20670W        W36744   0.029  15.563   0.931 -0.1248  0.0485 -0.2383
20671W        W36745   1.061   0.786  12.602  0.1077  0.3622 -0.1506
20672W        W36746  15.742   5.256   2.330  0.0458  0.2325  0.0556
20673W        W36747  14.946  10.646   5.389 -0.3194  0.2061  0.2187
20674W        W36748   4.268   8.169   4.205 -0.3933  0.0724 -0.2367
20675W        W36749   6.523   7.985  15.163 -0.1067  0.0918  0.3956
20676W        W36750  13.841  14.533   4.533 -0.1941  0.2472 -0.2175
20677W        W36751   3.210  15.091   3.753  0.2891  0.0109  0.0189
20678W        W36752  14.062  17.787   2.667  0.2230 -0.1271  0.0242
20679W        W36753   3.055   9.770  15.851 -0.3077 -0.0056  0.2584
20680W        W36754  10.072   5.894  12.240  0.0431 -0.0354  0.1133
20681W        W36755   0.620   0.222   4.615  0.1031 -0.3668  0.0086
20682W        W36756  16.969   7.415  15.563  0.1594 -0.1322 -0.1750
20683W        W36757   7.200   6.455   5.141 -0.2261 -0.0681 -0.0238
20684W        W36758   3.547   6.278  14.618  0.2066 -0.0171  0.0872
20685W        W36759  15.096  13.189   2.509 -0.1293  0.0303 -0.1266
20686W        W36760   2.237   8.491   4.649 -0.0388  0.0408  0.0763
20687W        W36761  11.458   7.901   1.492 -0.0884 -0.0244  0.0099
20688W        W36762   8.949  16.211  16.058 -0.0368  0.0522 -0.1319
20689W        W36763  11.711  12.303   1.512 -0.0771 -0.2258 -0.0626
20690W        W36764  17.513   2.899   1.878 -0.2162 -0.0725  0.1141
20691W        W36765   0.664  15.830   4.812  0.1651  0.3142  0.0895
20692W        W36766  14.566  14.142   2.460  0.0657  0.3369 -0.0779
20693W        W36767   7.521  11.213   0.193  0.1291 -0.3823 -0.3430
20694W        W36768   0.823  12.356   2.547 -0.2572 -0.3680 -0.0113
20695W        W36769   8.111   5.277   1.741 -0.0664 -0.0934  0.2325
20696W        W36770  10.627   6.273   2.487 -0.2575 -0.1149 -0.1120
20697W        W36771   1.590  12.826  16.090 -0.0197  0.1371 -0.1000
20698W        W36772  12.004  15.390   3.372 -0.3590 -0.1376 -0.1638
20699W        W36773   5.713  15.395  15.980  0.0386  0.3530  0.1248
20700W        W36774   0.273   4.775  12.137 -0.0013 -0.0197  0.1845
20701W        W36775   2.428   6.059  13.995  0.1829 -0.5354  0.0342
20702W        W36776  14.635   4.461   2.635  0.2712 -0.1456  0.1899
20703W        W36777   5.779  11.462   1.310 -0.1048 -0.0068 -0.5749
20704W        W36778   6.470  15.567  13.168 -0.2985  0.1058  0.0373
20705W        W36779   5.860   7.674   4.726 -0.0053  0.0170  0.2000
20706W        W36780  10.150   7.802   1.767  0.0564  0.3791  0.1978
20707W        W36781   1.939   6.341  12.623 -0.4485  0.2111 -0.1349
20708W        W36782   8.154  15.611   3.848  0.0922  0.0409  0.1766
20709W        W36783   1.714  14.215   4.600 -0.2451 -0.3091  0.0240
20710W        W36784  11.009  12.542  14.680 -0.3112 -0.1759  0.0599
20711W        W36785  12.856  14.512   1.131  0.2189  0.1749  0.0978
20712W        W36786  10.176   9.273  13.266  0.2348  0.0250  0.0292
20713W        W36787   4.214   9.016  15.616 -0.0070  0.1784  0.1534
20714W        W36788   0.964   9.441   1.229 -0.2940  0.3268 -0.0030
20715W        W36789   3.181  10.506  14.429 -0.1210 -0.4050  0.4129
20716W        W36790   8.578   7.481   5.066 -0.0171  0.1292  0.0759
20717W        W36791   2.303   6.948  12.116 -0.0266  0.2820 -0.0571
20718W        W36792   9.520   3.523   2.554  0.0893  0.1052  0.1607
20719W        W36793  16.514  13.609  12.609 -0.0144 -0.2737  0.2293
20720W        W36794   2.665   6.412  14.416  0.1475 -0.3295  0.1413
20721W        W36795  11.372   5.560  13.026 -0.0265 -0.2052 -0.0695
20722W        W36796   3.409  15.383  13.234  0.0494 -0.2852  0.2609
20723W        W36797  10.543   2.919  12.174 -0.2234 -0.0269  0.0736
20724W        W36798  14.742   9.030   3.627 -0.2444  0.0194 -0.1452
20725W        W36799   6.989   8.485  14.587 -0.0618 -0.2006 -0.3072
20726W        W36800   7.891   6.922   5.511 -0.1035 -0.1059  0.0192
20727W        W36801   1.705   7.759   1.245 -0.0239 -0.0932  0.1290
20728W        W36802   4.233  13.846  15.976  0.1089  0.3228  0.2498
20729W        W36803  13.441  12.669  16.683 -0.2099 -0.0512 -0.2410
20730W        W36804   4.714   7.646  12.957  0.1669  0.3918  0.1955
20731W        W36805   9.512   8.661   4.082 -0.1194  0.3899  0.0886
20732W        W36806   2.708  10.432   3.284 -0.1200  0.0791  0.1365
20733W        W36807   6.110   4.600   0.736  0.2012 -0.3349  0.0087
20734W        W36808  13.675   4.219  15.476  0.0731 -0.1326 -0.0827
20735W        W36809   6.159   8.355  12.072  0.3762  0.3171 -0.3351
20736W        W36810   4.697  13.757  16.273 -0.0616  0.1137 -0.0040
20737W        W36811   0.249  11.617  13.698 -0.2270 -0.0548 -0.0924
20738W        W36812   7.743  12.165  15.913 -0.1652  0.0960  0.5053
20739W        W36813   5.647   7.839  14.663  0.3711 -0.1461 -0.4241
20740W        W36814  12.001  15.652   4.811  0.0921 -0.0131  0.1713
20741W        W36815  15.164  12.987  16.731 -0.2279 -0.2041 -0.2683
20742W        W36816  14.772   1.747   3.634 -0.0185 -0.0069 -0.0446
20743W        W36817   5.078  13.971  11.684 -0.1550  0.1364 -0.1845
20744W        W36818   0.143  15.472  15.751 -0.0444  0.1981 -0.1744
20745W        W36819   5.987  16.810   3.485 -0.1050  0.0634  0.0646
20746W        W36820  16.844  14.552  16.637  0.1031 -0.2128  0.3843
20747W        W36821  10.506  11.261  14.473  0.2197  0.1026 -0.1843
20748W        W36822   7.250   3.607  15.994 -0.1186 -0.1081 -0.0991
20749W        W36823  15.964   2.384  14.088  0.2270 -0.0776 -0.1091
20750W        W36824   8.516  16.380  15.387  0.1967 -0.0641 -0.0699
20751W        W36825   8.389   5.519   0.513  0.2772 -0.2047  0.0929
20752W        W36826  14.466   1.038   6.125  0.0886 -0.3222 -0.2155
20753W        W36827  11.782   4.551  16.838  0.0310  0.0252  0.0923
20754W        W36828  17.032   1.685  13.403  0.1680  0.1520 -0.1992
20755W        W36829   7.353   4.785   2.347  0.0391  0.1060  0.0440
20756W        W36830   8.259  11.656  14.893 -0.1853 -0.0472 -0.2850
20757W        W36831   1.025   5.947  16.313 -0.1180  0.0764 -0.0981
20758W        W36832   1.800  13.133  15.801 -0.1963 -0.2037  0.1657
20759W        W36833   4.388   1.510   2.979  0.3044 -0.0760  0.0533
20760W        W36834   8.921  16.279   4.938  0.0613 -0.1212  0.0669
20761W        W36835  13.096   0.474  14.247 -0.3224  0.0433  0.1446
20762W        W36836  12.119  10.225  16.198  0.0666 -0.0605 -0.2719
20763W        W36837  13.263   3.884   3.249  0.3158  0.0896 -0.2231
20764W        W36838  16.690  11.491   6.394 -0.0388  0.0399  0.0985
20765W        W36839   3.586   3.568   5.585  0.1161  0.2245  0.4394
20766W        W36840  11.962   4.594   1.172  0.1053  0.2864 -0.0721
20767W        W36841   1.875   9.331   3.767 -0.1140  0.0786 -0.0007
20768W        W36842  16.726   6.837   6.168 -0.0046 -0.0975  0.0686
20769W        W36843   6.110   8.408   4.537  0.1724 -0.4058 -0.0209
20770W        W36844  16.275   2.409  16.360  0.0985  0.2233 -0.1195
20771W        W36845   9.862  14.331  16.209 -0.0336  0.0616  0.1773
20772W        W36846   1.745   5.990   0.416  0.1122 -0.2125  0.1139
20773W        W36847  15.386  11.800  15.111 -0.0313  0.1027 -0.0273
20774W        W36848   1.600   6.295  13.541 -0.1012 -0.2309 -0.1067
20775W        W36849  13.801   0.498  13.042  0.1885  0.0969 -0.0855
20776W        W36850   3.009   2.941  13.321 -0.1432 -0.0416 -0.0512
20777W        W36851   2.239   6.032  12.341 -0.0175 -0.2859 -0.0793
20778W        W36852   9.829  11.908  14.229 -0.0460  0.1290  0.4429
20779W        W36853  17.073   3.231   4.643 -0.0792  0.2493  0.1240
20780W        W36854   7.978   7.954  15.851  0.0338  0.2792 -0.1110
20781W        W36855   7.164   7.646  12.105  0.2286 -0.0346  0.0940
20782W        W36856   6.669  12.763   0.833  0.0510 -0.0061 -0.1555
20783W        W36857  11.294  13.004   4.392 -0.1560 -0.0199 -0.0802
20784W        W36858   7.558  15.437   4.142  0.0056  0.4141  0.0184
20785W        W36859   0.267   2.578  16.595 -0.0335  0.0863 -0.1051
20786W        W36860  10.029   5.679   3.884 -0.0782  0.1394  0.2623
20787W        W36861  16.961   6.890   0.285  0.4352  0.0051  0.0484
20788W        W36862  11.775   7.459   5.383 -0.2538  0.0336  0.1518
20789W        W36863   9.398  15.894  12.904  0.2297 -0.0645  0.0151
20790W        W36864   4.198   9.778  12.248  0.0694  0.3119 -0.0902
20791W        W36865   4.310   3.501   2.359  0.0741 -0.1222 -0.1163
20792W        W36866   7.183   1.107  15.697  0.2058  0.0878  0.0246
20793W        W36867   6.662   6.232   3.001 -0.2695  0.0233  0.0725
20794W        W36868   1.928   9.441   2.881  0.3851 -0.4397 -0.2477
20795W        W36869   5.949  15.129   1.597 -0.1923 -0.0801 -0.0474
20796W        W36870  16.565  15.394  12.193  0.4258  0.3559 -0.2101
20797W        W36871  16.507  13.337   2.416 -0.3281 -0.1566 -0.1507
20798W        W36872   1.011   6.674   0.577  0.2754  0.0230 -0.1879
20799W        W36873   8.527   7.775   2.448 -0.1716  0.1826  0.1661
20800W        W36874   5.714   8.739   5.572 -0.1112  0.0390  0.2609
20801W        W36875  14.162  13.519   3.349  0.0427 -0.0420  0.0626
20802W        W36876   1.931  11.205  16.295  0.0558  0.0796  0.2091
20803W        W36877  10.211  16.124   5.000 -0.1611  0.0392 -0.0950
20804W        W36878   4.309   8.786   4.616  0.4289 -0.3188  0.1205
20805W        W36879  15.784   3.267  12.309  0.1303 -0.2681  0.2316
20806W        W36880   2.567  13.265  13.401 -0.2784  0.2788 -0.1253
20807W        W36881   8.033   2.746   3.110  0.1313 -0.1447  0.1010
20808W        W36882   9.870   8.278  16.965  0.0844  0.0340  0.1897
20809W        W36883  11.612   3.533   2.048 -0.0137  0.2852  0.3327
20810W        W36884  11.218  13.264   5.607  0.2815 -0.4237 -0.0496
20811W        W36885  12.783   6.095   1.286  0.2108  0.0951  0.1203
20812W        W36886   8.807  17.775  16.012  0.0497 -0.3257  0.0198
20813W        W36887   9.618   4.772  13.136 -0.1457  0.0769 -0.0299
20814W        W36888  13.076  16.517  13.902 -0.1592  0.1616 -0.0218
20815W        W36889  12.112  16.552  11.725  0.0657 -0.1723  0.3365
20816W        W36890  10.834   8.925   3.427 -0.0727  0.1054  0.0310
20817W        W36891   4.924  10.779  13.860  0.0207  0.2022  0.0544
20818W        W36892   0.552   1.879   3.907 -0.1708  0.3166  0.3210
20819W        W36893  13.804   7.109   5.177 -0.1227  0.0523  0.0316
20820W        W36894   5.406   2.464  15.455  0.1698  0.2277  0.0522
20821W        W36895   6.389   4.148  11.898 -0.3599 -0.2608  0.1708
20822W        W36896  16.370  11.665  16.165 -0.4549 -0.2560 -0.1266
20823W        W36897  15.900  13.277  10.901 -0.1238  0.0785 -0.3041
20824W        W36898   9.461  14.690  12.177 -0.0410 -0.0677  0.1014
20825W        W36899   7.556   6.728   1.305 -0.0308  0.0248 -0.0916
20826W        W36900   9.498  13.218  14.368 -0.1230  0.0426  0.4108
20827W        W36901   4.381   9.142   2.476 -0.1044 -0.0345 -0.0617
20828W        W36902  12.712  16.250   1.618 -0.0843  0.2003 -0.1372
20829W        W36903   6.639   1.855  13.015 -0.0047  0.2831 -0.3256
20830W        W36904  12.879  10.367   5.241  0.0108 -0.2289 -0.3001
20831W        W36905   0.555   9.251   0.430  0.0313  0.0640 -0.0570
20832W        W36906   4.838  13.333   2.570 -0.0794 -0.1247 -0.0063
20833W        W36907  16.644  16.126  14.363  0.2723  0.1889  0.0428
20834W        W36908  16.019   9.127   2.837  0.2344 -0.0242  0.1852
20835W        W36909  14.844  14.030   3.839 -0.1049 -0.1231  0.2220
20836W        W36910  13.505   2.992   0.744  0.2032  0.0124 -0.1075
20837W        W36911  10.490  14.345   2.000  0.0679 -0.3056  0.2285
20838W        W36912   0.002   7.928   3.440 -0.0695 -0.1555 -0.1997
20839W        W36913   8.500  11.254   1.002  0.3933  0.0874  0.2308
20840W        W36914   5.294   0.895  13.854  0.1038 -0.1902 -0.1230
20841W        W36915   0.338   9.878   5.045  0.2725  0.1221 -0.0593
20842W        W36916  12.772   2.775   3.680 -0.5248  0.2877 -0.2197
20843W        W36917   7.559  15.980  14.971 -0.0178  0.0281 -0.1196
20844W        W36918   4.378   9.932   0.516  0.2855 -0.1492 -0.0569
20845W        W36919   4.606  16.377  16.769  0.0263 -0.1493 -0.0115
20846W        W36920   0.905  10.181  16.023  0.0970  0.1608  0.3758
20847W        W36921  11.396  13.677   5.810 -0.0168 -0.1009  0.1270
20848W        W36922   3.404  13.299   3.811  0.3995 -0.0222  0.0048
20849W        W36923   1.702  17.484   2.315 -0.0863 -0.0312 -0.1119
20850W        W36924   3.661   4.832   2.279 -0.0065  0.2290 -0.0843
20851W        W36925   9.901   3.385   4.713 -0.2669 -0.1641  0.2074
20852W        W36926  11.319  10.284  16.590 -0.2712 -0.2503  0.1905
20853W        W36927   3.893   1.164   0.108 -0.2585  0.0898  0.1615
20854W        W36928   9.248   5.329  12.552  0.0263 -0.0777 -0.0301
20855W        W36929  10.650  11.933  16.368  0.2176 -0.0994 -0.0566
20856W        W36930  15.197   0.644   1.166 -0.1619  0.0238  0.3726
20857W        W36931   4.354   1.809   3.490 -0.3499  0.0246 -0.3024
20858W        W36932  11.953   9.524   3.317  0.0567  0.1360  0.5080
20859W        W36933  12.102  10.650  14.204  0.0892 -0.0034 -0.2327
20860W        W36934   6.803  16.312  12.749 -0.3053 -0.2840  0.2086
20861W        W36935   7.451  15.965   4.146  0.0819 -0.1036 -0.4745
20862W        W36936  14.760   2.273   3.982 -0.3022  0.0576 -0.0710
20863W        W36937   1.211   3.076   0.886 -0.0548 -0.0018 -0.1781
20864W        W36938  14.372   3.042  13.858  0.1454 -0.0729  0.2139
20865W        W36939  10.704   0.115  16.554  0.1422  0.0076 -0.4920
20866W        W36940   2.075  17.457  14.865 -0.4364 -0.1703  0.0850
20867W        W36941  17.597  14.906   2.027  0.3725  0.2502 -0.6022
20868W        W36942   6.929   3.811   5.558 -0.0097  0.0430  0.0784
20869W        W36943  13.099   8.917  15.706 -0.2558 -0.0744 -0.0168
20870W        W36944  17.827  16.858   1.542  0.4690  0.1356  0.1552
20871W        W36945   3.136  10.856  12.923  0.1519  0.0505 -0.2548
20872W        W36946   4.291   0.052   5.389  0.0150 -0.0166 -0.1633
20873W        W36947   0.045   5.575   5.832 -0.0328 -0.1759 -0.0213
20874W        W36948  16.079   4.714  16.228  0.0414 -0.2043  0.2682
20875W        W36949   3.551   9.146   0.335  0.0418  0.2276  0.0418
20876W        W36950   6.955  11.548  12.976 -0.1038 -0.1169 -0.2167
20877W        W36951  11.963  17.502   0.511 -0.2215 -0.0268  0.0504
20878W        W36952  11.287  12.809   1.787 -0.2629  0.0523 -0.0483
20879W        W36953   3.351  14.330  13.501 -0.1681  0.0601  0.0282
20880W        W36954  16.548  12.231   3.917 -0.0139 -0.1877 -0.1500
20881W        W36955   0.033   7.407   3.229 -0.1405  0.1519 -0.3531
20882W        W36956   0.135   0.411   2.157 -0.0654 -0.0882 -0.1687
20883W        W36957   0.003  17.619  11.639  0.2163 -0.0624 -0.1648
20884W        W36958   8.754   7.536   1.327  0.1219 -0.0537  0.0113
20885W        W36959   2.352   1.335  13.317  0.0792  0.0617 -0.1793
20886W        W36960  10.223   5.081   6.172 -0.1747 -0.0828  0.2185
20887W        W36961  11.199   7.681   2.945 -0.0270  0.1783  0.4547
20888W        W36962   3.553  12.483  16.719  0.0065  0.1808 -0.4919
20889W        W36963   0.880   4.368   3.911  0.1007  0.2508 -0.1066
20890W        W36964   1.633  14.531   0.209  0.0120 -0.1375  0.1362
20891W        W36965  13.310  10.785   0.674  0.0471  0.0766  0.1643
20892W        W36966   3.466  14.297  16.850  0.0042 -0.2577 -0.0698
20893W        W36967  12.070   9.669   6.061  0.2060  0.2627  0.3292
20894W        W36968   9.911   0.307   3.503  0.1910 -0.0357  0.1079
20895W        W36969   9.865   0.957  11.328 -0.2004  0.3203  0.2901
20896W        W36970   1.400   2.842  11.797 -0.1232  0.1187 -0.0774
20897W        W36971   9.179   6.279   0.381 -0.3268 -0.0913  0.1012
20898W        W36972   8.669  13.666  10.556  0.0586  0.3236  0.3595
20899W        W36973   9.470  13.839   4.650  0.0569 -0.2904  0.0089
20900W        W36974  12.633   4.544  12.319 -0.3854  0.0844  0.1870
20901W        W36975  16.772   7.420  15.086  0.0134 -0.0714  0.1246
20902W        W36976   7.541   0.282   0.888  0.1058 -0.2555  0.2111
20903W        W36977  11.935  15.747   6.325 -0.3384 -0.2217 -0.3535
20904W        W36978  11.759  17.433   4.846  0.2380  0.0729  0.2693
20905W        W36979  12.904  12.747  13.908 -0.0739  0.1346 -0.2920
20906W        W36980   2.661   6.164   5.846 -0.0119  0.3995  0.1117
20907W        W36981   1.447   1.514  13.589 -0.0839  0.2357  0.3641
20908W        W36982   0.457   2.338  15.676  0.2260 -0.0196 -0.0919
20909W        W36983  14.905   7.161  13.000  0.1570 -0.1317 -0.2729
20910W        W36984   4.408  16.232  11.697 -0.0774  0.0027 -0.0014
20911W        W36985   5.418   1.581  16.549  0.0249 -0.1840 -0.1960
20912W        W36986  15.185   4.466  15.095  0.2139 -0.0595 -0.0367
20913W        W36987   4.094  17.630   2.488  0.2185 -0.2423  0.2544
20914W        W36988  14.344  14.758  12.972  0.1880  0.0356  0.3427
20915W        W36989   6.444   2.175   5.099 -0.1387  0.1517  0.1329
20916W        W36990  15.942  15.927   4.511 -0.1187  0.2042  0.2209
20917W        W36991  12.491   6.764   2.823  0.0145 -0.0490 -0.2280
20918W        W36992   6.945   1.831   0.801  0.0328 -0.0795 -0.2402
20919W        W36993  12.356   6.498  11.640 -0.1730 -0.1346 -0.2888
20920W        W36994   4.287  15.777   5.379 -0.3087  0.1899  0.0235
20921W        W36995   6.101  12.791  16.583  0.4045 -0.0997  0.0854
20922W        W36996   2.098   2.716   3.430  0.0708  0.0435  0.2254
20923W        W36997   5.473   9.335   3.537 -0.1830 -0.0663  0.1805
20924W        W36998   1.255   9.100   2.133 -0.0091  0.0775 -0.0122
20925W        W36999   8.927   2.694   0.019  0.0499 -0.1578  0.2195
20926W        W37000   6.748  10.449   2.103  0.4425 -0.1315  0.0188
20927W        W37001  16.895   7.887  12.465 -0.0492 -0.0346 -0.3100
20928W        W37002   6.597   5.826   6.041 -0.0719  0.0609 -0.2970
20929W        W37003  10.946  13.552   5.321 -0.0503 -0.2658 -0.1027
20930W        W37004   7.114   6.060   0.348 -0.0257 -0.1071 -0.2489
20931W        W37005  15.995   7.592   2.880 -0.1327  0.1384 -0.2674
20932W        W37006   3.432  16.900   2.717  0.2580 -0.0206  0.0740
20933W        W37007  12.750   3.986   3.229  0.0946 -0.1193 -0.1085
20934W        W37008   5.042   2.071   2.160  0.1040  0.0091 -0.3336
20935W        W37009   0.482   3.621   6.090  0.0859 -0.1923 -0.1608
20936W        W37010   4.220   7.595  13.583  0.0078  0.0344 -0.0237
20937W        W37011   3.148  15.978   4.796  0.2319  0.2248 -0.0367
20938W        W37012  14.580  15.474  15.322  0.1295  0.0564  0.2477
20939W        W37013  10.676  16.419   2.198  0.2312 -0.1993  0.0050
20940W        W37014   2.530   7.454   3.473 -0.1119  0.1434  0.1134
20941W        W37015  14.610   3.524  14.141  0.0392  0.1159  0.1503
20942W        W37016   2.702  14.302   4.618  0.0499  0.0872 -0.0472
20943W        W37017   4.859  16.911   5.480  0.0537  0.3733  0.1032
20944W        W37018   9.381   9.891   2.078 -0.2461  0.2785  0.3895
20945W        W37019  11.815   6.092   6.398 -0.3377  0.0302  0.0515
20946W        W37020   0.028  14.392   0.239  0.0238  0.0279 -0.0419
20947W        W37021  14.612   0.431  16.539  0.3379  0.1254 -0.2850
20948W        W37022  15.474  14.610   5.971  0.1544  0.2252 -0.0889
20949W        W37023  15.043  17.251  14.022 -0.3731  0.1814  0.0478
20950W        W37024  10.196  10.697  15.894  0.3114  0.0532 -0.3087
20951W        W37025   6.766   4.027   0.296  0.1001 -0.1379  0.0622
20952W        W37026  14.666  11.553   3.822  0.2855  0.0819  0.0220
20953W        W37027  14.478  10.158   2.109 -0.0120 -0.1212 -0.0825
20954W        W37028  16.323   9.278   2.477 -0.0022 -0.1904 -0.0675
20955W        W37029  10.144   5.389   0.008  0.3399 -0.0898 -0.3118
20956W        W37030   9.162   3.725   3.070 -0.0314  0.0494 -0.1874
20957W        W37031  10.959   9.900   3.205  0.0552 -0.3931  0.0198
20958W        W37032   8.641  16.120   5.736  0.0441 -0.1898 -0.0616
20959W        W37033  13.031   5.844   6.788 -0.2355  0.0319  0.0116
20960W        W37034   0.653  13.191   2.300  0.0962 -0.0583 -0.0360
20961W        W37035   4.895   3.612  13.009  0.0655 -0.1385  0.1510
20962W        W37036  14.790  17.458   0.322 -0.0260 -0.0183  0.3686
20963W        W37037  12.742   2.737   6.180  0.0488 -0.1564 -0.1175
20964W        W37038  12.038   0.655  13.367 -0.0200  0.2543 -0.0282
20965W        W37039   1.710  13.259  16.333  0.1434  0.3081  0.1437
20966W        W37040   2.798   0.761   5.537 -0.0058  0.1805 -0.4434
20967W        W37041  15.357  16.720  14.006  0.1068  0.1874  0.2502
20968W        W37042  13.670  16.357   0.258  0.1641  0.0587 -0.1589
20969W        W37043   9.643   1.458  12.667  0.1415  0.1134  0.1197
20970W        W37044  17.712  17.588  13.137  0.2208 -0.0562  0.1955
20971W        W37045   2.032   5.360   5.573  0.5918 -0.2788 -0.1486
20972W        W37046   9.805  10.659  14.351 -0.1029 -0.0582 -0.2662
20973W        W37047  11.257   7.431  16.724 -0.0881 -0.2164  0.1627
20974W        W37048  10.697  11.745  15.253 -0.3480 -0.0278  0.1396
20975W        W37049   8.532   2.647  14.404  0.1448 -0.0647  0.2752
20976W        W37050  10.678  15.454   4.969  0.1154  0.0651  0.0835
20977W        W37051   9.930   0.782  16.840  0.1173  0.0633 -0.1506
20978W        W37052  12.009  16.422   4.253  0.3368  0.1332  0.0109
20979W        W37053   3.043  10.533   4.077 -0.2916  0.3128  0.1980
20980W        W37054   1.164  15.304  16.022  0.0487 -0.1248  0.0167
20981W        W37055   9.350  15.873   5.033  0.1950 -0.3067 -0.2467
20982W        W37056   3.534   1.923  13.486  0.2470 -0.0461  0.0643
20983W        W37057  13.761   1.962  14.051  0.0812 -0.1344 -0.0806
20984W        W37058  17.670  11.485   0.529  0.2225 -0.1725  0.0455
20985W        W37059   3.846   8.462  15.893  0.1169 -0.0865  0.0156
20986W        W37060  10.781  15.521  14.929  0.0138 -0.2410 -0.1766
20987W        W37061  10.093  12.864  12.763 -0.1825 -0.4732 -0.2095
20988W        W37062   5.647  16.146  12.273 -0.1065  0.0518  0.1786
20989W        W37063  13.617   1.062  14.109 -0.0909 -0.0543  0.1111
20990W        W37064  14.499   3.062  16.187 -0.2603  0.0526 -0.1061
20991W        W37065   5.598  14.949  16.324  0.2118 -0.1447  0.1069
20992W        W37066   9.860   9.185  14.004  0.0178 -0.1845  0.1824
20993W        W37067  13.356  16.330  14.828  0.3673  0.1873 -0.0500
20994W        W37068   5.157  17.710   5.303 -0.1790  0.0228 -0.0984
20995W        W37069   6.282   1.148   5.298  0.2025 -0.0220 -0.0551
20996W        W37070  14.321  10.101   5.223 -0.0994 -0.2361 -0.2538
20997W        W37071   3.757  11.463   3.344  0.3002 -0.0724 -0.1050
20998W        W37072   6.855   5.220  11.768  0.2791  0.0834  0.0179
20999W        W37073   4.661   4.898  16.416  0.1176 -0.0924  0.1563
21000W        W37074   7.988   9.093  12.402 -0.3272 -0.1685 -0.2326
21001W        W37075   7.874  12.818  13.701  0.3282  0.3395  0.0448
21002W        W37076  12.275  11.516   0.512 -0.1838  0.2946  0.0634
21003W        W37077   3.036   6.701   5.699 -0.5086 -0.1903  0.1390
21004W        W37078  10.412  14.917   0.180 -0.1452  0.0852  0.1287
21005W        W37079  17.405   3.869  14.848 -0.0775 -0.3209 -0.0381
21006W        W37080   6.928   0.078  15.365 -0.0653  0.1372 -0.0166
21007W        W37081   7.827   8.381   4.072 -0.1220 -0.0786 -0.1305
21008W        W37082  11.763  11.281  16.888 -0.3027 -0.0048 -0.2294
21009W        W37083   1.511   2.972   5.195 -0.2612 -0.1251  0.2338
21010W        W37084  13.618   8.907  13.606  0.0276 -0.0296 -0.1561
21011W        W37085  12.719  12.166  11.878  0.2155 -0.0134 -0.4220
21012W        W37086  16.365  14.878  12.076 -0.3014 -0.1053  0.2385
21013W        W37087   6.491   2.343  13.197  0.5018  0.0299  0.2783
21014W        W37088   4.929  11.060  16.191  0.2447 -0.2178 -0.2266
21015W        W37089   2.947   1.432   3.143  0.0591  0.1633 -0.1528
21016W        W37090   3.109   5.363  15.359  0.0243 -0.0814  0.0586
21017W        W37091   3.890  11.920  13.339 -0.2927 -0.0463 -0.0669
21018W        W37092   0.130  17.291   5.411 -0.0111  0.0265 -0.2553
21019W        W37093  16.486   1.918   4.316 -0.1461  0.0001 -0.2254
21020W        W37094  10.233   8.082   5.525 -0.1334 -0.0061  0.2174
21021W        W37095  15.652  17.665   5.955 -0.0127  0.1567 -0.0061
21022W        W37096  10.559  12.366  14.491  0.1645  0.2253 -0.0229
21023W        W37097  13.288   9.247   5.148 -0.0903  0.0033  0.3365
21024W        W37098  15.574   5.336   4.868 -0.2391 -0.3752  0.0804
21025W        W37099  16.201  17.582  13.377 -0.3034 -0.0331  0.1724
21026W        W37100   9.400   7.732   5.633  0.0241  0.2283 -0.2691
21027W        W37101   8.801  10.403   3.972 -0.0589  0.0403  0.0105
21028W        W37102  12.613   2.784   5.646 -0.0552  0.1679 -0.1935
21029W        W37103  16.953   6.128  14.776  0.1204  0.1577 -0.2088
21030W        W37104  10.437   1.597   4.491 -0.1561  0.0177  0.2505
21031W        W37105   4.037  15.999  11.499  0.0017 -0.1027 -0.3386
21032W        W37106   1.746   1.092  16.906 -0.1054  0.2995  0.0226
21033W        W37107   3.837   4.504  12.017  0.1276  0.1404 -0.0846
21034W        W37108  14.055  15.270   1.278 -0.2752  0.1622  0.2588
21035W        W37109  13.912   1.167  15.056 -0.1260 -0.0431  0.0384
21036W        W37110   9.373  10.900   0.549 -0.0259 -0.0912  0.3438
21037W        W37111   6.289   5.363   5.337 -0.0236 -0.0463  0.1161
21038W        W37112  16.132  14.044   5.965  0.0035  0.1101 -0.1258
21039W        W37113   9.013   3.469  12.040  0.1218 -0.3300 -0.0550
21040W        W37114   2.538   2.667  12.696  0.1233 -0.4204  0.2047
21041W        W37115  14.402   4.343   4.461 -0.1517 -0.1057 -0.3170
21042W        W37116   1.931   7.765  12.002 -0.0356 -0.1433  0.1707
21043W        W37117   8.326   9.035   3.082 -0.2568 -0.2451  0.4129
21044W        W37118  14.936  12.049  16.695 -0.0382 -0.0414 -0.1336
21045W        W37119   9.055  14.275   3.292  0.0871 -0.3147 -0.2069
21046W        W37120  10.403  16.075   4.333 -0.1950  0.2557  0.1061
21047W        W37121   9.382   7.303   6.401  0.2206 -0.2412 -0.0363
21048W        W37122   3.809   1.091   5.713  0.4098  0.1220  0.0871
21049W        W37123  14.834   9.671   3.532 -0.0282 -0.2170 -0.0283
21050W        W37124   8.701   0.700   1.475 -0.3914 -0.2383 -0.0825
21051W        W37125   0.902  15.704  16.744 -0.0471 -0.2235  0.0469
21052W        W37126  12.660  15.771  12.468 -0.0437 -0.2367  0.4325
21053W        W37127   6.963   4.899   3.119 -0.1547  0.3221  0.1855
21054W        W37128   0.445  12.079   4.801 -0.0907  0.0460  0.1930
21055W        W37129   7.304  14.165   4.326  0.2128  0.1918 -0.0385
21056W        W37130   3.448  17.546   5.105 -0.0030 -0.1607  0.1581
21057W        W37131   1.254   3.793   0.598 -0.0399 -0.1836 -0.2491
21058W        W37132   8.482   5.804   6.373  0.0750 -0.1259 -0.1526
21059W        W37133   3.647  10.114  15.040 -0.1082  0.1236 -0.3646
21060W        W37134   2.943  15.246  13.206  0.2056 -0.0445  0.0624
21061W        W37135  10.234   7.883  13.797  0.0589 -0.2571  0.0781
21062W        W37136   8.482  16.251  15.905  0.1271 -0.2480  0.0148
21063W        W37137  11.879   8.028  12.150 -0.1085 -0.0804 -0.1891
21064W        W37138  14.543   5.630  14.956 -0.0558  0.2841  0.0927
21065W        W37139   9.350   5.988  16.907 -0.2838 -0.1744 -0.0821
21066W        W37140   0.462   6.139  12.100 -0.0012 -0.0843  0.4276
21067W        W37141   3.862   1.340  15.376 -0.1034 -0.0335 -0.0959
21068W        W37142  14.107   7.280   4.823  0.0645 -0.0855 -0.0075
21069W        W37143  15.846  11.861  14.969  0.0573 -0.0642 -0.0486
21070W        W37144   2.748  10.014   4.125  0.0481 -0.3052  0.0895
21071W        W37145  11.314  13.919  13.033  0.0715 -0.0543 -0.1216
21072W        W37146   9.359   8.340   3.722 -0.0710 -0.3285 -0.3056
21073W        W37147   0.905  15.041   0.636 -0.0288  0.1156  0.1350
21074W        W37148   8.021   8.487  11.504 -0.1241 -0.0302  0.0008
21075W        W37149  15.078   0.216   4.034 -0.0994  0.0959 -0.1393
21076W        W37150   6.289   1.144  13.964  0.0064 -0.1198 -0.0358
21077W        W37151   9.756   5.040   3.204 -0.1124 -0.0040  0.0542
21078W        W37152   3.370   5.487   1.125 -0.1730 -0.2148 -0.5006
21079W        W37153   6.105   3.684   4.516  0.2691  0.1764 -0.0953
21080W        W37154   2.851   0.659  12.453 -0.2932  0.0351 -0.0200
21081W        W37155   9.819  10.787   0.760  0.2616  0.2995 -0.0141
21082W        W37156  17.000  14.052   2.974 -0.1226 -0.1441 -0.0076
21083W        W37157   2.013   8.586   2.240 -0.2924 -0.1873 -0.0477
21084W        W37158   4.479  16.540   3.408  0.0595  0.5080 -0.0325
21085W        W37159   2.241   5.860   3.235  0.3417 -0.3198  0.2210
21086W        W37160  14.957  10.888  12.773 -0.1280 -0.1595  0.0460
21087W        W37161  10.653  14.536   3.240 -0.0453 -0.1642  0.1313
21088W        W37162   3.506  11.421  12.150  0.0853 -0.0849  0.1875
21089W        W37163   0.697   7.060  14.750  0.2361 -0.2626  0.1887
21090W        W37164   7.841   6.307   2.129 -0.1650  0.3890 -0.0121
21091W        W37165   1.376   8.154   5.807 -0.2318  0.0754  0.2861
21092W        W37166  12.694  14.358  11.664  0.0524 -0.1335  0.1143
21093W        W37167  13.560  10.029  12.100 -0.1784  0.1139  0.1108
21094W        W37168  16.400  17.672   1.256  0.1393 -0.2532 -0.3440
21095W        W37169  12.092  11.822   4.714  0.0461 -0.0834 -0.2634
21096W        W37170  12.287   8.479  15.611  0.0635  0.1440 -0.0099
21097W        W37171   6.976   6.020   2.570  0.2773 -0.1987  0.0164
21098W        W37172  14.961  15.257   2.308 -0.1637 -0.0365  0.3256
21099W        W37173   9.751   1.488   2.148 -0.2627  0.2844  0.0482
21100W        W37174   9.524   4.698   1.903 -0.0934  0.0435  0.0819
21101W        W37175  14.997   9.124   1.409  0.3974 -0.2393 -0.4074
21102W        W37176   2.654   8.284   2.336  0.1104  0.0552 -0.1443
21103W        W37177  17.375  11.528  16.078  0.0569  0.0702  0.2578
21104W        W37178   2.301  13.206   1.064 -0.1352 -0.0730  0.0132
21105W        W37179  17.359  15.848   4.549 -0.1718  0.1369 -0.1273
21106W        W37180   3.290   0.056   2.072 -0.3012 -0.0491 -0.2592
21107W        W37181   1.132  12.434  14.020  0.1111  0.0635  0.0261
21108W        W37182  14.836   0.888   4.822 -0.0546 -0.1901  0.1496
21109W        W37183   7.227  14.650   1.148 -0.2137  0.1352 -0.4727
21110W        W37184   6.048  17.580   1.842 -0.0322 -0.3507  0.0331
21111W        W37185   9.129   2.378   0.944  0.0352 -0.4650 -0.0824
21112W        W37186  10.081  10.537   4.897  0.0863 -0.1225  0.0436
21113W        W37187  13.750  15.679   6.549  0.0428  0.0356  0.2591
21114W        W37188   5.156  12.140   2.438 -0.0783  0.2752  0.2026
21115W        W37189   1.908  12.353   4.946  0.3679  0.0935  0.3321
21116W        W37190   7.292  10.606  14.711 -0.1273 -0.1289  0.1317
21117W        W37191   2.184  10.547   0.104 -0.2396  0.2100 -0.1488
21118W        W37192  16.426   9.646   5.587  0.0330  0.2674  0.0709
21119W        W37193  15.311   0.739  14.357 -0.0949  0.0863 -0.1714
21120W        W37194   7.858  17.105  14.640  0.4239 -0.1376 -0.0864
21121W        W37195   8.569  10.230  15.024  0.0444 -0.1407 -0.5387
21122W        W37196   2.490   2.533   2.366  0.0635  0.1478 -0.2009
21123W        W37197  10.790   4.560  15.460 -0.2663 -0.2998  0.1852
21124W        W37198  15.795  16.547   5.241  0.0198 -0.1057 -0.3686
21125W        W37199   9.485   8.739   6.973  0.1678 -0.2739  0.1144
21126W        W37200  17.495  16.405  14.655  0.1077 -0.1465 -0.0445
21127W        W37201   3.922  10.017  16.190 -0.0292  0.0018  0.2170
21128W        W37202  17.598  12.819  14.320  0.1958  0.2073  0.1940
21129W        W37203   2.369   0.585  10.844 -0.0096  0.0923 -0.2196
21130W        W37204  12.134   8.963  15.767  0.2354  0.1345 -0.1270
21131W        W37205   3.630  15.919   6.700 -0.3623  0.0189  0.2791
21132W        W37206  15.027   1.700  14.481 -0.0479  0.3574 -0.0336
21133W        W37207  14.468   9.335   4.952  0.2468 -0.1066  0.1463
21134W        W37208  10.613   2.339  13.111 -0.1830  0.0642 -0.3760
21135W        W37209  10.240   8.616   1.518 -0.0208  0.2170  0.1455
21136W        W37210  14.163  12.810   0.444  0.0655  0.1436 -0.1459
21137W        W37211   8.794   8.288   2.473  0.1421 -0.2129 -0.0501
21138W        W37212   7.886  11.083   5.801 -0.1396 -0.1043  0.0011
21139W        W37213   0.238  15.568  13.527  0.0921 -0.0965  0.1082
21140W        W37214  14.672  14.048   4.392 -0.0474  0.3306 -0.2443
21141W        W37215  10.796  12.238   4.489 -0.1417 -0.0132 -0.1743
21142W        W37216   5.047  13.526   5.221  0.0631 -0.3150  0.0892
21143W        W37217   1.771   3.920  14.050 -0.1538 -0.2170 -0.0526
21144W        W37218  15.971  11.474   3.160  0.1104  0.0552  0.2756
21145W        W37219   2.688  10.031  16.885 -0.2773  0.1482  0.3343
21146W        W37220   8.843   9.557   1.526 -0.0981 -0.2222 -0.1849
21147W        W37221  11.657  17.044   1.575 -0.2151  0.1236  0.0775
21148W        W37222  10.203   2.111   4.181 -0.0695  0.2058 -0.0172
21149W        W37223   6.204   7.972   3.677  0.1160  0.2149 -0.0129
21150W        W37224  15.392  14.424  16.677  0.0417 -0.2816  0.1397
21151W        W37225  10.132  12.663   0.772  0.2604  0.3359  0.4336
21152W        W37226  10.033   0.513  15.864 -0.0632  0.1655 -0.0052
21153W        W37227   8.737  11.597   2.252  0.3339 -0.0023 -0.3496
21154W        W37228   2.180   4.778  13.755  0.3292  0.2323  0.1714
21155W        W37229  10.936   6.398  15.309 -0.1813 -0.0563  0.0692
21156W        W37230   0.839  14.723   6.091  0.0583  0.1077 -0.1287
21157W        W37231   5.185   8.099  14.821 -0.0145 -0.0871 -0.1469
21158W        W37232   8.732   8.309   1.437  0.0517 -0.1497  0.1705
21159W        W37233   2.906  16.309   2.779  0.4077  0.1739  0.1883
21160W        W37234   0.999   9.692  10.879  0.2732 -0.2138 -0.1605
21161W        W37235  15.884  15.621  12.802  0.0680 -0.2526  0.0185
21162W        W37236  11.987  10.353   2.963 -0.1642  0.1670 -0.0855
21163W        W37237   5.176   5.550   2.357  0.2327  0.0994  0.0436
21164W        W37238  15.843  10.754  15.998  0.2712 -0.0403 -0.3855
21165W        W37239   4.791  14.752   0.230 -0.0927  0.1029 -0.2784
21166W        W37240  14.188  14.879   6.347 -0.0225 -0.0452 -0.1873
21167W        W37241   2.050  12.955  14.958 -0.3589  0.0747 -0.0308
21168W        W37242  11.335   1.069   5.521  0.0169 -0.0347 -0.1337
21169W        W37243   9.514  16.281  11.972 -0.0316 -0.1492 -0.1381
21170W        W37244   3.729   1.976   3.838 -0.0879 -0.3156  0.2256
21171W        W37245   8.140   5.505  14.479 -0.2390 -0.2292 -0.0470
21172W        W37246  13.813  10.367   1.411  0.0907 -0.1512  0.3794
21173W        W37247   4.400   8.825   1.568  0.1996 -0.0176  0.2820
21174W        W37248   1.656  11.968  14.449 -0.2426  0.0442  0.1118
21175W        W37249  15.634   4.508  16.296 -0.2102  0.2724 -0.0049
21176W        W37250  15.422  10.947  15.052 -0.0359 -0.1229 -0.2655
21177W        W37251   4.361   7.696  15.880 -0.2935 -0.2218  0.0241
21178W        W37252  15.315   7.834  16.585 -0.0137 -0.1381  0.1955
21179W        W37253  14.041  12.508   5.220  0.0612  0.1036  0.0123
21180W        W37254   2.647  16.757  11.500  0.0126  0.0586  0.1537
21181W        W37255  17.098   1.843  15.245 -0.1597  0.0398  0.1428
21182W        W37256   0.553  11.337   5.832  0.0482 -0.3408 -0.0577
21183W        W37257  17.315  13.930  16.389 -0.1268 -0.2028 -0.0230
21184W        W37258   6.723   7.879   1.616 -0.0018  0.1059 -0.1669
21185W        W37259   0.990  14.339   5.201 -0.0134  0.0115 -0.2917
21186W        W37260  10.126   9.659  12.106  0.1117 -0.0022 -0.0934
21187W        W37261   9.831   3.126  15.023 -0.0374 -0.1252 -0.1120
21188W        W37262   4.802   6.662   3.711 -0.1742 -0.0189 -0.1930
21189W        W37263   3.194   4.368  16.411  0.0522 -0.0945 -0.1218
21190W        W37264   7.706   6.685  14.059 -0.3444  0.1532  0.0297
21191W        W37265  13.589  12.394  14.329  0.1608  0.1164 -0.0223
21192W        W37266  14.027   8.319  16.619 -0.0598 -0.2136  0.2318
21193W        W37267   1.934   0.295  13.657  0.0075 -0.0058 -0.3905
21194W        W37268   4.266  16.195  12.587  0.3125  0.0173 -0.1773
21195W        W37269  14.245   3.356  12.891 -0.0430  0.1016 -0.4288
21196W        W37270   0.876  13.606   0.832  0.2550 -0.0052 -0.0697
21197W        W37271  11.505  11.225  15.315 -0.0840  0.4156 -0.0011
21198W        W37272  17.025  12.934   3.492  0.0469  0.1623  0.0184
21199W        W37273   7.677   1.977   3.796  0.2026  0.0511  0.0345
21200W        W37274   2.939  11.042   4.562 -0.0324 -0.3795  0.0417
21201W        W37275   4.197  13.385   3.615  0.3266 -0.2012 -0.0228
21202W        W37276   1.761   2.939   0.787 -0.0616  0.1599 -0.5801
21203W        W37277  11.545   0.419  11.720  0.2932 -0.0307 -0.0490
21204W        W37278  12.927  11.165   0.773  0.0429 -0.2734  0.2478
21205W        W37279   6.045   4.086   4.790 -0.2219  0.0266  0.0570
21206W        W37280  13.270   4.665   2.180 -0.3432 -0.0956 -0.2750
21207W        W37281   0.300  15.503   1.404  0.4583 -0.3069 -0.3642
21208W        W37282  11.145   6.073   4.634 -0.1120  0.0703 -0.3260
21209W        W37283   8.468  13.758   4.055 -0.1142 -0.1303 -0.0564
21210W        W37284   4.626  15.152  16.244  0.3701 -0.0380 -0.1368
21211W        W37285   6.442  11.843  15.509  0.0849 -0.1578  0.0587
21212W        W37286  17.799   3.409  12.350 -0.0395 -0.0736  0.3823
21213W        W37287  13.347   1.723   4.584 -0.0853 -0.3190  0.1006
21214W        W37288  11.609  12.405  16.571 -0.0648 -0.2917  0.2388
21215W        W37289   9.704  17.576   1.914  0.0746  0.1843  0.0422
21216W        W37290  16.853  15.113   2.092  0.2412  0.0635 -0.3011
21217W        W37291   1.226   2.225  14.329 -0.0119  0.2491 -0.0701
21218W        W37292  16.353  13.916   0.343 -0.0917 -0.1425  0.0977
21219W        W37293  12.503   4.678  16.642 -0.1827  0.1140  0.3955
21220W        W37294   9.885  16.053  12.877  0.0453  0.1760 -0.4563
21221W        W37295   6.692   4.824  12.584  0.0465 -0.0162 -0.1394
21222W        W37296  10.661   6.977   0.077 -0.1866 -0.0368 -0.1404
21223W        W37297  13.489  16.647  14.078  0.1278  0.0138  0.1045
21224W        W37298   8.449   5.936  14.335  0.2229  0.0625  0.2558
21225W        W37299   1.504   8.005   3.198 -0.1344  0.0264 -0.0931
21226W        W37300   2.630  10.934  12.865 -0.0911 -0.0780 -0.4675
21227W        W37301   5.644   3.382  16.503 -0.0434 -0.2877  0.3187
21228W        W37302  16.987   9.546   3.081 -0.0378 -0.1805  0.0640
21229W        W37303   0.714  13.918   3.066 -0.2418  0.0480  0.0458
21230W        W37304   0.475   1.419  14.550  0.2398 -0.0354  0.1021
21231W        W37305  10.923   0.763   2.068 -0.0295 -0.1821  0.4356
21232W        W37306  16.464   9.750   1.107 -0.2794  0.0469 -0.1187
21233W        W37307  16.999  11.823   5.598 -0.0359  0.0289 -0.0366
21234W        W37308   1.537   7.126   5.172 -0.2298 -0.1658 -0.0558
21235W        W37309  13.322   2.057   4.208  0.1889  0.0230  0.3749
21236W        W37310   3.525   7.953   3.733 -0.2870 -0.1368  0.0542
21237W        W37311  17.752  13.676   0.263 -0.0939 -0.0518 -0.2945
21238W        W37312  10.103   8.489   3.183 -0.2705 -0.2707  0.1247
21239W        W37313  15.535  10.940   2.657 -0.1128 -0.2129  0.1372
21240W        W37314  16.116  12.925   4.129  0.3407  0.1733 -0.0186
21241W        W37315   7.317   2.116   5.329  0.1135 -0.0162  0.1108
21242W        W37316   2.292   2.941   4.982  0.0381 -0.0480 -0.4760
21243W        W37317   1.093  12.854  14.605 -0.2572  0.0150 -0.1990
21244W        W37318  16.484  15.222  11.717 -0.1930 -0.2180  0.3220
21245W        W37319   3.501   9.869   3.526 -0.0720 -0.1694  0.0392
21246W        W37320  15.158  14.706   0.072  0.1765 -0.1272 -0.2522
21247W        W37321  14.304  15.301  12.807 -0.0469 -0.0765 -0.0904
21248W        W37322   4.526   1.256  11.879 -0.2758  0.0211  0.2799
21249W        W37323   6.526  10.103  13.032 -0.3625 -0.3462 -0.0315
21250W        W37324   9.929  14.999   5.196  0.1991  0.1108 -0.0370
21251W        W37325  16.231  12.460   4.179  0.0201  0.1214 -0.0601
21252W        W37326   8.061   1.920  13.127  0.0738 -0.0951 -0.0717
21253W        W37327  11.705   2.618   0.493 -0.0575  0.0828 -0.0449
21254W        W37328  16.322  14.784  16.765  0.0094  0.0912 -0.3012
21255W        W37329  13.843  13.313  13.187  0.1593  0.1334 -0.0424
21256W        W37330  11.685   5.530  12.202  0.0483 -0.1608  0.3045
21257W        W37331   5.011  16.969  15.982 -0.0925 -0.3221 -0.2358
21258W        W37332   0.255   2.720   6.765 -0.1430  0.1721  0.0170
21259W        W37333   1.373   6.461   2.303  0.1143  0.2326 -0.0956
21260W        W37334   4.771   5.127   1.731  0.0331  0.1162 -0.1278
21261W        W37335  15.057   3.732   2.078 -0.0203  0.1085 -0.1643
21262W        W37336  10.552  12.452  13.945  0.0240  0.0564 -0.2579
21263W        W37337  16.539   6.473   5.690  0.0050 -0.1369  0.0589
21264W        W37338  16.509   9.145  16.465 -0.2386  0.0043  0.1123
21265W        W37339   0.939   5.385  11.956 -0.0376  0.1436  0.0787
21266W        W37340   5.039   7.937   6.455  0.1437  0.0539  0.1792
21267W        W37341   8.851  11.766   3.597 -0.0058 -0.1382 -0.2982
21268W        W37342   0.081  16.408   3.896  0.0967 -0.2046 -0.3472
21269W        W37343   5.885   7.957  13.246  0.2141  0.0816 -0.1327
21270W        W37344  16.752  11.997  16.105 -0.0597  0.0000 -0.1690
21271W        W37345   3.200   3.739  16.336 -0.0249 -0.0340  0.0174
21272W        W37346   8.750  13.451  11.754  0.0966 -0.0617 -0.1190
21273W        W37347   6.049   6.927  16.331 -0.1577 -0.0853 -0.2430
21274W        W37348   5.364   6.309  12.380 -0.3296 -0.1831 -0.0020
21275W        W37349   3.493  14.774   3.023  0.1739  0.0790  0.0069
21276W        W37350   4.242  13.327   1.565 -0.2239 -0.0726 -0.0701
21277W        W37351   1.824   6.652   2.391  0.1879 -0.0092 -0.1045
21278W        W37352   0.081   0.637  16.826 -0.0263 -0.2891  0.0260
21279W        W37353   8.035   7.648  14.056 -0.3272  0.0471 -0.0033
21280W        W37354  16.899   9.241  14.955  0.0015 -0.0502 -0.0379
21281W        W37355   8.445  17.752   0.481  0.0708  0.3724 -0.2888
21282W        W37356   2.870   8.978  13.119  0.2176 -0.2533  0.0142
21283W        W37357   8.767   1.717   5.245 -0.0528 -0.1391  0.2039
21284W        W37358  13.711  16.400  14.438 -0.0278  0.1013 -0.1031
21285W        W37359  12.609  14.157  16.761  0.0317 -0.0202 -0.1529
21286W        W37360   2.766   5.855   3.888  0.0549 -0.4360  0.2269
21287W        W37361   5.137  11.026   4.586 -0.1323  0.3551  0.3063
21288W        W37362  12.887   2.042   4.443  0.0544 -0.1896  0.0884
21289W        W37363   7.991   9.710   4.607  0.2356  0.0645 -0.1584
21290W        W37364  11.865   4.966  11.895  0.2979 -0.0566  0.0920
21291W        W37365  14.424   6.180   1.158 -0.0931 -0.1968  0.0646
21292W        W37366  10.304   2.220   0.142  0.1794 -0.1010  0.0111
21293W        W37367  11.505  17.631   0.872 -0.2297  0.1668  0.0847
21294W        W37368   6.506  10.806   1.756  0.0656  0.1187 -0.0949
21295W        W37369   2.137   2.700   1.180 -0.2345  0.1579 -0.0870
21296W        W37370  17.682  10.624  15.272 -0.0196  0.0943  0.0396
21297W        W37371   6.470   7.300   5.391 -0.2368 -0.2039 -0.3340
21298W        W37372  16.789  11.746   2.821  0.0093 -0.1130 -0.0892
21299W        W37373   9.132   7.904  12.173  0.1470  0.0644  0.2559
21300W        W37374   4.759  14.674  16.250 -0.1782  0.1349  0.1291
21301W        W37375   8.954  17.537   1.516 -0.1931 -0.1936 -0.1512
21302W        W37376  11.987  13.313   1.594 -0.2325  0.2004  0.1101
21303W        W37377  13.067  14.481  13.304  0.1658 -0.0175  0.4148
21304W        W37378  10.686  17.707  14.792 -0.0964 -0.1695  0.0048
21305W        W37379   0.935  14.630  14.879 -0.1545  0.0761  0.0761
21306W        W37380  11.875   7.252  16.702  0.1483 -0.1272 -0.1868
21307W        W37381  17.781   3.143   5.761 -0.2267 -0.0157  0.0582
21308W        W37382   5.490   3.702   5.478  0.1326 -0.3630 -0.2663
21309W        W37383   0.989  10.854  11.582 -0.2640  0.2778  0.1630
21310W        W37384   8.772  16.138   3.594 -0.0777 -0.0558  0.0935
21311W        W37385   1.195   1.112   2.141  0.0040  0.2389  0.2587
21312W        W37386   3.063  13.995  12.739  0.2431  0.3851 -0.1363
21313W        W37387   3.222  15.786   2.683 -0.1430  0.0283  0.1049
21314W        W37388   2.496  12.160   1.964 -0.1606 -0.1137 -0.0748
21315W        W37389   3.112   1.763  10.936 -0.0595 -0.0054  0.1638
21316W        W37390   3.026  15.514   0.121 -0.1090  0.5388  0.0060
21317W        W37391   4.945   5.812  16.459 -0.0716 -0.3641 -0.0000
21318W        W37392   0.397   3.263   2.743 -0.2057  0.2043 -0.0638
21319W        W37393   0.986  16.210   4.878 -0.1575 -0.1932 -0.0329
21320W        W37394   8.217  12.157  15.104 -0.0546  0.0799  0.4656
21321W        W37395  16.243   7.511  11.534  0.0087  0.2438 -0.0053
21322W        W37396  12.342  13.888   3.850 -0.2725  0.0506  0.1065
21323W        W37397   4.988   7.893   3.677  0.0292 -0.2261  0.0978
21324W        W37398   7.026  10.344  13.419 -0.1505 -0.0311 -0.1388
21325W        W37399   9.790  16.636   2.797 -0.1612 -0.0166 -0.0578
21326W        W37400   6.323   9.496   3.476 -0.0973 -0.0405  0.0664
21327W        W37401   9.450   5.999  16.384  0.1041  0.2722  0.0238
21328W        W37402   1.400  15.887   0.426  0.1093 -0.1011 -0.1392
21329W        W37403  12.721  13.026  12.623  0.2790  0.1671  0.1553
21330W        W37404   8.279  14.738  14.543  0.2684  0.0878  0.1199
21331W        W37405   6.623  11.884  12.875 -0.1274  0.2143 -0.0398
21332W        W37406   6.262   6.552   2.623 -0.0980 -0.0091 -0.3233
21333W        W37407   6.830   2.556   1.222  0.0943  0.0537  0.1468
21334W        W37408  10.046   3.099  12.194  0.0822 -0.1606  0.1723
21335W        W37409   1.264  13.766   3.078  0.3266  0.2482  0.1120
21336W        W37410  15.269   9.914  13.970  0.1007  0.1402  0.0167
21337W        W37411   4.973   1.313   0.802  0.1124 -0.3263  0.2065
21338W        W37412  10.119  15.834  11.470  0.2950 -0.2625 -0.0168
21339W        W37413   2.155   2.031   4.822 -0.1555 -0.2836  0.1872
21340W        W37414  16.171   1.292   3.262 -0.1088  0.0738  0.0881
21341W        W37415   0.903  11.818   3.890 -0.2545 -0.2489 -0.1833
21342W        W37416   2.671  13.588   1.965  0.0920 -0.0279 -0.0929
21343W        W37417   2.766   5.842   1.997  0.2566  0.1104 -0.1127
21344W        W37418  14.509   5.588   6.648 -0.6145 -0.2202 -0.0126
21345W        W37419   6.326   7.461   2.309  0.1004  0.0980 -0.1754
21346W        W37420   3.633  12.747   2.390  0.0644  0.0944  0.0728
21347W        W37421   7.845  14.980  12.778  0.1499 -0.2368  0.0005
21348W        W37422   1.801   0.813  11.526  0.0359 -0.5420  0.1977
21349W        W37423   7.431   6.209   2.752 -0.2826 -0.1606 -0.2144
21350W        W37424   7.981  13.416   2.867 -0.2032  0.3864 -0.1595
21351W        W37425   7.443  12.634   1.453 -0.1050 -0.0418 -0.2065
21352W        W37426   1.305  11.626  11.991  0.1609  0.0816  0.1275
21353W        W37427   1.828   7.388   0.838  0.1283 -0.1087 -0.1845
21354W        W37428  15.209   2.635  11.370 -0.2860  0.2124  0.0742
21355W        W37429  17.563   7.550   3.586 -0.2234  0.2047  0.0394
21356W        W37430   7.423   0.555  13.524 -0.2651 -0.1259  0.3153
21357W        W37431  17.411   6.639  16.009 -0.1005 -0.1855 -0.0085
21358W        W37432   2.181  11.500  11.747  0.0927  0.1619  0.0250
21359W        W37433   6.163   1.827  13.145 -0.0901  0.2628 -0.4967
21360W        W37434   8.558   7.289  13.589 -0.2713  0.1531  0.0473
21361W        W37435   7.003  13.164   3.628 -0.1300  0.0472 -0.0117
21362W        W37436   0.785   4.893   0.733  0.3668  0.0615 -0.2479
21363W        W37437  14.356   8.943   0.906 -0.3837  0.0161 -0.0906
21364W        W37438   5.732   1.673   2.233 -0.0189  0.0894  0.1129
21365W        W37439   8.448   5.389   1.064  0.1796 -0.1731  0.0275
21366W        W37440   5.507   0.531   5.768 -0.2312 -0.1182  0.0305
21367W        W37441   7.859   7.680   1.074  0.2697  0.0190  0.3162
21368W        W37442  13.614   0.778  11.746  0.3919 -0.1678  0.0165
21369W        W37443  10.038  17.366   5.353  0.3198 -0.1613 -0.0322
21370W        W37444   7.462  10.421   4.555 -0.0878 -0.1163 -0.1800
21371W        W37445   0.854   9.795   3.609  0.0947 -0.0710  0.0009
21372W        W37446   2.695   9.295   3.169 -0.0862 -0.0265  0.5410
21373W        W37447  13.776  17.410  12.419  0.1314  0.0365  0.2188
21374W        W37448  11.276   2.719   1.142 -0.2998  0.0762 -0.0155
21375W        W37449  13.931   2.260   3.894 -0.1488  0.1243 -0.2098
21376W        W37450  11.100  16.054  13.062 -0.1308 -0.1021  0.0101
21377W        W37451  14.556  11.337  15.927 -0.0070  0.1325 -0.2349
21378W        W37452   4.537   0.600  15.720  0.0037  0.0097  0.2713
21379W        W37453  13.964   7.912   0.462 -0.1487  0.2137 -0.2342
21380W        W37454   2.700   3.144  14.597  0.0163  0.2270 -0.0563
21381W        W37455   7.054   5.877  11.865 -0.2087 -0.0556 -0.2914
21382W        W37456   6.978   0.910   0.634 -0.1887 -0.2213 -0.2134
21383W        W37457  12.994   8.415   4.718 -0.0686  0.0060 -0.5000
21384W        W37458  13.924  15.551   2.984 -0.1228  0.0515  0.3125
21385W        W37459  16.625   4.695   1.716 -0.1037 -0.1278  0.1711
21386W        W37460   4.704  14.536   2.296  0.3618  0.1551 -0.1172
21387W        W37461   6.742  11.935   0.383 -0.0088  0.1299 -0.2955
21388W        W37462   1.608  13.243   4.764 -0.1053  0.1568  0.1668
21389W        W37463   2.864  13.370  12.115 -0.3879  0.3075 -0.1008
21390W        W37464  14.229   9.984  15.727  0.2157 -0.0728 -0.1874
21391W        W37465   7.559   6.719   2.167  0.2108  0.1140 -0.0519
21392W        W37466  14.760  12.384   2.142 -0.1333 -0.3415 -0.0514
21393W        W37467   1.136   6.212   0.804  0.1633  0.1748 -0.2297
21394W        W37468  17.309  10.708  16.700 -0.2443 -0.1516  0.2853
21395W        W37469  16.160   7.955  11.785 -0.1834 -0.2008  0.1890
21396W        W37470  16.942   2.270   4.012  0.0482  0.0742  0.1412
21397W        W37471   9.065   3.843  10.325  0.0677  0.2103  0.1149
21398W        W37472   6.212   1.329  12.122  0.0384 -0.2647 -0.2495
21399W        W37473   9.004   9.836   0.769 -0.2685 -0.0453  0.2288
21400W        W37474  10.121   8.622  15.234 -0.0528 -0.3076 -0.1409
21401W        W37475   0.460   0.855  14.511  0.1056  0.0448  0.0139
21402W        W37476  10.601   6.061  15.223  0.1765  0.1699  0.0891
21403W        W37477   8.890  14.183   5.200 -0.0976  0.3032 -0.0542
21404W        W37478  15.589  16.404   2.070  0.1086  0.0488 -0.0253
21405W        W37479   2.140  13.898   3.821  0.0556  0.1189  0.1389
21406W        W37480  10.575   0.053   4.648  0.0980  0.2018 -0.0325
21407W        W37481  13.859  15.801  13.658  0.1552  0.0444 -0.0251
21408W        W37482  16.342   2.682   5.712  0.0178 -0.1422 -0.0603
21409W        W37483   9.541  14.412   4.542  0.1544 -0.0129 -0.0684
21410W        W37484   3.129   1.794   2.213  0.0004  0.0767 -0.0050
21411W        W37485  12.793   9.645  11.538 -0.2733  0.0659 -0.2133
21412W        W37486  13.850  14.575   0.107 -0.0169 -0.3339  0.3743
21413W        W37487   9.482  11.203  16.013 -0.0815 -0.1409 -0.0946
21414W        W37488   4.539  17.793   1.084  0.0748 -0.1287 -0.0212
21415W        W37489  10.440  13.133   6.395 -0.0235 -0.1341 -0.0694
21416W        W37490   1.857  15.398  12.825 -0.1627  0.1981  0.0593
21417W        W37491  13.316  16.563   2.421  0.0982 -0.0276  0.2031
21418W        W37492   8.547   8.333  14.944  0.3369  0.3560 -0.2003
21419W        W37493  13.309  12.684   3.554  0.2583 -0.2903  0.0212
21420W        W37494  12.684  12.284  16.244  0.0300  0.0331  0.0872
21421W        W37495   3.918   7.187   1.176 -0.1126 -0.1572  0.1454
21422W        W37496   1.072   2.996  14.301  0.0491  0.1753  0.2247
21423W        W37497  16.096  16.559   1.061 -0.0531  0.0694  0.0171
21424W        W37498   5.837  17.461   0.031 -0.1075  0.0320 -0.2937
21425W        W37499  14.853   2.345   5.837 -0.1715 -0.4038 -0.0940
21426W        W37500   0.443  12.297   5.760 -0.0444  0.0066  0.0460
21427W        W37501   1.471  11.203  13.380  0.0459 -0.0788 -0.0380
21428W        W37502   5.576  12.723   3.804  0.0609  0.0561  0.2656
21429W        W37503   5.391  16.498  12.004  0.3099  0.0626 -0.2100
21430W        W37504   5.837   5.245   2.946 -0.2285  0.0935 -0.2268
21431W        W37505   1.894   3.513  16.892  0.0103 -0.1805  0.0712
21432W        W37506   7.797  12.703   2.359  0.1932 -0.0242 -0.1138
21433W        W37507   5.625   9.453   2.977  0.1458  0.0088 -0.1406
21434W        W37508  10.865   3.460   2.945 -0.0638  0.2174  0.2269
21435W        W37509   9.961   7.170   3.331  0.2709 -0.0410  0.2200
21436W        W37510   6.634   6.928   0.574  0.1588 -0.0037 -0.3454
21437W        W37511   1.069   5.634   2.402  0.0866 -0.0853 -0.4083
21438W        W37512   6.321   0.519   0.270 -0.2461 -0.2888 -0.4891
21439W        W37513   4.670   3.700   2.819  0.0401 -0.0174 -0.1758
21440W        W37514   4.475   9.282   4.340  0.0670  0.0458 -0.1415
21441W        W37515  10.367   7.477   3.666  0.0511  0.1515 -0.4529
21442W        W37516   5.354   5.733  13.300  0.0520  0.2352 -0.1478
21443W        W37517   6.030   4.553   2.030 -0.0057 -0.1799  0.1976
21444W        W37518   9.817   2.203   1.527 -0.3597 -0.1246  0.2239
21445W        W37519   3.043   9.930   0.889 -0.1271  0.1524 -0.0114
21446W        W37520  13.145   6.158   6.285 -0.1318  0.2844  0.5023
21447W        W37521   8.021  14.589   2.419 -0.2397  0.4144  0.0170
21448W        W37522  13.774   6.592  14.847 -0.2667  0.0353  0.0506
21449W        W37523  15.820  13.306  14.633  0.4251  0.2770 -0.4726
21450W        W37524  13.497   8.423  13.468 -0.1583 -0.0019  0.1003
21451W        W37525  15.259  15.900  13.101 -0.1577  0.1213  0.0583
21452W        W37526   0.016   3.532   0.510 -0.0483  0.0808 -0.3030
21453W        W37527  15.435   9.018   0.158 -0.4242 -0.1745 -0.0777
21454W        W37528  17.756   0.183   1.068 -0.1473 -0.1491 -0.1601
21455W        W37529   7.972   2.511  14.316 -0.1915  0.0897  0.0863
21456W        W37530  16.097  11.639   0.187  0.1581 -0.2911 -0.1047
21457W        W37531   6.744  14.804  15.781 -0.3555  0.4312  0.1936
21458W        W37532  16.525   7.399   6.018  0.3760  0.1852 -0.1958
21459W        W37533   5.212  16.324  13.522  0.1024 -0.2524  0.0968
21460W        W37534  15.467   7.608   3.366 -0.0151  0.1783  0.1261
21461W        W37535   7.648  15.169  16.936 -0.0880 -0.0772  0.3829
21462W        W37536  10.197   1.618   4.962 -0.2469  0.1517 -0.3415
21463W        W37537   2.254  16.733  15.469 -0.0948  0.0459 -0.1669
21464W        W37538  13.996   8.932   4.474 -0.1545 -0.0549  0.2367
21465W        W37539   2.995  15.329  11.746  0.1834  0.0771  0.1236
21466W        W37540   3.931  11.225  11.953 -0.4062 -0.3798  0.2008
21467W        W37541  16.684  16.664   2.169  0.1559  0.1152  0.0429
21468W        W37542   0.152  13.937   4.349 -0.1337  0.0457 -0.0550
21469W        W37543   2.058  14.936  15.927  0.3250  0.0733 -0.0195
21470W        W37544  11.657   5.721  14.908 -0.0766 -0.2167  0.1277
21471W        W37545   5.902   2.966  12.702 -0.0052 -0.0812  0.2351
21472W        W37546  16.913   0.206   2.567  0.0669 -0.1508 -0.1726
21473W        W37547   5.250  10.312   1.664  0.0270  0.1568 -0.2753
21474W        W37548   5.455   0.603   0.898 -0.3347  0.2811  0.2571
21475W        W37549   6.174  16.648   2.655 -0.0211 -0.3188  0.0383
21476W        W37550   7.432   0.858   3.921 -0.1943 -0.0538  0.0374
21477W        W37551   2.815   6.880  11.915  0.1194 -0.1203 -0.2054
21478W        W37552   1.427  15.654   1.189  0.1541  0.1554 -0.1845
21479W        W37553  12.321   7.775   1.992 -0.1765  0.3231 -0.0245
21480W        W37554  16.534  12.071  13.315 -0.0871  0.1614  0.0731
21481W        W37555   3.765  16.161  15.061 -0.1880  0.0758  0.0299
21482W        W37556  12.836  11.476  16.131 -0.2596  0.0154 -0.2858
21483W        W37557   7.389   6.466  13.192 -0.2395 -0.1694  0.2213
21484W        W37558  13.165   3.234  13.610 -0.3734  0.2337 -0.2042
21485W        W37559  13.883  13.138   3.077 -0.1101 -0.1175 -0.1257
21486W        W37560  16.883   0.074   6.008  0.1188 -0.0191  0.0505
21487W        W37561  15.725  12.107   1.938  0.2910  0.2505  0.1989
21488W        W37562   3.041   3.740  15.266 -0.0628  0.1555 -0.0375
21489W        W37563  11.303  12.037   0.540  0.0561  0.0694 -0.1501
21490W        W37564   0.806  11.095   5.487 -0.1962  0.0933  0.1624
21491W        W37565  10.794   0.514   0.502  0.0020 -0.2651  0.1064
21492W        W37566   2.877   8.585   1.454  0.0908 -0.2222  0.2474
21493W        W37567   7.047   1.805   4.476 -0.2589 -0.3472 -0.3720
21494W        W37568  12.203  17.126   3.933  0.1901  0.0583  0.1221
21495W        W37569   3.361   9.123   5.647 -0.2989  0.0676  0.0908
21496W        W37570  12.002  16.829  14.334  0.0597  0.0647 -0.0421
21497W        W37571  10.127   8.872   3.557 -0.0553 -0.1245 -0.0117
21498W        W37572  12.765   0.488  14.624  0.1897 -0.0503  0.1728
21499W        W37573  17.256   0.331  13.982 -0.1795 -0.0336  0.0596
21500W        W37574  15.276  12.119  11.568  0.1135 -0.1309  0.0754
21501W        W37575   3.738  15.052   2.674  0.2211  0.0728 -0.4129
21502W        W37576   8.843  10.791  13.304 -0.1885 -0.0851  0.1012
21503W        W37577   7.150  12.571   0.671  0.4183 -0.0833  0.0164
21504W        W37578   9.262  12.053   5.321  0.0337 -0.0487  0.1156
21505W        W37579   3.584   9.934   2.889  0.0324  0.3362  0.0644
21506W        W37580   8.808  12.810   3.075 -0.1239  0.1058 -0.1496
21507W        W37581   7.505  16.936  15.860  0.1326 -0.0166 -0.1209
21508W        W37582  12.907   3.774  14.806 -0.1531 -0.1334  0.0355
21509W        W37583  17.287  12.499  16.686  0.2066 -0.2511  0.0627
21510W        W37584  10.257   7.992   3.280  0.0983 -0.2488 -0.1468
21511W        W37585  16.408  16.060  15.667 -0.1561  0.0909  0.0172
21512W        W37586  10.498  16.974  15.155  0.0617  0.1886 -0.1840
21513W        W37587   8.714   2.931  13.856  0.0022  0.1333 -0.2789
21514W        W37588  17.090   9.416   2.158  0.0368 -0.0140 -0.2339
21515W        W37589  16.044   8.193   4.523 -0.2465 -0.0737  0.2837
21516W        W37590   9.389   4.101  14.830 -0.3660  0.0352 -0.2471
21517W        W37591   6.920  13.635  16.695  0.0038 -0.0900 -0.2383
21518W        W37592  15.885   0.424  11.012  0.0101 -0.0530 -0.1340
21519W        W37593   7.412   3.687   6.368 -0.0301 -0.3475 -0.3373
21520W        W37594   6.154   5.362   0.656  0.3109  0.1295 -0.2021
21521W        W37595   5.245   7.962  15.906 -0.0199  0.0589  0.2525
21522W        W37596   2.715  17.658   5.311 -0.3545  0.3628 -0.0481
21523W        W37597   7.361   9.949   5.619  0.0236  0.1874  0.1962
21524W        W37598  10.626  10.083  12.769 -0.2334  0.1080 -0.1219
21525W        W37599   0.564   9.536  14.091 -0.0444  0.1450  0.0807
21526W        W37600  12.443   3.786  13.636  0.0685 -0.0684  0.0945
21527W        W37601   9.358  11.760   3.825 -0.1350 -0.3137 -0.0205
21528W        W37602   9.626  12.906  12.687 -0.0356  0.2133  0.4464
21529W        W37603   0.008   7.568   2.612  0.1444 -0.0398 -0.1078
21530W        W37604   6.145   8.288  15.834  0.1216  0.1459 -0.2392
21531W        W37605   1.825   9.483   5.569  0.1599  0.0459  0.2228
21532W        W37606   7.573   4.075   0.624 -0.3073 -0.1647 -0.1647
21533W        W37607   4.622   2.222  15.154 -0.2289 -0.1198 -0.0524
21534W        W37608  10.456   4.086  13.863 -0.1418 -0.0165  0.0974
21535W        W37609  13.535  17.525  14.563 -0.1622  0.0132 -0.2945
21536W        W37610  16.771   4.145   4.518 -0.1010 -0.4639 -0.0062
21537W        W37611   4.819  17.386  12.784 -0.2789 -0.0115  0.0682
21538W        W37612  14.220   1.652   6.677  0.1333 -0.5575 -0.1029
21539W        W37613  13.786  13.281   1.683 -0.2004  0.0343  0.0273
21540W        W37614   4.007  16.643  13.267  0.2918 -0.1197  0.2137
21541W        W37615  15.718   5.161  15.528  0.1559  0.0870 -0.3912
21542W        W37616  11.637  16.787  12.562  0.0663  0.3015 -0.0139
21543W        W37617   9.747   0.396  12.455  0.1515 -0.2634  0.0835
21544W        W37618   2.333   4.103   0.611 -0.0279 -0.0830 -0.3431
21545W        W37619   9.918  10.337   2.754  0.0243  0.0693 -0.2457
21546W        W37620  15.562  13.062   2.183 -0.1470  0.1357  0.1402
21547W        W37621  14.358   1.126  16.842 -0.1074  0.1557  0.0735
21548W        W37622   3.171  17.513   1.197  0.1674 -0.0539  0.3189
21549W        W37623  11.596   0.650   6.390  0.1316 -0.0159 -0.0384
21550W        W37624   2.763  11.935  13.496  0.1040 -0.1634 -0.0244
21551W        W37625   9.608   7.638  13.237 -0.1972 -0.0426  0.2598
21552W        W37626  10.472  12.439  16.011 -0.0684 -0.1515  0.1884
21553W        W37627   7.555  17.644   4.473  0.0750  0.1708 -0.1923
21554W        W37628   9.941  15.787   5.589 -0.4277 -0.1302 -0.2347
21555W        W37629  12.139   7.518   5.786  0.1124  0.1351  0.2061
21556W        W37630  12.664  11.275   3.065 -0.3452  0.2548  0.0811
21557W        W37631  14.068  15.852   2.608  0.2609 -0.1720 -0.1699
21558W        W37632  15.688  15.250   5.153  0.4493 -0.4534 -0.0052
21559W        W37633   5.227   5.361   1.920 -0.0351 -0.2088  0.0184
21560W        W37634  13.183  16.111  13.151  0.0291 -0.0721 -0.1067
21561W        W37635   3.886  15.838   3.772  0.1470  0.1114 -0.0030
21562W        W37636   0.496   2.351  11.847  0.0510 -0.1095  0.0418
21563W        W37637   3.793  10.849  12.321  0.1159 -0.0613 -0.1340
21564W        W37638   4.916   3.970  14.928 -0.1691 -0.0751 -0.0862
21565W        W37639   3.948  13.463  13.548  0.3469  0.0328  0.1515
21566W        W37640  10.014   8.542  14.121  0.1222 -0.0518  0.1919
21567W        W37641  13.996   9.333   4.842  0.0921 -0.1306  0.3337
21568W        W37642   9.251   4.976   3.123 -0.1130 -0.1064  0.0623
21569W        W37643  14.522   9.141  12.917 -0.0766 -0.1526 -0.1833
21570W        W37644   6.408   3.326  15.595  0.1450  0.1892 -0.2335
21571W        W37645   2.779   8.430   3.335 -0.2449 -0.1873  0.0866
21572W        W37646   8.512   6.351   4.884 -0.2934  0.1136 -0.2071
21573W        W37647   8.153  13.765   4.478  0.2133  0.0706  0.0826
21574W        W37648  10.949  12.184   3.703 -0.0120 -0.1229 -0.1244
21575W        W37649  15.861   2.584  13.138  0.2476  0.3014  0.0785
21576W        W37650   2.271   0.837   1.602  0.2330 -0.0306  0.1164
21577W        W37651   5.498  17.503  12.166  0.2371  0.3485  0.0902
21578W        W37652   7.843   6.668  13.163 -0.2467 -0.1970 -0.1239
21579W        W37653  11.507  13.657  13.732  0.1728 -0.2336  0.2227
21580W        W37654  11.993   3.396  14.438 -0.4934  0.3395 -0.1721
21581W        W37655  12.382   0.424   6.023  0.1694 -0.2471 -0.1400
21582W        W37656  10.716  12.227  15.562  0.1664  0.0560 -0.0732
21583W        W37657  10.710   0.955   4.343  0.1016  0.0738 -0.1256
21584W        W37658  12.814   9.206   3.105 -0.0512  0.0348  0.0803
21585W        W37659   9.121  14.939   0.217 -0.0119 -0.2098  0.2152
21586W        W37660   5.745   8.845  14.450 -0.1357 -0.2856  0.0955
21587W        W37661   1.396   3.180  15.010 -0.1441  0.0372 -0.2930
21588W        W37662   6.556  16.165   0.745 -0.2204  0.0799  0.0804
21589W        W37663  15.126  16.301   3.051 -0.2692 -0.1514  0.2160
21590W        W37664  16.356   0.672  15.134  0.5399  0.1878 -0.4499
21591W        W37665   3.870  12.439  13.296  0.0329  0.2103  0.0342
21592W        W37666   4.257  12.799  12.930 -0.1446  0.1641  0.1803
21593W        W37667   6.182  12.405  14.765  0.2591 -0.2463  0.1208
21594W        W37668   4.746   2.988  16.163 -0.1532  0.0631  0.2363
21595W        W37669  12.098   5.176  12.351  0.0108  0.2171  0.0273
21596W        W37670   5.397  12.846  12.333 -0.2018  0.3607  0.0715
21597W        W37671  12.513  10.254   0.661 -0.2257 -0.3951 -0.1493
21598W        W37672  14.916   2.453  15.905  0.0343 -0.1241  0.2371
21599W        W37673  10.385   1.250   5.295  0.2547 -0.1009  0.3255
21600W        W37674  14.249   3.551  11.600  0.0934  0.0744 -0.0539
21601W        W37675   4.340   2.871  16.775 -0.0585 -0.0717 -0.4683
21602W        W37676  16.473  13.579  13.672 -0.2265 -0.1822  0.0132
21603W        W37677  16.792   0.428  14.893  0.0393  0.0569 -0.0069
21604W        W37678  15.416   0.675   6.162  0.0284  0.2199 -0.1659
21605W        W37679   5.093   1.220   3.375  0.2228  0.2125 -0.0542
21606W        W37680   4.880   8.162  14.322  0.0677  0.0502  0.0865
21607W        W37681   7.776   1.473   0.048  0.0774 -0.1230 -0.0810
21608W        W37682   4.203  10.998  14.959  0.1493 -0.1777 -0.1280
21609W        W37683  14.041   2.747   5.716  0.1289 -0.1446  0.0565
21610W        W37684  15.424  16.955  12.706 -0.1869  0.0936 -0.0990
21611W        W37685   1.793  10.323   5.083  0.0399  0.1057 -0.2809
21612W        W37686   4.480   6.557   1.266 -0.3229  0.2079 -0.1375
21613W        W37687  13.702  14.945   3.160  0.0272  0.0565 -0.0501
21614W        W37688   4.390  11.845  13.226 -0.5745 -0.2010  0.1440
21615W        W37689  15.966   3.819  14.153 -0.0991  0.2010 -0.1311
21616W        W37690   5.400   1.720  12.336  0.0029 -0.1977  0.0077
21617W        W37691   1.199  17.502  15.475 -0.2031  0.2290 -0.0963
21618W        W37692   8.931  14.185   2.156 -0.4612  0.0935  0.1471
21619W        W37693   7.606  12.649   0.457 -0.1523  0.1699 -0.3091
21620W        W37694   2.456  15.610  14.202 -0.0893  0.1497 -0.0490
21621W        W37695  16.726  12.925   4.900  0.1889 -0.1555 -0.0260
21622W        W37696   5.930   6.114  14.652 -0.1776  0.0956 -0.1452
21623W        W37697   5.210   8.426  15.703 -0.2793 -0.0635 -0.1776
21624W        W37698   0.147   1.698   1.550 -0.1606  0.2541 -0.0647
21625W        W37699  11.531   1.447  13.786  0.0716 -0.2393 -0.3312
21626W        W37700   9.261  15.309  13.665 -0.2042 -0.0798  0.1731
21627W        W37701  11.960   6.702  15.049 -0.0153 -0.2857 -0.0621
21628W        W37702   4.629   0.857  14.961 -0.0680 -0.1725  0.0410
21629W        W37703   2.540   7.231  15.387 -0.1612  0.1165  0.0571
21630W        W37704  13.646   6.216  12.934  0.0172 -0.1303 -0.1236
21631W        W37705   8.260   5.442  13.976 -0.0315 -0.1435 -0.0718
21632W        W37706  15.708  13.689  13.668  0.2799 -0.0141 -0.0893
21633W        W37707   2.608  13.337   4.749 -0.0216 -0.0028  0.0567
21634W        W37708   1.827  15.645   2.964  0.0438 -0.0186  0.0339
21635W        W37709  11.355  17.553   2.159 -0.0179  0.1498 -0.0692
21636W        W37710   1.224   4.822   0.190 -0.0557 -0.0214  0.1053
21637W        W37711  13.735  10.928   6.238  0.0579 -0.1748 -0.2961
21638W        W37712  11.676   3.002   2.873  0.0587 -0.1305 -0.1813
21639W        W37713   9.589   9.864   0.889 -0.0162 -0.3571 -0.1485
21640W        W37714   2.039   2.629  10.541 -0.0780 -0.2931 -0.0943
21641W        W37715   6.338   7.111   4.568  0.3421  0.2913  0.1697
21642W        W37716   2.123  15.595   4.924  0.1021  0.2466 -0.0970
21643W        W37717  17.796   3.613  15.757 -0.2125  0.2009 -0.2153
21644W        W37718  13.347  12.743  15.081 -0.0984 -0.1040 -0.1330
21645W        W37719   7.817   6.267  12.769 -0.0917 -0.1129 -0.2040
21646W        W37720   8.420  12.010  14.600  0.0558 -0.2871  0.1897
21647W        W37721  13.029  16.775  13.394 -0.0129 -0.1038  0.1372
21648W        W37722  12.383   6.455   2.144 -0.2749 -0.3185 -0.0874
21649W        W37723   3.738  10.962   0.847 -0.0308 -0.0598 -0.1177
21650W        W37724  16.102  15.646   5.222 -0.0519 -0.2983 -0.1034
21651W        W37725   6.555   0.667   2.643  0.1596 -0.2301  0.0283
21652W        W37726   2.789   7.124  16.459 -0.2745  0.2027 -0.3814
21653W        W37727   0.517   6.488  13.916 -0.0062 -0.1336  0.2213
21654W        W37728   3.709  13.254  12.674  0.2245  0.1737 -0.3070
21655W        W37729   9.217  17.843   1.209  0.3572  0.1975 -0.2788
21656W        W37730   2.125  15.397  16.892  0.0081 -0.1158  0.1464
21657W        W37731   4.248   4.911   3.352  0.1007 -0.0197 -0.0376
21658W        W37732   0.320   0.196  14.749 -0.1556  0.2214 -0.1715
21659W        W37733  16.378   0.179   3.971 -0.0142  0.2138 -0.1640
21660W        W37734   6.367  17.581  13.241 -0.0460 -0.2196  0.1132
21661W        W37735  14.705   4.559  14.832  0.1087  0.0630  0.0986
21662W        W37736  16.805   1.391   4.149 -0.3864 -0.1459 -0.0672
21663W        W37737  16.392  14.843  13.808 -0.0340  0.3144  0.0027
21664W        W37738  10.104  17.660   1.597  0.1082  0.0986 -0.3337
21665W        W37739  12.955   3.924   5.056 -0.0278  0.2500  0.4295
21666W        W37740   8.743   7.009  11.758 -0.0104  0.0966 -0.0045
21667W        W37741   3.579  11.535  13.485  0.0456 -0.0239 -0.1775
21668W        W37742  13.684  17.827   5.798  0.1240  0.2667 -0.1536
21669W        W37743   3.483   8.767   5.223 -0.1673  0.0108  0.1611
21670W        W37744  11.650   0.760   4.754  0.0154  0.0326  0.2272
21671W        W37745   1.240   4.279   5.223 -0.2507  0.0411  0.2281
21672W        W37746   6.278  12.104  15.130  0.1489  0.0360  0.0183
21673W        W37747   5.849   4.934   0.310  0.1110 -0.1170 -0.0403
21674W        W37748   6.332   4.621  13.400  0.3662 -0.1181 -0.1269
21675W        W37749   9.615  17.653  15.040 -0.1607  0.2050  0.2779
21676W        W37750   2.054   2.222   3.398  0.1796  0.1424 -0.1308
21677W        W37751  13.444  11.590  16.038 -0.1084 -0.1314  0.0275
21678W        W37752  17.658   6.212  15.267  0.0646  0.1723  0.1111
21679W        W37753   8.202   9.889  12.639  0.0028  0.1203 -0.0437
21680W        W37754   5.216  15.726   1.906 -0.0176  0.0019 -0.0801
21681W        W37755   2.135   1.004   0.791 -0.1493 -0.0419  0.1181
21682W        W37756  12.947   3.518  14.313 -0.3517  0.0717 -0.0700
21683W        W37757   4.131  16.930   4.844 -0.0390 -0.3558 -0.0243
21684W        W37758  11.703  12.361   4.105 -0.2054  0.1239  0.0685
21685W        W37759  15.108  12.549  13.998 -0.1488  0.0981 -0.1460
21686W        W37760   0.532  13.786   4.703  0.1619  0.2355 -0.0192
21687W        W37761  17.333   1.475   2.639 -0.0827  0.0395  0.0746
21688W        W37762   6.699  12.613   3.836  0.2329  0.0196 -0.0797
21689W        W37763   5.981   7.536  16.655  0.0123  0.1273 -0.1710
21690W        W37764   2.057  12.807   1.646 -0.0706 -0.2095  0.0296
21691W        W37765   7.653   6.334  16.572  0.1168 -0.0879 -0.0811
21692W        W37766  15.617  10.125  13.464 -0.0297 -0.0366  0.1166
21693W        W37767   7.131   7.911  13.007 -0.0294  0.0673  0.2144
21694W        W37768  13.276   9.426   1.988  0.1864 -0.1269  0.2972
21695W        W37769   0.279   1.959  14.213  0.1462  0.1325 -0.0545
21696W        W37770  17.431   9.801   3.198 -0.0992 -0.1170  0.1298
21697W        W37771  15.680  11.084   1.921  0.0192  0.0602  0.1117
21698W        W37772   4.545   9.317   5.517  0.0752  0.2029 -0.1343
21699W        W37773   3.050   1.256  15.606  0.1961  0.3722 -0.0204
21700W        W37774  10.990   9.809   1.388 -0.1029 -0.0241 -0.4184
21701W        W37775   5.028   6.518  13.118  0.4331  0.0014  0.0578
21702W        W37776   0.754   4.538   5.721 -0.3235  0.3219  0.0503
21703W        W37777   1.423  11.402  15.121 -0.0367 -0.2885  0.0802
21704W        W37778   0.187   0.824   5.270  0.0329 -0.2019  0.0696
21705W        W37779  14.654   7.859   1.184 -0.6088  0.0393 -0.2066
21706W        W37780  11.676  13.191   5.806 -0.1267  0.1605 -0.0082
21707W        W37781   7.042  15.185  15.874  0.1310 -0.1180  0.0517
21708W        W37782  15.879   2.273  12.077 -0.0259 -0.1620  0.1813
21709W        W37783   5.210  12.587   4.154  0.0262 -0.3003  0.0443
21710W        W37784   3.943   5.566  11.754 -0.0043 -0.1214  0.0955
21711W        W37785   6.105   7.880  16.154  0.0614 -0.0937 -0.1308
21712W        W37786   4.012   2.865  13.099 -0.1335 -0.2065  0.0662
21713W        W37787   2.244  14.737  13.545 -0.0433 -0.0613 -0.3390
21714W        W37788   7.047  12.982  12.360 -0.0966  0.1432  0.0189
21715W        W37789  11.770  15.742   5.442 -0.2872 -0.0919  0.0510
21716W        W37790  10.674   3.707  16.249 -0.2603  0.0718  0.2873
21717W        W37791   4.725  16.218  16.244  0.1445  0.2772  0.0519
21718W        W37792   4.966  12.273   3.909  0.0272  0.1082  0.0226
21719W        W37793   8.362   8.958   3.649 -0.0069 -0.4420 -0.1906
21720W        W37794  13.153   6.879   4.551  0.0023  0.0207 -0.0724
21721W        W37795   3.368  14.357   0.442  0.0220 -0.0423 -0.0570
21722W        W37796   8.071   1.875  12.068  0.0238  0.0694  0.3220
21723W        W37797   9.556   9.296   3.866  0.0010  0.1436  0.1605
21724W        W37798   1.346  15.605   2.381  0.2605 -0.2046  0.0490
21725W        W37799   5.608  12.712  16.230  0.1024  0.0591  0.0110
21726W        W37800   9.037   6.226   2.487 -0.7099 -0.1569  0.0019
21727W        W37801  16.280  15.326  14.549 -0.0008 -0.1056  0.1107
21728W        W37802  11.236   2.750   5.903 -0.0853 -0.1606 -0.2584
21729W        W37803   0.828   1.051  14.795  0.0224  0.2356  0.0561
21730W        W37804   6.722   5.783   3.437  0.0907 -0.1354  0.0243
21731W        W37805   0.638  10.359  12.006  0.2801  0.1145  0.3604
21732W        W37806   3.450  11.725   0.800  0.0838  0.2191  0.0955
21733W        W37807  16.064   9.977  12.493 -0.1365 -0.2545  0.2082
21734W        W37808  17.840  16.091   1.365 -0.0424  0.0872  0.1848
21735W        W37809  11.692   3.192  13.613 -0.0176 -0.1435 -0.3435
21736W        W37810  10.562  10.517   0.630 -0.1004 -0.4041 -0.0065
21737W        W37811  12.562   4.847   1.686  0.2575  0.1487  0.0347
21738W        W37812  12.481   1.769  12.613  0.0539 -0.3363 -0.0612
21739W        W37813   6.412  15.444   4.102  0.2658 -0.1809 -0.2107
21740W        W37814   7.513   5.411  13.734 -0.2648 -0.1191 -0.2246
21741W        W37815  15.415  11.119  13.578 -0.1078 -0.2351 -0.0088
21742W        W37816   7.662   4.587   2.012 -0.2332  0.2658  0.2943
21743W        W37817   9.967   0.145   3.964  0.0796 -0.0648 -0.0046
21744W        W37818   1.703  10.577  16.932 -0.1323 -0.0391  0.0084
21745W        W37819   6.173   2.907  12.219  0.0995  0.3019 -0.3415
21746W        W37820   6.159  14.171  16.657  0.2009  0.0589  0.0253
21747W        W37821   1.783  15.587  11.766 -0.3845  0.1573 -0.1146
21748W        W37822   8.968   6.088   5.140  0.0284 -0.1734  0.1952
21749W        W37823  10.872  16.262  14.332  0.1033 -0.2540 -0.1041
21750W        W37824  12.963   1.778  15.984  0.0524 -0.1256 -0.0119
21751W        W37825   6.233   2.308   2.881 -0.2913  0.1116 -0.0548
21752W        W37826  13.967   6.206   2.104  0.2986  0.1283 -0.4707
21753W        W37827   8.787  11.655  16.887 -0.0640  0.4623 -0.1204
21754W        W37828  12.919  13.509   4.511 -0.2415  0.2285 -0.1246
21755W        W37829   5.387   0.689  11.192 -0.3577  0.0621 -0.0998
21756W        W37830   3.704   7.319   4.430  0.0170  0.0289  0.0034
21757W        W37831   0.154  14.378   1.697  0.0405 -0.1755 -0.1439
21758W        W37832  16.089   8.935   4.739  0.2984  0.1195 -0.1672
21759W        W37833  10.715  12.250  12.820  0.2594 -0.0983 -0.3186
21760W        W37834   8.561   4.498  15.059 -0.0190 -0.0315  0.2181
21761W        W37835   3.682  13.975  15.278  0.1778 -0.0175  0.1146
21762W        W37836  16.926   3.701   5.751 -0.0084  0.2047 -0.0929
21763W        W37837   6.401   0.569   5.780  0.0942 -0.1585 -0.1676
21764W        W37838   3.613   0.044   1.629  0.2336  0.4425  0.0747
21765W        W37839   0.852   6.479   0.083  0.0160 -0.0893 -0.3555
21766W        W37840  15.091  10.501   4.575  0.1070 -0.0503 -0.0114
21767W        W37841  17.468   3.193  16.827  0.1759 -0.0188 -0.1921
21768W        W37842   6.099   5.539  12.339 -0.0457 -0.4460  0.0343
21769W        W37843  14.138   3.415  14.210 -0.1910 -0.1208  0.2164
21770W        W37844   8.226   6.723  15.876 -0.0536  0.0668  0.0316
21771W        W37845  15.929  14.807   2.515  0.1790  0.1163  0.3231
21772W        W37846  16.404  15.644  15.036 -0.0948 -0.1308  0.0337
21773W        W37847   8.392  10.635   1.032  0.3598  0.0619 -0.2937
21774W        W37848   7.147   5.581  14.423 -0.3262  0.3268 -0.0163
21775W        W37849  16.263  17.511   3.779 -0.0946 -0.0933  0.0076
21776W        W37850  11.908   8.596   5.157 -0.0423  0.2828  0.2326
21777W        W37851  13.779   3.132  12.853  0.0980  0.1221  0.1011
21778W        W37852   7.314   9.160   3.080  0.1775  0.2255  0.1187
21779W        W37853  11.658   0.602  14.202  0.0096 -0.1555  0.2745
21780W        W37854   2.945   1.669  13.904 -0.1457 -0.0016  0.3556
21781W        W37855   2.141  13.986   0.503  0.1750 -0.1509 -0.1445
21782W        W37856   6.574   1.147   2.452 -0.2292 -0.2851 -0.0606
21783W        W37857   4.563   4.269   4.486  0.0735  0.1200 -0.2014
21784W        W37858  13.599   4.333   0.952  0.2406 -0.2381  0.2594
21785W        W37859  11.640  11.141  12.872 -0.2017  0.0884  0.0737
21786W        W37860   5.037  14.480   2.641  0.1588  0.0732  0.1048
21787W        W37861   6.974  12.203   3.750  0.1023 -0.1120  0.0635
21788W        W37862  13.884  16.096   0.768  0.1724 -0.2089  0.2834
21789W        W37863   2.947  11.315   5.309 -0.0807  0.0850 -0.1965
21790W        W37864  14.284   3.023   3.224  0.0362 -0.0766  0.2412
21791W        W37865  14.159   3.479   1.988  0.1966 -0.1942  0.1326
21792W        W37866   9.589   1.327   0.851  0.0520  0.0490 -0.2352
21793W        W37867   2.622   8.742   5.418 -0.1901 -0.1725 -0.3265
21794W        W37868  14.037   2.203   5.356  0.0790  0.0570  0.0602
21795W        W37869  10.233   4.438   3.695 -0.1087  0.0214  0.4588
21796W        W37870   0.646   6.051   0.025 -0.1875  0.2499 -0.1236
21797W        W37871  12.992   3.621   6.438 -0.0357 -0.4350 -0.2244
21798W        W37872   8.134  16.258  11.226  0.3389 -0.1983  0.0158
21799W        W37873   1.103  16.182  16.360 -0.2423 -0.4695 -0.0939
21800W        W37874  16.829  15.195   1.532 -0.1975 -0.0492 -0.1507
21801W        W37875   9.692   9.233  13.514  0.0092  0.1548  0.0329
21802W        W37876   5.748  16.176  12.786  0.1267  0.0136  0.0276
21803W        W37877  10.492   4.647  15.071 -0.0173 -0.0773 -0.2989
21804W        W37878  12.397  13.196   3.292  0.0344 -0.2015 -0.0484
21805W        W37879   6.273  16.327  16.372 -0.1505 -0.1553  0.0046
21806W        W37880   2.792  11.685   1.920  0.2374  0.0097  0.3771
21807W        W37881   9.323   3.470  11.598  0.4863 -0.0239  0.1633
21808W        W37882   8.691   0.034  15.471 -0.0539  0.1428 -0.1787
21809W        W37883   8.775  15.645   5.531  0.0408 -0.1257 -0.0860
21810W        W37884   7.814   7.949   4.385 -0.1338  0.1967 -0.1365
21811W        W37885   5.814  10.648   4.236  0.0894 -0.1408  0.4383
21812W        W37886   0.217   4.909   4.701 -0.1373  0.1277  0.1844
21813W        W37887   1.908  14.412   5.006  0.2702  0.1015  0.3456
21814W        W37888  17.307   7.772   1.303 -0.0571  0.2121  0.1283
21815W        W37889   4.820   7.873  12.479  0.0428 -0.0993  0.1393
21816W        W37890   9.356  15.226  11.272  0.1103  0.0936 -0.2049
21817W        W37891  15.507   9.601   1.372  0.1125 -0.1795  0.2283
21818W        W37892   5.641   5.206   5.563 -0.1910  0.0515  0.3100
21819W        W37893   4.042   2.113   2.075  0.1245  0.1281  0.1885
21820W        W37894  12.849  12.205   0.148 -0.0743  0.0219  0.0372
21821W        W37895  14.355  13.692   2.440 -0.3162 -0.4619  0.0881
21822W        W37896   1.959   0.486   1.323 -0.0763  0.2272  0.1727
21823W        W37897   0.548  12.672   5.003  0.1379 -0.3550  0.1012
21824W        W37898   2.384  16.911   3.435  0.0958 -0.0384  0.2710
21825W        W37899  13.941  10.914   2.477 -0.1200 -0.0004  0.1880
21826W        W37900  11.136   4.147   0.874 -0.1117  0.2904 -0.2549
21827W        W37901   7.074   3.758   5.071 -0.4579 -0.1235 -0.0447
21828W        W37902   6.205  11.022   4.520 -0.1469  0.0317 -0.0446
21829W        W37903  17.582  16.808   6.354 -0.1775 -0.1632  0.2400
21830W        W37904   4.852  11.410   3.801 -0.0134  0.0829 -0.3596
21831W        W37905   2.347   1.357  15.180 -0.1005 -0.0502  0.2177
21832W        W37906  15.441   6.947   4.530 -0.2311 -0.1028  0.1059
21833W        W37907  16.495  10.442  13.269 -0.2516 -0.1828 -0.0395
21834W        W37908  17.688   1.320  16.196 -0.2695  0.1274  0.1780
21835W        W37909   7.918  14.559   3.594  0.1255  0.1227  0.0686
21836W        W37910   0.444   8.295   5.779 -0.0872  0.0521 -0.4351
21837W        W37911  15.801  14.954   5.682  0.0674  0.0751 -0.1036
21838W        W37912  13.355  11.730   1.276  0.0740  0.0725 -0.3763
21839W        W37913  14.587  16.559   2.864  0.0057 -0.2252  0.1898
21840W        W37914   8.942   4.875  12.648  0.0619  0.1763 -0.1947
21841W        W37915   2.355  15.963  13.675  0.1437 -0.2722 -0.1989
21842W        W37916   4.060   8.314   2.229 -0.1031  0.1757  0.2808
21843W        W37917  13.812   4.638  14.184 -0.0054 -0.2531  0.2228
21844W        W37918  12.638  11.755  12.143  0.3197  0.0098  0.1116
21845W        W37919   0.229  11.550   0.962  0.1005  0.0565  0.1922
21846W        W37920   0.319  17.700  16.270 -0.0825 -0.1819  0.0509
21847W        W37921  16.691   0.606   5.044 -0.1686 -0.0598  0.0059
21848W        W37922   9.568   3.508   6.068 -0.0110  0.1433 -0.1578
21849W        W37923   4.914   2.339  14.733  0.2362  0.2328  0.1197
21850W        W37924  12.100   4.770  16.396 -0.1964  0.1623  0.0085
21851W        W37925  16.774  12.936  14.507 -0.1819 -0.1006 -0.4819
21852W        W37926  15.620  17.664  14.626  0.0004  0.2387 -0.2330
21853W        W37927  14.817  16.972  16.512  0.0127 -0.1436 -0.0716
21854W        W37928  11.127   4.625   1.315  0.4449  0.2030 -0.3198
21855W        W37929   7.044   0.588   1.092  0.1968  0.1246 -0.1566
21856W        W37930   2.655   2.647   0.813  0.0374  0.4133  0.0047
21857W        W37931  12.892   9.998  15.389 -0.0221 -0.1976 -0.2466
21858W        W37932   1.440  17.022  15.296  0.0561 -0.2427  0.0960
21859W        W37933  10.200   2.633  13.039  0.2950 -0.0618 -0.2994
21860W        W37934   2.460  11.295   4.427  0.1017 -0.1707 -0.2798
21861W        W37935   9.120  11.598   5.377  0.3379  0.3880 -0.3878
21862W        W37936   0.451  10.422  15.953  0.0013  0.3231  0.0815
21863W        W37937   2.028   7.809   0.717 -0.0800  0.0940  0.1152
21864W        W37938   4.771  11.717  11.949  0.4267 -0.0601 -0.2249
21865W        W37939   1.867   6.083   2.347  0.3045 -0.1450  0.1560
21866W        W37940  12.739   0.137  12.569 -0.0713 -0.0094 -0.1705
21867W        W37941  17.733   1.958   4.638 -0.0380 -0.0421 -0.1523
21868W        W37942  14.924   0.767   1.968  0.0940  0.0761 -0.1070
21869W        W37943  15.059  13.088  13.907 -0.0758 -0.1012 -0.0577
21870W        W37944   7.809   1.461  11.644 -0.1558  0.1814 -0.2095
21871W        W37945   6.499   0.136   5.192  0.2939  0.0738  0.0342
21872W        W37946  17.779  14.714   5.050  0.1882 -0.1809 -0.0824
21873W        W37947   4.406   1.289  16.923  0.3781  0.1045 -0.1707
21874W        W37948   0.493  16.788  16.561  0.0573  0.0858 -0.0553
21875W        W37949  14.785  11.400   3.043 -0.0380 -0.2793  0.2374
21876W        W37950   2.307  16.983   1.408 -0.0589  0.1539 -0.3129
21877W        W37951  15.680  17.363  12.666 -0.0720  0.1736  0.0393
21878W        W37952   0.048  15.649  15.276 -0.0607 -0.0445 -0.1427
21879W        W37953  12.441  12.352  15.274  0.1384 -0.3229 -0.0492
21880W        W37954   8.453   2.244   0.644  0.0039  0.1749 -0.0567
21881W        W37955  10.772  17.706   3.722 -0.4504  0.1070 -0.0717
21882W        W37956   3.296  16.490   4.678 -0.4280 -0.0264  0.3302
21883W        W37957   1.260  12.674   2.327 -0.1540 -0.1721 -0.0994
21884W        W37958   7.655   6.517  16.109 -0.3800 -0.0528 -0.2897
21885W        W37959   5.881  11.492  16.075  0.3358 -0.0984 -0.0463
21886W        W37960  15.955   0.481  16.537  0.0196  0.1049  0.1446
21887W        W37961  13.436  10.775  14.802  0.2358  0.1879  0.2945
21888W        W37962  17.370   1.411   4.327 -0.2384  0.0773  0.1043
21889W        W37963  14.329  12.491  12.973 -0.0481 -0.1000  0.0569
21890W        W37964   3.082   5.549  13.171  0.2231  0.1976 -0.2130
21891W        W37965   4.886  17.417   4.347  0.2733  0.2116 -0.1048
21892W        W37966   3.082  14.438  13.062 -0.0716 -0.0977  0.0990
21893W        W37967   2.928  11.441  13.255  0.1830 -0.0892 -0.0087
21894W        W37968  15.731   0.259  14.025  0.0358  0.1706 -0.2613
21895W        W37969  17.619  10.967  12.549 -0.1032 -0.4266 -0.0867
21896W        W37970  10.077   9.972  12.528 -0.3258 -0.0573  0.2488
21897W        W37971   2.107  13.090  13.470  0.3592 -0.0395 -0.1947
21898W        W37972  16.540  10.174  15.612 -0.0667 -0.2192  0.0988
21899W        W37973   0.262   1.623  16.250  0.1336  0.3556 -0.3729
21900W        W37974  12.589   5.002   4.217 -0.0573 -0.1063  0.1639
21901W        W37975   4.204   2.554   5.862  0.0455 -0.1305  0.1620
21902W        W37976   9.407  16.367  14.956 -0.0100  0.1116  0.0020
21903W        W37977   5.348   4.970  13.297  0.2932  0.2070  0.0308
21904W        W37978   7.548   2.925   5.152  0.0230 -0.1766 -0.1260
21905W        W37979   6.690  13.363   6.177 -0.0446  0.1569 -0.2972
21906W        W37980   4.854  11.294   5.068 -0.1800 -0.1002 -0.1573
21907W        W37981   9.842  12.869  14.535 -0.3324 -0.1939 -0.0500
21908W        W37982   9.040  16.924  13.194  0.3137  0.0427 -0.1335
21909W        W37983   5.583   2.444  14.313  0.0741 -0.1806 -0.0947
21910W        W37984   2.805   2.769   4.888 -0.1795 -0.1971 -0.0471
21911W        W37985   5.398  10.952  12.965 -0.1989 -0.0568  0.0826
21912W        W37986   7.245  12.478  16.140 -0.0814  0.3094 -0.1402
21913W        W37987  12.910  16.136   3.004 -0.0910  0.1640 -0.0013
21914W        W37988   2.084   0.368  13.166  0.1577  0.2231 -0.4163
21915W        W37989   2.568   4.479   5.932 -0.2056  0.1175  0.0931
21916W        W37990   6.424  14.355   2.386 -0.0172  0.1383  0.0943
21917W        W37991  16.218  13.992   5.033 -0.2837  0.1213  0.2073
21918W        W37992  12.867  12.919  15.119 -0.3335 -0.0162  0.2541
21919W        W37993  14.106   0.728  15.215  0.0052  0.2724 -0.0653
21920W        W37994  12.584   7.618   0.315 -0.0789  0.0660  0.0458
21921W        W37995  10.847   7.419   1.998 -0.3489  0.3996  0.2769
21922W        W37996  13.908   0.138  14.610 -0.0523  0.2755  0.0623
21923W        W37997  12.331  12.712   0.477  0.1096  0.0584  0.1223
21924W        W37998  13.367  10.425   0.319  0.0321  0.1979 -0.4213
21925W        W37999   0.889   3.434   0.650 -0.0231 -0.4505 -0.1555
21926W        W38000   0.529   3.493  13.978  0.2253 -0.0081 -0.1753
21927W        W38001  14.872   5.769  14.155 -0.0870  0.2053  0.1286
21928W        W38002   6.754   8.285   5.463  0.3240  0.2318  0.2734
21929W        W38003   5.172  11.972   5.955  0.2914  0.0920  0.1708
21930W        W38004   3.661   1.506  11.741 -0.1364 -0.4100  0.2815
21931W        W38005  15.799  10.971  13.312  0.2077 -0.2082 -0.0930
21932W        W38006   7.911   7.450  15.643  0.0925  0.1753  0.1105
21933W        W38007  15.388  12.165  16.845  0.0346  0.1111 -0.3208
21934W        W38008   4.768   4.282  13.558 -0.0409 -0.1027  0.2430
21935W        W38009   2.422   2.229   4.094  0.2363  0.1898  0.1020
21936W        W38010   9.689  16.152   5.236  0.2327 -0.3144 -0.0055
21937W        W38011  13.815  17.194   2.079 -0.4099 -0.2196 -0.0394
21938W        W38012  17.446   0.901   4.285 -0.1586  0.2465  0.2148
21939W        W38013   4.721  10.807  15.709 -0.2181  0.0356  0.0364
21940W        W38014  13.598   2.612   0.377 -0.0345  0.1315  0.0364
21941W        W38015   2.536   2.462   3.648 -0.0344  0.0972  0.1330
21942W        W38016  16.256  15.111   3.343  0.0739  0.0076 -0.1264
21943W        W38017  13.778   3.160   3.447  0.0602 -0.1486  0.0827
21944W        W38018   6.260  15.328  14.515 -0.0663 -0.1434  0.0918
21945W        W38019   5.182  17.531   4.848  0.0928  0.1006  0.0139
21946W        W38020   5.614   8.687   4.011 -0.1771  0.3413 -0.0606
21947W        W38021  13.163   0.425  13.075 -0.1802 -0.0986  0.1898
21948W        W38022   7.086   7.500   3.270 -0.0391  0.0450 -0.0064
21949W        W38023   6.652   8.799  12.436 -0.0724  0.0264  0.0243
21950W        W38024  13.116  15.522  16.378 -0.1148  0.0146 -0.0064
21951W        W38025  13.073  16.739  16.265 -0.0097  0.1125 -0.3577
21952W        W38026   8.448   5.235   6.448 -0.1179 -0.2555 -0.0557
21953W        W38027   1.793   0.999  14.397  0.0229  0.0689  0.1036
21954W        W38028   8.703   4.346  13.333  0.1649  0.0505  0.0022
21955W        W38029  14.662  11.144  15.529  0.4304  0.1231 -0.0491
21956W        W38030   6.601   3.599  12.044  0.1903  0.1030  0.3256
21957W        W38031   0.620  16.723  15.806  0.2576 -0.2481 -0.1008
21958W        W38032   1.014   9.278  16.366  0.1746  0.2134  0.1627
21959W        W38033  13.809   5.030  14.478  0.0557 -0.3072  0.0335
21960W        W38034  11.125   6.122   0.694 -0.1004 -0.1251  0.1264
21961W        W38035  17.449  17.492   4.673  0.2060 -0.0522 -0.0105
21962W        W38036  16.538   2.081   3.266  0.0456 -0.1223  0.1206
21963W        W38037  15.286  14.943  14.731  0.2418  0.3340  0.1360
21964W        W38038  17.655   0.248   3.148 -0.0852  0.0560  0.2815
21965W        W38039   6.386   1.425  13.017  0.2695  0.0161 -0.2423
21966W        W38040   3.591   0.876  14.041 -0.2521  0.1034  0.2776
21967W        W38041  17.347  17.699  16.674 -0.1923  0.2638  0.1334
21968W        W38042  13.430  17.019   4.644  0.0553  0.2838 -0.0258
21969W        W38043   3.502  12.262   1.390 -0.0467  0.0439  0.0908
21970W        W38044  13.750   5.628  15.444 -0.0314  0.1043 -0.0836
21971W        W38045   2.972  15.454   2.981 -0.1986 -0.0062 -0.2283
21972W        W38046   1.862   3.572  11.603 -0.2137  0.1099  0.2919
21973W        W38047   5.066   9.149   2.827  0.0694  0.1549  0.1591
21974W        W38048   5.906   4.690   1.484 -0.0865  0.4053  0.2790
21975W        W38049  13.165   5.141   4.248 -0.1592  0.1484 -0.2129
21976W        W38050   9.280   7.533  13.580 -0.0819  0.0515  0.1860
21977W        W38051  15.274  14.541   3.962  0.0909 -0.0180 -0.1175
21978W        W38052   0.565   0.938  12.634  0.2462 -0.2751  0.3316
21979W        W38053  10.900   6.389   5.911  0.3213 -0.1885  0.1014
21980W        W38054  13.770   8.860  15.236  0.3898 -0.3767 -0.1487
21981W        W38055   1.640  13.174   3.317  0.0688  0.0052  0.5942
21982W        W38056   3.221   2.266  13.258 -0.1240 -0.0377 -0.0624
21983W        W38057   7.952  11.225   2.022  0.0095  0.1112 -0.1940
21984W        W38058  16.118   8.820  14.115  0.0686  0.0592  0.0634
21985W        W38059  12.131  12.255  13.689  0.0598 -0.1246 -0.2521
21986W        W38060   1.224   9.166  13.521 -0.1298 -0.1421 -0.2925
21987W        W38061  12.088   4.892  13.174  0.1116  0.1011  0.0574
21988W        W38062   6.269   3.546   1.939  0.0831 -0.3466 -0.0156
21989W        W38063  16.622  15.432   5.494  0.0390  0.0247 -0.1291
21990W        W38064  12.190   1.635  12.236  0.2197  0.2003  0.1456
21991W        W38065  16.475   2.564  14.034 -0.2095 -0.1231  0.0092
21992W        W38066   3.430  11.941  16.933 -0.0815 -0.0069 -0.1336
21993W        W38067  14.789   1.588   2.086 -0.0114 -0.1040 -0.1773
21994W        W38068   1.873  16.822  15.804  0.4247 -0.2025 -0.0049
21995W        W38069   2.257  12.282   2.397  0.0542 -0.1124 -0.0856
21996W        W38070   8.898  16.808   2.693 -0.1192  0.2455 -0.0863
21997W        W38071   6.650   8.206  13.103 -0.0132  0.2120  0.0870
21998W        W38072   4.619  14.597   1.736  0.1799  0.0996 -0.0795
21999W        W38073   4.191   6.009   2.425  0.1099 -0.1924  0.0149
22000W        W38074   4.290  12.242   3.550  0.0128 -0.0302  0.0962
22001W        W38075  17.093   0.589   1.125 -0.1553  0.0206 -0.0290
22002W        W38076   3.951   7.649   2.803 -0.1111 -0.1241  0.0069
22003W        W38077   3.916  13.669   4.339  0.0566  0.1487 -0.0207
22004W        W38078   2.616   8.134   1.477  0.1141 -0.2072 -0.1883
22005W        W38079  11.702   8.574   3.055 -0.1175  0.2163  0.0460
22006W        W38080  16.681  15.605   0.793 -0.0331 -0.1047 -0.2679
22007W        W38081   2.528  12.598  15.812  0.0885  0.0938  0.1119
22008W        W38082  13.927  17.778   4.866  0.2373  0.2143 -0.1814
22009W        W38083   1.117   4.285  12.759 -0.0395 -0.2618 -0.1961
22010W        W38084  10.834  13.483  14.768 -0.1038  0.0233  0.1484
22011W        W38085   3.918   3.030  14.716 -0.1848  0.0510  0.0846
22012W        W38086  13.912  13.251   5.249  0.2478 -0.1144 -0.2258
22013W        W38087  13.130   6.781  16.215  0.5489  0.0408  0.0430
22014W        W38088   5.740   9.301   5.898  0.0872  0.2222  0.2919
22015W        W38089   6.282  15.194  12.078  0.1409 -0.0953 -0.2505
22016W        W38090   0.666   0.257  16.136  0.0789 -0.6054 -0.0875
22017W        W38091  15.617   4.231  13.250  0.1565  0.2618 -0.1736
22018W        W38092   1.891   7.191  13.183 -0.0620  0.4804 -0.1028
22019W        W38093  15.646   1.865   3.076  0.2397  0.0713  0.0195
22020W        W38094   2.872  16.178  11.586  0.0237 -0.3350  0.1682
22021W        W38095  17.291   6.712   0.661 -0.0609 -0.0460 -0.2688
22022W        W38096   1.187  11.355   1.434 -0.0110  0.1022 -0.2138
22023W        W38097  15.794   5.940   1.208 -0.0568  0.4048  0.0581
22024W        W38098  15.981  10.572   0.469  0.2259 -0.3729 -0.0371
22025W        W38099  10.313   5.440   3.021  0.0759 -0.0017 -0.1727
22026W        W38100   4.033   5.388   3.551  0.0791  0.4327 -0.1440
22027W        W38101   1.620  13.298   1.597 -0.4343  0.3145  0.0969
22028W        W38102   2.598  10.433  12.941 -0.1894 -0.0347 -0.0142
22029W        W38103   6.975   8.881   1.244  0.2113 -0.2352  0.2877
22030W        W38104   1.099  13.295  14.371  0.0281  0.2530 -0.0004
22031W        W38105  14.904  14.301   1.137 -0.0557  0.1085  0.1829
22032W        W38106   8.954   7.475   5.781  0.2144  0.0511 -0.1085
22033W        W38107  11.370   6.004  12.805  0.1089  0.2249 -0.1660
22034W        W38108  16.941   4.959   4.800 -0.0627  0.2370  0.1359
22035W        W38109  11.752  16.779   0.159  0.1545  0.0869 -0.2134
22036W        W38110   7.033  16.795   2.617  0.0815  0.0288  0.1062
22037W        W38111  15.375   0.681   4.198  0.1886 -0.2044 -0.0086
22038W        W38112   5.675   5.397   4.171 -0.2591 -0.1193 -0.1675
22039W        W38113  17.184   0.103   5.554 -0.2635 -0.1003 -0.1378
22040W        W38114  13.171   1.632  12.023 -0.0618 -0.6671  0.0081
22041W        W38115  16.109   5.241   5.896 -0.0354 -0.1831  0.0475
22042W        W38116  11.415   1.415  13.271 -0.0670 -0.1547  0.1006
22043W        W38117  13.504   4.676  13.792  0.0943  0.0632 -0.0169
22044W        W38118  17.442  14.193   3.186  0.2099  0.0380  0.0089
22045W        W38119   2.295  14.799  15.482 -0.1284 -0.1147 -0.0133
22046W        W38120   1.282   3.961  15.216 -0.1302  0.1062 -0.2252
22047W        W38121   4.536  17.583   3.157  0.2071 -0.0358  0.1764
22048W        W38122   6.861  10.120   6.267 -0.1042 -0.0631 -0.0575
22049W        W38123  14.122  15.867  15.262  0.2089  0.0483  0.1654
22050W        W38124   3.640   4.425   1.718  0.3795  0.0302 -0.2277
22051W        W38125   5.472   9.518   5.086 -0.2951 -0.0629  0.2587
22052W        W38126  12.184  14.756  15.736  0.0559 -0.0889  0.0240
22053W        W38127   8.653   8.806  13.565 -0.3986  0.5736 -0.3126
22054W        W38128  15.830   4.164  11.853  0.0116  0.1853 -0.0702
22055W        W38129  10.496  12.831   5.802 -0.0694 -0.0468 -0.0270
22056W        W38130   1.773  17.126   4.635  0.1613  0.1097 -0.3592
22057W        W38131  17.140   2.859   2.301 -0.1152 -0.1489  0.2520
22058W        W38132   8.421   8.112   2.061  0.1860  0.0996  0.0565
22059W        W38133   7.129   3.958  12.352 -0.0272  0.0732  0.0158
22060W        W38134  15.552   8.739  14.047 -0.0628 -0.0371  0.2499
22061W        W38135  14.350  11.691   3.484 -0.0336  0.0370  0.4203
22062W        W38136  11.537   1.843   6.005 -0.0373  0.0061  0.1349
22063W        W38137  10.337   3.253   2.828  0.1855 -0.2430  0.2465
22064W        W38138   4.404  11.650   2.985  0.1724 -0.0957 -0.1367
22065W        W38139   1.004  13.443  16.738  0.4494 -0.1308  0.1411
22066W        W38140   8.207   1.388  16.648 -0.1092 -0.1187  0.1971
22067W        W38141  13.244   9.621   4.341 -0.1421 -0.1043 -0.1532
22068W        W38142   4.672   7.518   3.517 -0.0001  0.2388  0.0477
22069W        W38143  17.277   2.745   1.464 -0.0947  0.0633  0.0736
22070W        W38144   0.302  12.084   0.909 -0.3496 -0.1993  0.0724
22071W        W38145  10.963  12.520  14.202  0.3099  0.3032 -0.1701
22072W        W38146  10.204  15.171  14.106  0.0069  0.2253 -0.1048
22073W        W38147   2.327  10.686  16.238 -0.1072 -0.1567  0.1352
22074W        W38148   0.850   2.262  16.140 -0.0626 -0.0793 -0.0982
22075W        W38149  10.018  17.254  13.518 -0.0331 -0.0389  0.1908
22076W        W38150   0.095   5.267  13.733  0.1655 -0.1968  0.3933
22077W        W38151  11.602   0.131   0.450  0.2602  0.1854  0.0247
22078W        W38152   5.005   9.205   0.656 -0.5133 -0.0163  0.1669
22079W        W38153   2.219   7.234  12.742  0.0032  0.3884  0.0533
22080W        W38154   2.848   1.678  15.696  0.2596  0.1775 -0.0790
22081W        W38155   3.207   4.904  12.743  0.0461  0.4051 -0.0528
22082W        W38156   5.624   2.236  11.986 -0.1499 -0.2847  0.0238
22083W        W38157   3.689  11.060   2.072 -0.1119  0.3694  0.5068
22084W        W38158   5.227   6.638   2.336  0.3961  0.3010 -0.1430
22085W        W38159   6.618  17.579   1.695 -0.1878  0.1907  0.4731
22086W        W38160  13.556   3.607  16.751  0.0372 -0.0073  0.1455
22087W        W38161   6.314   5.907  13.739 -0.0490  0.0284 -0.2194
22088W        W38162   6.351  15.285   2.343 -0.1591  0.1449  0.0237
22089W        W38163   8.347  10.998  14.552 -0.0141  0.1756  0.1369
22090W        W38164   9.985  16.863   5.387  0.0689 -0.1506  0.2063
22091W        W38165  11.446  15.219  12.616 -0.0222  0.0255  0.2080
22092W        W38166   6.587  16.408   5.559 -0.0218 -0.3529  0.1627
22093W        W38167  13.104  13.847   5.519 -0.0737  0.4667  0.0691
22094W        W38168   5.122  16.841   0.462  0.1430  0.2529 -0.4174
22095W        W38169   3.854  12.075  16.564  0.0011  0.0397 -0.2767
22096W        W38170   0.897  17.791   3.736  0.1407  0.1211  0.1698
22097W        W38171  17.179   8.895   0.261  0.0543  0.1243 -0.0027
22098W        W38172  11.041  16.417   5.928 -0.1126  0.0200  0.0328
22099W        W38173  14.767  12.685   4.405  0.1675 -0.1595 -0.0713
22100W        W38174  17.345  10.135   4.226 -0.4421  0.0359  0.1200
22101W        W38175   3.974  17.442   5.472  0.0913 -0.2436  0.0894
22102W        W38176   3.924   7.761   4.195 -0.0911  0.1636 -0.0786
22103W        W38177  11.892  15.671  15.637  0.0240  0.0489  0.2184
22104W        W38178  12.014   4.018   4.781  0.0326 -0.1960  0.3083
22105W        W38179  14.423  11.052  13.907 -0.1773 -0.0625  0.0491
22106W        W38180   9.422   2.540   1.383  0.0668 -0.0202  0.1858
22107W        W38181  12.033   7.917   2.484  0.1168 -0.0646 -0.1448
22108W        W38182   6.244   0.248   0.807  0.2218 -0.1252 -0.2009
22109W        W38183  11.648  17.029   3.942 -0.0855  0.2448  0.0226
22110W        W38184   2.514   4.313  12.945 -0.1391  0.0314 -0.4420
22111W        W38185  17.452   3.986   3.852  0.0580  0.2377 -0.0344
22112W        W38186   8.366   4.217  12.974  0.0264 -0.1923 -0.2329
22113W        W38187   2.248  11.919  13.694 -0.3747  0.0989  0.2539
22114W        W38188   0.430  16.138   4.405  0.2130 -0.0004 -0.2233
22115W        W38189   4.637  16.985  12.520 -0.2735  0.1412  0.0343
22116W        W38190  11.270   0.655  14.571 -0.0483 -0.1654  0.1482
22117W        W38191   7.418   5.243   3.962 -0.2140 -0.0246 -0.0884
22118W        W38192  16.340   2.311  15.768  0.1045  0.1773 -0.2646
22119W        W38193   1.175   9.746  12.759  0.0537  0.0092 -0.0981
22120W        W38194  16.186  15.197   5.354  0.1539 -0.1081  0.4798
22121W        W38195  10.603  14.793   2.412  0.0434 -0.0784  0.0772
22122W        W38196  14.940  17.598   6.449 -0.2508 -0.2009 -0.0014
22123W        W38197   2.753  14.392   2.004  0.1255 -0.2422 -0.1710
22124W        W38198  12.602  15.969   5.712  0.0210  0.2578 -0.1093
22125W        W38199   3.266  12.086   5.670 -0.1485  0.1103 -0.3255
22126W        W38200   2.379   2.056   5.775 -0.1371  0.2077 -0.3369
22127W        W38201   5.190  12.533   3.539 -0.0411  0.0155  0.0900
22128W        W38202  13.615   8.442   2.117  0.1984 -0.1211 -0.1880
22129W        W38203   0.909  14.795  13.621  0.2255  0.2215  0.1589
22130W        W38204  12.638   3.263   2.103 -0.0359 -0.2840 -0.1056
22131W        W38205   5.351  16.538   4.761 -0.0786  0.0743 -0.0073
22132W        W38206   6.309  14.631   4.843  0.4377 -0.1259 -0.1888
22133W        W38207  14.952   0.373   5.585 -0.1847  0.0293 -0.1665
22134W        W38208   6.895  14.702  12.927 -0.3255  0.0495 -0.0177
22135W        W38209   0.023  11.803   0.032  0.0025 -0.0635  0.0942
22136W        W38210   0.823   7.426   4.699  0.0707  0.0967 -0.2106
22137W        W38211   7.267   2.730  16.000  0.0535  0.1665 -0.2716
22138W        W38212  11.891   9.294   3.982  0.0211  0.0400  0.3129
22139W        W38213   2.296  14.659   2.600 -0.0652  0.3362  0.0334
22140W        W38214   2.339   5.300   5.946 -0.0855 -0.3602  0.1207
22141W        W38215  16.701   7.677   4.446  0.0857  0.2495 -0.2387
22142W        W38216   2.531  11.418   0.004 -0.1693 -0.1178  0.1037
22143W        W38217  12.441   7.457  16.850 -0.0998 -0.1865 -0.0757
22144W        W38218  13.781   9.344  15.056  0.1773  0.0644  0.0641
22145W        W38219   3.374   1.557   1.838  0.1705 -0.1735  0.1249
22146W        W38220   9.752   6.571   3.335  0.2634 -0.0819 -0.1136
22147W        W38221   7.865   9.366  12.026  0.0121  0.0662 -0.0827
22148W        W38222  17.625   0.724   5.005  0.0361 -0.3964  0.1935
22149W        W38223   2.296   4.323  13.872  0.1029  0.1504  0.1991
22150W        W38224  13.590  13.887  16.479 -0.2526  0.1662 -0.0177
22151W        W38225  17.526   2.236   0.720  0.2373 -0.2941  0.3335
22152W        W38226  16.634   5.959   1.703 -0.0362 -0.0490 -0.2547
22153W        W38227  10.790  13.150   4.896 -0.3623 -0.0142 -0.1072
22154W        W38228   1.709   8.940   5.884  0.0608  0.2822 -0.0703
22155W        W38229  12.419  15.164   4.052  0.1261  0.1469  0.0809
22156W        W38230   3.639   6.689   3.047  0.1360  0.0491  0.0100
22157W        W38231   7.032   1.450   0.005  0.0480 -0.0732 -0.1477
22158W        W38232   1.118  12.553  13.294 -0.2066 -0.1794  0.0378
22159W        W38233   8.568   8.385  13.783  0.2327  0.2435  0.0998
22160W        W38234   9.875   4.058   3.051 -0.0735  0.1411  0.0450
22161W        W38235   7.754   7.924  13.745  0.0910  0.3632  0.1387
22162W        W38236   0.240   6.237   0.269 -0.0050  0.1385 -0.0700
22163W        W38237   0.397  14.462   5.881  0.1751 -0.0155  0.1260
22164W        W38238   7.687  13.480  11.646  0.0676  0.1351  0.0186
22165W        W38239  13.964   6.797  16.347  0.0481  0.0698 -0.0411
22166W        W38240  17.161  14.334   4.220  0.0920  0.0837  0.0131
22167W        W38241  16.523  11.766  14.423 -0.1315  0.2710 -0.0369
22168W        W38242  11.890  17.678  14.725  0.0998 -0.4027 -0.0545
22169W        W38243   1.478   7.892  13.043 -0.0458 -0.0072 -0.0185
22170W        W38244   0.115   4.270   0.863 -0.1248 -0.0058 -0.1154
22171W        W38245   3.274  10.792   0.883  0.0704  0.0682 -0.0083
22172W        W38246   7.719  10.084   1.343  0.1156  0.1766 -0.0230
22173W        W38247  17.794  13.879   4.792 -0.0339  0.1978  0.0389
22174W        W38248  13.378   5.941  14.347 -0.0744  0.2300  0.3550
22175W        W38249  14.860  10.352  16.738 -0.3327 -0.2134 -0.1615
22176W        W38250   5.846   1.567   4.020  0.0448 -0.1146 -0.0287
22177W        W38251   9.154  11.595  12.872 -0.1500 -0.0098 -0.1354
22178W        W38252  12.115   4.618  12.330 -0.2311 -0.1899 -0.0805
22179W        W38253   1.080  12.834   4.513  0.1487 -0.3606  0.2343
22180W        W38254   2.574   6.400   0.337  0.0204  0.0932  0.1911
22181W        W38255   1.880   3.148  11.395 -0.1399  0.1504 -0.1146
22182W        W38256   5.892  15.530  11.963  0.0098  0.0714  0.1671
22183W        W38257  15.620  15.809  16.830  0.1674 -0.1333 -0.0375
22184W        W38258  10.100   4.802   2.551 -0.1207  0.1263 -0.0873
22185W        W38259   9.022  16.026   5.442 -0.2973 -0.2668 -0.1070
22186W        W38260  14.821  16.465   6.135 -0.0887 -0.0791  0.0773
22187W        W38261  10.985  12.145   5.335 -0.0191  0.1601 -0.0845
22188W        W38262   1.928  10.059  13.601 -0.4813 -0.2298 -0.0802
22189W        W38263  17.329   7.674   2.579  0.1626  0.1046 -0.0514
22190W        W38264  12.568   6.408  12.532  0.1197  0.1088  0.1138
22191W        W38265  16.650   1.123  16.860 -0.2588 -0.1514  0.1105
22192W        W38266   3.494  14.918   4.868  0.1384 -0.1988 -0.4996
22193W        W38267   8.509   7.100   5.928  0.0171 -0.0349 -0.1089
22194W        W38268   6.804  16.899   0.163 -0.0566  0.2458 -0.2758
22195W        W38269   5.819   8.731   5.048 -0.0006 -0.0236 -0.0516
22196W        W38270   6.972  17.202   5.839  0.1152 -0.0171  0.1866
22197W        W38271   4.117  12.020   3.919 -0.2191 -0.2680 -0.1293
22198W        W38272  14.751   7.594  13.674  0.1880  0.2075 -0.0204
22199W        W38273   9.944   9.604   3.681 -0.2895  0.2153 -0.0137
22200W        W38274  15.976   2.720   1.434  0.0825  0.0093 -0.0144
22201W        W38275  10.034  15.637   2.105  0.0015 -0.1473  0.1629
22202W        W38276   2.349  17.826   1.206  0.1543 -0.0380  0.1663
22203W        W38277  15.166   7.049  15.457 -0.1767  0.0116  0.1049
22204W        W38278   5.323   9.213  13.726 -0.0267  0.1764  0.3052
22205W        W38279   3.514  17.579   2.474 -0.1068 -0.2040 -0.0801
22206W        W38280   9.940  16.081  15.921  0.1086  0.0601  0.1671
22207W        W38281   5.702   7.997   2.373 -0.0517  0.1893  0.1002
22208W        W38282   9.159   0.838  12.456 -0.1774  0.0090  0.1252
22209W        W38283   1.993   7.612  12.930 -0.3486 -0.4344 -0.0214
22210W        W38284   4.948   5.041   4.895 -0.0698  0.2171 -0.2517
22211W        W38285   4.477  13.099  13.846 -0.0133  0.0881 -0.0461
22212W        W38286   7.400   5.124   3.222 -0.2352 -0.1850  0.2075
22213W        W38287  12.327  13.580  12.054 -0.0395 -0.0580  0.0408
22214W        W38288   3.098  14.247   3.501 -0.2661 -0.0664 -0.0236
22215W        W38289   4.239   5.408   2.474  0.2023  0.3743 -0.0527
22216W        W38290  12.105   3.270  15.540 -0.1630 -0.0025  0.1534
22217W        W38291   8.630   2.727  16.063  0.2962  0.3877 -0.3535
22218W        W38292  13.505  14.893  13.240  0.1942 -0.0624  0.1282
22219W        W38293  12.219  12.312  14.733 -0.1598  0.2043 -0.1704
22220W        W38294  11.317   4.909   5.494 -0.2137  0.0234 -0.1003
22221W        W38295  12.722   8.640  13.103  0.0119  0.0964  0.2270
22222W        W38296  11.178   9.350  16.003 -0.0376  0.2019  0.1493
22223W        W38297   9.455   5.542  12.106  0.0948  0.3734  0.0858
22224W        W38298  12.193  10.082  12.049  0.1326 -0.2477 -0.1359
22225W        W38299   3.085  16.963  11.872 -0.0323 -0.0577 -0.0559
22226W        W38300  10.827  10.090  16.600  0.0304  0.0434  0.1682
22227W        W38301   4.327   6.727   3.600  0.2117 -0.3247 -0.0471
22228W        W38302  13.257  16.515   4.698  0.2148  0.0348  0.0342
22229W        W38303   3.123   9.694   3.873  0.0154 -0.1913 -0.0887
22230W        W38304   7.792  15.849   3.629 -0.1136 -0.0757  0.0246
22231W        W38305  10.637  16.809   4.538 -0.0539  0.0218 -0.2081
22232W        W38306   9.587   3.804  15.707 -0.0170 -0.1768 -0.0669
22233W        W38307  12.808  12.112  13.913  0.2035  0.1862  0.0542
22234W        W38308  16.228  14.643   5.273 -0.1452  0.0329 -0.1621
22235W        W38309   9.143  13.098   3.985  0.0635  0.0046  0.3865
22236W        W38310  13.886   8.528  12.487  0.0498  0.0494 -0.1917
22237W        W38311  12.276   6.259  13.051 -0.0352  0.2245 -0.3286
22238W        W38312  14.933  13.545  12.197  0.1594 -0.0600 -0.0229
22239W        W38313   3.048  13.053   3.096 -0.2886  0.0448 -0.1753
22240W        W38314   9.931  14.933   0.857 -0.0322 -0.3334  0.0193
22241W        W38315  14.574  12.770   0.767 -0.0579 -0.0550 -0.1612
22242W        W38316  11.492   4.882   1.036 -0.1908  0.0428 -0.3290
22243W        W38317  10.766   8.017  13.913  0.1775  0.1793  0.1490
22244W        W38318   0.331   2.181   1.581  0.1903 -0.1069 -0.2559
22245W        W38319   9.495  17.121  12.139  0.0608  0.0279 -0.1677
22246W        W38320   4.641  11.511   1.489 -0.0523 -0.2062 -0.3374
22247W        W38321   5.261  11.483   6.084 -0.0422 -0.2873  0.3773
22248W        W38322  17.757   4.313  12.226 -0.0863 -0.1134 -0.2659
22249W        W38323  15.376  11.777   6.365  0.1855  0.1650  0.1796
22250W        W38324   5.964  11.627  15.167  0.1424  0.1863  0.2143
22251W        W38325   6.004   3.843  12.080 -0.0305  0.1639 -0.0242
22252W        W38326  10.024   0.696   1.601  0.1631 -0.0659  0.3292
22253W        W38327   3.189  14.365  12.060 -0.1047  0.0442  0.1208
22254W        W38328   4.329   3.155   4.973 -0.0836 -0.0577 -0.1989
22255W        W38329  15.641  15.083  15.225  0.0750 -0.0489 -0.2912
22256W        W38330  14.924  15.787  14.101  0.1886 -0.1354 -0.1813
22257W        W38331  13.556   6.100   0.048  0.0443 -0.1343  0.1661
22258W        W38332   9.725   2.556  13.289  0.0451  0.2754  0.2837
22259W        W38333   7.419  14.951  13.723 -0.0073  0.1352  0.0190
22260W        W38334   4.719   2.661  14.065  0.3386 -0.1330 -0.0527
22261W        W38335  12.575   7.147   5.371 -0.0668 -0.2927 -0.1568
22262W        W38336  11.493   3.152   1.238 -0.0268  0.0646 -0.3271
22263W        W38337  10.901   5.818   4.249  0.0283 -0.2162  0.1245
22264W        W38338   8.551  10.634   4.363 -0.2470  0.2845 -0.2620
22265W        W38339   7.513   7.538  14.285 -0.1160  0.2659 -0.1262
22266W        W38340  12.089   5.491  13.825  0.2267  0.0254 -0.0624
22267W        W38341  11.194  11.630   5.733  0.1821 -0.0329  0.1230
22268W        W38342   5.591   2.798   5.963 -0.2434  0.2014 -0.0207
22269W        W38343   8.402  13.223   3.676  0.3372  0.5126 -0.0967
22270W        W38344   9.568  10.113  12.366  0.3094  0.2222  0.0121
22271W        W38345  10.684   0.880   0.191  0.1378  0.0204  0.0333
22272W        W38346  13.821  13.674   4.278  0.0496  0.1355  0.2698
22273W        W38347   2.957   4.173  15.617 -0.1708 -0.0947  0.0653
22274W        W38348  10.968   0.541  13.564  0.0236 -0.0592 -0.1596
22275W        W38349  10.579  11.819   2.000 -0.0096 -0.1285 -0.1946
22276W        W38350  14.500   5.762  13.480  0.2324  0.2001 -0.1128
22277W        W38351   7.794   1.744   4.373  0.0901 -0.3265 -0.3765
22278W        W38352  17.710   9.700   2.758  0.1021  0.0743  0.2097
22279W        W38353   5.485  13.705   0.566  0.1078 -0.1455 -0.1438
22280W        W38354  10.278  11.129   2.410 -0.0258 -0.0546  0.5856
22281W        W38355   9.644  12.198  14.535 -0.1654 -0.1563 -0.0617
22282W        W38356  10.001   2.331   0.626 -0.2185  0.0146  0.0614
22283W        W38357   4.609  10.710   4.625  0.2092  0.1432 -0.1398
22284W        W38358  16.245  12.979   5.140  0.0449  0.2101 -0.1302
22285W        W38359  16.700   3.670   2.803 -0.2720  0.1142  0.0422
22286W        W38360  13.822  11.409   2.490 -0.2508 -0.2397  0.0555
22287W        W38361   3.684   7.915   4.635  0.1067  0.1915  0.0251
22288W        W38362   2.752   5.902  12.252 -0.1251 -0.0701 -0.3020
22289W        W38363   7.287  10.703   1.438  0.0822 -0.4125  0.2438
22290W        W38364   9.138   4.106  13.308 -0.0689  0.0790  0.0926
22291W        W38365   8.037   6.079   4.963 -0.1420 -0.0396  0.3067
22292W        W38366   6.792  11.781   5.542  0.2334  0.0089  0.0223
22293W        W38367   7.565   0.988  15.361  0.2217  0.1072 -0.2678
22294W        W38368  13.164   6.262   2.801 -0.1611 -0.3096 -0.2388
22295W        W38369  14.408   8.219   1.449 -0.1505  0.1223  0.1120
22296W        W38370  16.904   4.658  15.183  0.3042 -0.1557  0.3939
22297W        W38371  10.565   5.981   4.622  0.1744 -0.0803 -0.1281
22298W        W38372   7.296   5.786  13.979  0.0907  0.0913  0.1849
22299W        W38373   0.548   0.832   3.059 -0.3247  0.1567  0.1925
22300W        W38374  12.778   8.606   2.572  0.2257  0.0355 -0.0305
22301W        W38375   4.375  10.428  11.598  0.3856  0.1734  0.0272
22302W        W38376  17.024  16.876   0.840 -0.0030 -0.1641 -0.2438
22303W        W38377   3.263   1.437   5.599  0.0174  0.2134 -0.0604
22304W        W38378  14.923   1.783  15.330 -0.5203  0.0920 -0.3653
22305W        W38379  14.385   7.346   4.162  0.0217  0.0601  0.1007
22306W        W38380   9.104   9.156  16.094 -0.0270 -0.1883  0.1523
22307W        W38381  15.211   2.669  14.275 -0.2618 -0.0023 -0.0762
22308W        W38382   9.788   2.141  12.987  0.0404 -0.0010  0.1886
22309W        W38383  11.803   9.702  13.330  0.1847 -0.0535 -0.0078
22310W        W38384   1.275   8.698   4.901 -0.0219  0.0433  0.0153
22311W        W38385   3.529  13.725   5.698 -0.2210  0.2112 -0.1986
22312W        W38386   4.091   4.447  16.513  0.1252 -0.0438 -0.1112
22313W        W38387  16.464  13.665  16.345  0.4861  0.1063 -0.0252
22314W        W38388   4.249  15.883   1.042  0.0949  0.1454  0.0956
22315W        W38389   3.904  17.539  12.802  0.2774 -0.0432 -0.2005
22316W        W38390  14.885   7.104  14.019  0.0808 -0.4210 -0.0960
22317W        W38391  17.755  17.310   1.991 -0.2150  0.1984 -0.3256
22318W        W38392  13.195  12.677  14.580  0.0811 -0.3108 -0.0628
22319W        W38393  13.512   0.032  13.123 -0.0739 -0.0055 -0.1147
22320W        W38394   3.561  16.675   1.708  0.1134  0.1792 -0.1165
22321W        W38395   4.541   6.329  13.766 -0.3354 -0.0600  0.1799
22322W        W38396   3.076   1.746  16.482  0.1045  0.3058  0.2771
22323W        W38397   9.205  15.960  11.484 -0.2921  0.0418  0.2725
22324W        W38398   7.367   6.182   3.833  0.0623 -0.2093 -0.2387
22325W        W38399   2.851  17.713  12.693  0.0206  0.0202  0.1462
22326W        W38400  16.547  11.010  15.395 -0.1425 -0.0007 -0.1967
22327W        W38401   6.207   1.465   2.390 -0.2420 -0.0847  0.0702
22328W        W38402  13.094   7.232  15.176 -0.2214  0.0125  0.1154
22329W        W38403   4.534  10.832  14.214  0.3149  0.1790 -0.0603
22330W        W38404  14.026  15.267  14.470  0.1147 -0.5300  0.4082
22331W        W38405  10.204   3.122   4.427 -0.0158  0.0883 -0.2493
22332W        W38406   8.777   9.326  12.527 -0.0033  0.1291 -0.1420
22333W        W38407  14.011   0.395   1.270  0.1683  0.0260 -0.0774
22334W        W38408  15.499   1.337  16.543  0.0300 -0.0220 -0.1450
22335W        W38409   8.302  16.108   5.150  0.1755  0.0831 -0.0239
22336W        W38410  11.888   1.481  13.270 -0.1955  0.0223 -0.2318
22337W        W38411   6.668  11.874   6.021 -0.0999 -0.1140  0.0810
22338W        W38412   4.301  13.809   1.340 -0.0941  0.1971 -0.2214
22339W        W38413  15.910  13.537   6.259  0.2321  0.0536 -0.3189
22340W        W38414   6.049  12.084   2.772  0.2650 -0.0166  0.0999
22341W        W38415  10.637  15.875  14.589 -0.3182  0.0521 -0.0875
22342W        W38416   7.465  17.444   1.887  0.1091  0.0224 -0.0228
22343W        W38417  16.880   1.218   2.837  0.0833 -0.0765  0.1903
22344W        W38418  17.677   6.510   1.560 -0.0109  0.2138  0.2840
22345W        W38419  16.169   3.415  13.954 -0.4975  0.0105  0.1995
22346W        W38420  13.327  16.764   5.123  0.0618  0.1713 -0.0780
22347W        W38421   4.129  11.681  16.355  0.0949 -0.1408  0.0109
22348W        W38422  17.734   0.744  12.524  0.0790 -0.0834  0.0755
22349W        W38423  10.681   5.224   4.318  0.1263  0.2975  0.0532
22350W        W38424  13.194   9.591   2.428 -0.1765 -0.1698 -0.0758
22351W        W38425  13.980  10.073  12.939 -0.1142 -0.1973  0.0343
22352W        W38426   5.932  13.408  15.634  0.2954  0.2965  0.2452
22353W        W38427   4.397   3.829   4.711  0.0515 -0.0277 -0.6013
22354W        W38428   6.169  12.953  15.596 -0.1823 -0.0715 -0.1612
22355W        W38429   6.777  10.949   0.760  0.3283  0.1114  0.0150
22356W        W38430   9.387  14.637   1.408 -0.1137  0.1515 -0.0932
22357W        W38431   2.064   7.813   5.336 -0.3419  0.3472 -0.2110
22358W        W38432   9.516   6.986  12.259  0.1934 -0.1847 -0.0481
22359W        W38433  16.040   8.098  15.865 -0.1787 -0.1847  0.0996
22360W        W38434   3.886   8.938   1.396  0.1588 -0.4326 -0.5301
22361W        W38435   6.346   5.763  14.607 -0.0120  0.1115 -0.1058
22362W        W38436  13.710  15.187  14.044  0.1746  0.2115 -0.0646
22363W        W38437  11.360   2.211   5.650 -0.0114 -0.0417 -0.3152
22364W        W38438  14.952  17.013   0.483 -0.1453 -0.2442  0.0170
22365W        W38439   6.642  17.703  11.927  0.0759  0.0012  0.1129
22366W        W38440  11.662   9.859   2.058  0.1274 -0.0394  0.1936
22367W        W38441   8.658   9.060   4.745 -0.4078  0.1952 -0.0862
22368W        W38442   5.101   5.135   0.712  0.3317  0.2830  0.1667
22369W        W38443   4.918  16.728   1.697  0.0617 -0.2553 -0.1518
22370W        W38444  17.366  12.315   0.732  0.0026 -0.1010 -0.3694
22371W        W38445   7.642  13.209   1.019  0.1487 -0.0223  0.0562
22372W        W38446   5.051  15.044  16.439 -0.0400  0.0810 -0.1865
22373W        W38447   3.872   7.703   1.332 -0.2240 -0.1928  0.0954
22374W        W38448  10.647  14.709   3.711  0.2213  0.0500  0.0258
22375W        W38449   2.278  12.319  16.551 -0.2582  0.1172 -0.0382
22376W        W38450  17.040   0.868  14.781  0.1969  0.0847  0.1803
22377W        W38451   9.177  14.325   0.494  0.3237  0.2811 -0.1876
22378W        W38452  15.283   4.675   5.868  0.2101 -0.0394  0.1840
22379W        W38453   7.825   8.703   1.435 -0.3223  0.1512  0.0595
22380W        W38454   3.091  15.365  15.154 -0.0805 -0.0828  0.1556
22381W        W38455  11.160  10.447  14.700 -0.0344  0.0448 -0.1349
22382W        W38456  14.760  12.870  14.908  0.0189 -0.0875 -0.1351
22383W        W38457  12.218   8.644   1.733 -0.3085  0.0663 -0.1541
22384W        W38458   4.208  11.467  14.891 -0.0065 -0.0267  0.1958
22385W        W38459  14.254   3.105   3.715  0.0667 -0.1959  0.2706
22386W        W38460   6.307   4.822  12.893  0.0814  0.2095 -0.2430
22387W        W38461   5.321   7.523  15.512 -0.0267  0.1463 -0.2357
22388W        W38462   7.085  10.759  14.049 -0.5611  0.3609  0.1102
22389W        W38463   8.869   6.368  16.942 -0.2694 -0.0264  0.0909
22390W        W38464  13.200   4.506   3.746 -0.1441  0.0002 -0.1520
22391W        W38465   9.053   5.561  16.660  0.1498 -0.2987 -0.1098
22392W        W38466   9.178   0.035  13.093 -0.0684 -0.0400 -0.1474
22393W        W38467  16.178   2.370   2.244 -0.0423  0.0677  0.0303
22394W        W38468   6.094   9.799   1.830  0.1360  0.0330 -0.0280
22395W        W38469   7.803   5.459   3.489  0.1347 -0.3612 -0.0683
22396W        W38470  13.724   5.697   4.359 -0.0825 -0.1487 -0.0372
22397W        W38471  17.153  12.347   3.261 -0.2755 -0.4029  0.0194
22398W        W38472  12.292  16.299   3.758 -0.0409 -0.0363  0.1481
22399W        W38473  15.999   7.048  15.317  0.0673 -0.0275  0.1223
22400W        W38474   5.267  13.208  16.410  0.1550 -0.2324 -0.1230
22401W        W38475  17.553   9.662   2.266 -0.1079  0.0697  0.2079
22402W        W38476   2.386   1.287  11.716  0.2037  0.0072  0.1424
22403W        W38477   6.218   6.949   1.399 -0.0154 -0.0533  0.2011
22404W        W38478   8.585   6.821  16.321 -0.3729 -0.3948  0.4696
22405W        W38479   0.291  15.594  12.143 -0.1964  0.0345 -0.0484
22406W        W38480  15.705  17.838   0.127  0.3931  0.1118  0.0339
22407W        W38481  11.535   0.251  14.740 -0.1386  0.0404  0.0212
22408W        W38482   0.455   6.254   2.541  0.0368  0.0971 -0.1420
22409W        W38483   1.274  17.469   2.718  0.1766  0.0589 -0.1178
22410W        W38484  15.350   0.721  15.893 -0.1343 -0.0119  0.2763
22411W        W38485  16.714  17.552   2.441 -0.1489  0.0741 -0.0590
22412W        W38486   5.890   4.298  12.289 -0.1221 -0.1069  0.1123
22413W        W38487   7.200   7.020  12.613  0.1156  0.2878  0.0760
22414W        W38488   8.693  17.414  13.079  0.1354  0.0260 -0.1885
22415W        W38489   8.702   6.968  12.405  0.0698  0.1082 -0.1654
22416W        W38490   3.322   0.415  13.833  0.0692 -0.1512  0.1499
22417W        W38491   9.127   2.543   2.997  0.1404 -0.1691 -0.0252
22418W        W38492   8.908  15.362   6.399  0.3434 -0.1201  0.0429
22419W        W38493  14.546   7.888   3.608 -0.0307  0.2249 -0.1099
22420W        W38494   3.510   3.361  13.058  0.0532 -0.5119 -0.3077
22421W        W38495   4.937  11.576  15.349  0.1712 -0.1713 -0.0383
22422W        W38496  14.062   9.352   0.609  0.1129 -0.1040  0.0785
22423W        W38497   5.634  17.588   0.432 -0.1568  0.0063  0.0963
22424W        W38498   5.743   8.518   1.830  0.0088 -0.4525  0.0454
22425W        W38499   5.889  14.099  14.420  0.0498  0.1187  0.0722
22426W        W38500   7.645   0.663  15.724 -0.3142  0.0230  0.1358
22427W        W38501   2.456   5.556   0.680 -0.0211  0.5460  0.2577
22428W        W38502   4.984  16.793  12.205  0.2506  0.2898  0.0972
22429W        W38503   5.655   3.629  15.082  0.0017 -0.0421 -0.0058
22430W        W38504   8.033   7.662   2.480 -0.1660  0.0777 -0.1078
22431W        W38505  11.090  15.043  13.034 -0.2934 -0.1184 -0.0188
22432W        W38506   2.527   7.122  14.865  0.2217 -0.3092  0.1968
22433W        W38507  14.619   4.246   0.673 -0.1853 -0.1394  0.0174
22434W        W38508   7.469  17.346   5.732  0.1972 -0.1799  0.0029
22435W        W38509  17.751   4.032  13.028  0.1844 -0.0661 -0.1257
22436W        W38510   4.850   9.156   2.376 -0.5830  0.0109  0.0793
22437W        W38511   0.025   6.664   4.317 -0.1198  0.1734  0.2328
22438W        W38512  15.788   0.951   3.437  0.1725 -0.3158  0.0052
22439W        W38513   4.816  12.279  16.568  0.0415  0.3495  0.0844
22440W        W38514  16.733  17.492  16.008 -0.0340 -0.0334 -0.0364
22441W        W38515   6.893  17.422  16.793 -0.1350 -0.1249 -0.0950
22442W        W38516   9.410  10.181   5.460 -0.0009  0.2222  0.0682
22443W        W38517  15.854  11.036   5.359 -0.2102 -0.1137 -0.1236
22444W        W38518  11.928   3.724  15.688  0.0764  0.1213 -0.0180
22445W        W38519  16.808  13.379   2.017  0.0905  0.0292  0.0331
22446W        W38520   3.570   6.179   4.083 -0.0592 -0.0643  0.0772
22447W        W38521   4.569   0.825  12.138  0.0644  0.0841  0.3465
22448W        W38522   3.920  14.914  11.550 -0.1384 -0.1288 -0.0724
22449W        W38523   0.660   0.209   1.028 -0.1236 -0.1369  0.0964
22450W        W38524  15.573  14.924  16.175 -0.0470  0.1894  0.2701
22451W        W38525   9.892  11.217   5.577  0.1028 -0.1517 -0.3759
22452W        W38526   7.055   3.509   4.558 -0.2470  0.2768  0.1501
22453W        W38527  10.202  10.572   0.939 -0.0592  0.0270  0.3054
22454W        W38528   9.130   8.631   2.522 -0.1257  0.1626 -0.0593
22455W        W38529   7.234  16.264  16.136 -0.2550 -0.0454  0.3424
22456W        W38530   1.744  15.020  16.545  0.1381 -0.2503 -0.2768
22457W        W38531   9.201  15.956  11.982  0.4574  0.0528  0.2699
22458W        W38532  17.801  13.960   1.931  0.2471 -0.1806 -0.0729
22459W        W38533  12.161  11.574  14.231 -0.0803 -0.0688  0.2587
22460W        W38534   9.160   6.590  13.072 -0.0859  0.0256 -0.1419
22461W        W38535  15.012   3.207   1.304 -0.1246  0.0973  0.0393
22462W        W38536  17.443   6.506  11.818 -0.0148 -0.2202 -0.0926
22463W        W38537  15.753   5.496  13.580  0.0176 -0.0438 -0.1270
22464W        W38538  15.956   5.159  15.947 -0.1416 -0.2472 -0.5062
22465W        W38539   1.573   5.180   0.483 -0.1273  0.3034 -0.0146
22466W        W38540   3.344   8.608  14.061 -0.4490  0.0214  0.1519
22467W        W38541   3.982   4.931  16.417 -0.1811 -0.1665 -0.0469
22468W        W38542  14.575  10.937  11.905 -0.3363 -0.1768 -0.1944
22469W        W38543  12.267   3.053   1.789 -0.1362  0.1477  0.1886
22470W        W38544  17.029   5.338   1.300 -0.1683  0.2077  0.0246
22471W        W38545   0.861   9.753  16.316  0.0869 -0.0489  0.1485
22472W        W38546   8.188  14.314  12.690  0.1234  0.0633 -0.1821
22473W        W38547   4.681   5.845   3.182 -0.0419 -0.4165  0.1210
22474W        W38548  11.090   7.567  12.852 -0.4892  0.0797 -0.0897
22475W        W38549   7.828  14.779   1.938 -0.0780 -0.1599  0.3972
22476W        W38550   9.384  12.489  13.028 -0.0218 -0.1556 -0.2441
22477W        W38551  11.233   1.261  16.356 -0.1802 -0.1785 -0.3243
22478W        W38552  10.643   6.643   3.021 -0.0839  0.0184  0.1468
22479W        W38553   9.228   2.981  11.983 -0.0018  0.2565 -0.2890
22480W        W38554  15.593   4.017  16.291  0.1268 -0.0518  0.1461
22481W        W38555  11.625  10.578   4.696 -0.1939  0.2003 -0.1751
22482W        W38556   4.230  16.675  12.596  0.0933  0.0814  0.1866
22483W        W38557  16.128  13.464  13.964 -0.0424 -0.1135  0.2710
22484W        W38558   2.150  10.105  14.570 -0.0648  0.3161 -0.0399
22485W        W38559  15.579   7.361  15.473  0.0299  0.0309 -0.2456
22486W        W38560   9.146  16.697  16.303 -0.2045  0.4801  0.1382
22487W        W38561   0.898  14.472   5.653 -0.1522  0.1552 -0.2951
22488W        W38562   4.579   2.232   2.122  0.1069  0.2232  0.2307
22489W        W38563  10.874  17.409  12.415 -0.1042 -0.0446  0.1381
22490W        W38564  13.164   0.271   1.346 -0.0860  0.0546  0.2542
22491W        W38565   5.776   0.034   4.622 -0.1338  0.3359  0.1779
22492W        W38566  14.661   9.914  16.612  0.1644 -0.3986  0.0918
22493W        W38567   5.521  10.440   2.070 -0.1446 -0.1572 -0.3213
22494W        W38568   6.235  15.219  13.994 -0.2008  0.0478  0.1418
22495W        W38569   3.088  14.863   1.290  0.1748  0.0995  0.0720
22496W        W38570  11.526  11.254  12.428  0.4299 -0.1065  0.1618
22497W        W38571   8.159   8.911  16.646  0.0162  0.0203 -0.3173
22498W        W38572  13.394  13.040   3.946 -0.1141  0.2971  0.2616
22499W        W38573   5.602   6.096  15.217 -0.1978  0.0848 -0.0314
22500W        W38574   9.648  14.678   0.469 -0.4875 -0.0119  0.1155
22501W        W38575   1.357   7.619   0.884  0.1249 -0.1892 -0.1009
22502W        W38576  14.273   4.678  14.531  0.2828  0.1734  0.1228
22503W        W38577  11.018  15.796   0.883 -0.2907  0.0834 -0.0298
22504W        W38578   7.989   9.764  13.079 -0.0679 -0.0628 -0.1983
22505W        W38579   6.668   2.365  15.740 -0.4065  0.0094  0.1391
22506W        W38580   8.755  12.038   5.375  0.2039  0.1476  0.1396
22507W        W38581   7.472  14.308  16.752  0.0673  0.2349  0.0754
22508W        W38582  15.834  16.392   4.218 -0.0260 -0.1698  0.0776
22509W        W38583  17.136   3.527  15.528 -0.0228  0.0327 -0.1625
22510W        W38584  12.492  10.610  16.030 -0.0950  0.0303  0.3631
22511W        W38585  15.019  15.381   4.316 -0.1526  0.2761  0.0250
22512W        W38586   0.554  13.808  16.608  0.1814 -0.3944  0.0279
22513W        W38587   4.934  10.172  13.656  0.2254  0.1398 -0.1259
22514W        W38588   8.756  15.791   3.139 -0.4094  0.1423 -0.0392
22515W        W38589   6.803   8.578  13.411 -0.0705 -0.1976 -0.1341
22516W        W38590  17.124   1.881   0.321  0.1296 -0.1598  0.2219
22517W        W38591   6.783   4.701  13.634  0.0517 -0.0931 -0.0404
22518W        W38592   2.512   8.899   1.761  0.0736 -0.0002  0.3422
22519W        W38593   0.921   0.845   0.528 -0.1473  0.0116 -0.2233
22520W        W38594  17.024   3.667   1.349 -0.0926  0.0956  0.1563
22521W        W38595   9.634   7.690   0.480  0.0362 -0.0530 -0.0016
22522W        W38596  11.784   2.549   1.134 -0.0896  0.0430 -0.0709
22523W        W38597  14.592  12.776   0.249 -0.0447  0.1154  0.0679
22524W        W38598  12.908  16.732   4.412  0.0013 -0.1573  0.0823
22525W        W38599  14.111  14.259  14.182  0.0036  0.0283  0.1291
22526W        W38600   6.558   9.206   4.282  0.1357 -0.2032 -0.0256
22527W        W38601  16.676   1.403  14.190 -0.0169 -0.0551 -0.1703
22528W        W38602   1.254   2.137  12.482 -0.0942  0.2601  0.0190
22529W        W38603  11.092  15.390   3.562  0.0100 -0.0328 -0.4091
22530W        W38604   7.379   0.579   0.401 -0.1008 -0.1631  0.0117
22531W        W38605  10.844   9.041  16.278  0.3277  0.0725  0.0567
22532W        W38606  10.328  11.484   3.918  0.2290  0.1571  0.2726
22533W        W38607   7.193   1.330   5.610  0.0114 -0.0167  0.1560
22534W        W38608   9.271  12.883   5.532  0.1042 -0.0501 -0.1218
22535W        W38609   0.879   5.690   4.885 -0.0405  0.1755 -0.2917
22536W        W38610  15.168   7.964  11.959  0.0420  0.0377  0.1982
22537W        W38611  10.703   2.982  14.365  0.0693 -0.0523 -0.0865
22538W        W38612   7.456  10.516  15.557 -0.3959 -0.2683  0.1594
22539W        W38613  11.895  10.785  11.852 -0.0672  0.2454  0.0064
22540W        W38614   5.311   6.270   0.473  0.1421 -0.1100  0.0905
22541W        W38615  10.669  10.418   4.896  0.0990 -0.0365 -0.0189
22542W        W38616  11.221  12.362  12.069  0.0377 -0.1613  0.0835
22543W        W38617  11.122   6.490   0.375 -0.1301  0.1593  0.0229
22544W        W38618   2.522  10.826   2.927 -0.1876 -0.1822 -0.1490
22545W        W38619  11.620   2.921  12.048 -0.0117  0.1401  0.0831
22546W        W38620  12.592   6.458  14.434 -0.1550 -0.0650  0.1915
22547W        W38621   3.903   2.664  13.569  0.2196 -0.1646  0.0730
22548W        W38622   0.918  11.572  13.995 -0.0693  0.1107 -0.1110
22549W        W38623  14.136  17.775   5.354 -0.0474 -0.0067  0.0441
22550W        W38624  10.353   0.447   4.161 -0.1928 -0.0417 -0.0397
22551W        W38625  11.724  12.925  13.091 -0.3923 -0.0677  0.1966
22552W        W38626   1.220  17.279  16.141 -0.2442  0.1335 -0.2886
22553W        W38627   0.487  11.196  13.817  0.0861  0.0860  0.2455
22554W        W38628   2.356  13.377  14.968  0.0972  0.0369 -0.2538
22555W        W38629  13.346   1.095   0.211 -0.1154 -0.0777 -0.1393
22556W        W38630   1.479  15.067  12.903 -0.1212 -0.0449 -0.1785
22557W        W38631   4.242  17.230   4.453 -0.0091 -0.0944 -0.2786
22558W        W38632  11.710   9.857  12.264  0.1456 -0.1863 -0.1327
22559W        W38633  14.477   0.229   4.287 -0.3184  0.0267 -0.0797
22560W        W38634  12.991  16.692   1.604  0.1005 -0.0324 -0.1160
22561W        W38635   6.914   2.194   4.948 -0.1656 -0.0128  0.0699
22562W        W38636   9.647   6.745  13.146  0.1295  0.1195  0.0522
22563W        W38637   4.359  10.312   1.865 -0.0339  0.1841 -0.1387
22564W        W38638  14.996   2.358   2.595 -0.0778  0.0440 -0.1592
22565W        W38639  13.337  13.477   4.152 -0.0254  0.0262  0.1583
22566W        W38640  16.821   2.761   0.632 -0.0213 -0.0506  0.1945
22567W        W38641   8.523   3.168   4.436 -0.1080 -0.2125 -0.3189
22568W        W38642   8.275   8.024  12.962 -0.0135 -0.0172  0.2249
22569W        W38643   8.157   0.484   3.368 -0.0996  0.1907 -0.1893
22570W        W38644   3.853   6.837   4.429  0.0270 -0.0734 -0.0143
22571W        W38645  15.169   3.951  13.042  0.2797 -0.0554 -0.0996
22572W        W38646   9.856  12.729  13.159  0.0650 -0.0906  0.1809
22573W        W38647   3.141   4.353  12.730 -0.1366 -0.0761 -0.0288
22574W        W38648   0.876   3.101  13.303 -0.1221  0.4026 -0.1482
22575W        W38649   6.751   2.474   2.798 -0.0074  0.1666 -0.0455
22576W        W38650  11.788  11.776   3.189  0.0341 -0.0362  0.1943
22577W        W38651   7.904   9.888   4.060 -0.0537  0.0574  0.2271
22578W        W38652   0.618   2.288   1.997  0.2101 -0.1173 -0.0952
22579W        W38653  17.560   7.241  12.203  0.1259  0.3057  0.1711
22580W        W38654   0.155   7.625  16.042  0.2171  0.2949  0.0447
22581W        W38655  12.657   5.522  12.657 -0.1101  0.1935  0.0750
22582W        W38656  15.538   5.675  15.581 -0.0654  0.2919 -0.0277
22583W        W38657   5.851   3.965   2.845  0.0060  0.1816 -0.2520
22584W        W38658  16.001   4.299  13.517 -0.0930 -0.1748  0.4075
22585W        W38659   8.919  13.054  14.852  0.0987  0.1041 -0.0358
22586W        W38660   9.027  11.534   3.102 -0.0820 -0.4227  0.1258
22587W        W38661   1.111  12.292   3.851 -0.2502 -0.0858 -0.2106
22588W        W38662  17.753  12.580   5.608 -0.1100  0.1404 -0.2460
22589W        W38663   6.047  15.561   3.001 -0.1663 -0.2780  0.1372
22590W        W38664   2.468  14.703  10.051  0.1620  0.0521 -0.2893
22591W        W38665  15.955   4.028  15.481  0.0002  0.0613  0.0546
22592W        W38666  17.627   1.951  12.620 -0.0185  0.2416 -0.0542
22593W        W38667   6.716  16.953  11.338 -0.0808 -0.1856  0.1322
22594W        W38668  16.034   2.868  14.139 -0.0491  0.2438 -0.1987
22595W        W38669   9.497   9.469   2.329  0.1075 -0.1823 -0.3114
22596W        W38670   4.225  16.099   3.543 -0.1689  0.0276 -0.0095
22597W        W38671   9.803  13.778   2.346  0.1131  0.0022 -0.0958
22598W        W38672   5.166  11.648   2.880 -0.3935 -0.1764  0.0484
22599W        W38673   4.818   4.402  12.266  0.3450  0.1364  0.1247
22600W        W38674   0.817  17.229   1.522 -0.0233 -0.1732  0.0079
22601W        W38675   6.983  15.318  13.468  0.0915 -0.0260  0.0995
22602W        W38676   4.111   4.051   0.518 -0.1695 -0.2123 -0.1575
22603W        W38677   2.652  12.740   5.464 -0.0584  0.2982 -0.4282
22604W        W38678  13.102   5.131   5.641  0.3120 -0.3003 -0.3475
22605W        W38679   7.893   3.354   2.707  0.2048 -0.0797 -0.4582
22606W        W38680   4.900  12.374  16.016 -0.2727 -0.3328 -0.2536
22607W        W38681   1.800  16.010   5.265  0.0666 -0.0252  0.1487
22608W        W38682   2.577  14.745   0.072  0.0971  0.2061  0.1906
22609W        W38683   8.653  12.879   0.525 -0.1457  0.1355  0.6112
22610W        W38684  14.443  11.475  15.130 -0.0683 -0.0304  0.1454
22611W        W38685  14.068  10.604   2.838  0.1148  0.2396 -0.1563
22612W        W38686   3.615   5.089  14.853 -0.1105  0.0775  0.1588
22613W        W38687  11.070   4.877  12.457 -0.0106  0.1436  0.0082
22614W        W38688   9.641  10.155  14.692  0.1367  0.1331 -0.0620
22615W        W38689   8.333   1.788  14.553 -0.0459  0.0659 -0.1990
22616W        W38690  10.825  12.735   1.724  0.2041 -0.0753  0.0707
22617W        W38691  13.025  13.597   5.085  0.1092  0.0939 -0.0977
22618W        W38692  10.591   9.785  12.378 -0.2417 -0.2948  0.0947
22619W        W38693  17.291  15.592  16.469 -0.0933 -0.4314 -0.1458
22620W        W38694   2.478   7.477   6.616 -0.2537  0.1608  0.1563
22621W        W38695  13.026   6.271  12.345 -0.1137  0.2310  0.1773
22622W        W38696  14.793   6.301   4.199 -0.1648  0.0505  0.2551
22623W        W38697  12.958   1.626  12.633  0.2767 -0.2084  0.0387
22624W        W38698   2.544   8.921   1.194 -0.2013  0.3945  0.3083
22625W        W38699  14.899   4.243   0.303  0.2396  0.3039  0.1168
22626W        W38700  14.622   1.074  13.205  0.2796 -0.0741 -0.3429
22627W        W38701   1.797   5.161   1.382  0.0710 -0.1410  0.1488
22628W        W38702   3.097  17.680  16.523 -0.1087 -0.0685 -0.1836
22629W        W38703   8.533  12.077   5.816  0.1401 -0.3502 -0.1057
22630W        W38704  11.655   6.141  13.487 -0.1590  0.0819 -0.2436
22631W        W38705   2.476  17.508  11.336  0.2949 -0.0572  0.1424
22632W        W38706  16.838  12.640   3.010 -0.2877  0.0093  0.1053
22633W        W38707  12.066  11.148  12.211 -0.1834 -0.0718  0.1737
22634W        W38708  12.860   4.711  12.749  0.0105  0.2016  0.1569
22635W        W38709  11.602   3.670  13.414 -0.1170 -0.2255 -0.1644
22636W        W38710   7.418  13.069   1.695  0.2896  0.0069 -0.0367
22637W        W38711   5.800   6.034  13.053  0.2472 -0.1955 -0.2760
22638W        W38712  15.964  11.256  16.887  0.3989  0.1251  0.0177
22639W        W38713   8.240  11.483  16.810 -0.1213 -0.0625 -0.0264
22640W        W38714   1.051  10.973   4.189 -0.1299 -0.1703 -0.2299
22641W        W38715   8.635   5.326   5.135 -0.1230  0.3003 -0.0419
22642W        W38716  11.170   0.590  14.027  0.2395 -0.2852  0.0528
22643W        W38717  12.196   6.656   1.255  0.1569  0.1614  0.0247
22644W        W38718   3.426   7.424  11.307 -0.0082  0.1446 -0.4919
22645W        W38719  11.921   7.513  14.797 -0.1064  0.0621  0.1469
22646W        W38720   2.711   5.967  13.292  0.0208  0.0652  0.0811
22647W        W38721   6.857   4.421  14.432 -0.0762  0.2464 -0.1200
22648W        W38722   8.554   8.410  12.765 -0.0914  0.1259 -0.0497
22649W        W38723   3.497   0.480  13.350 -0.1095  0.4097  0.1069
22650W        W38724  11.391  16.649   3.741 -0.0130 -0.4575  0.1235
22651W        W38725   1.119   6.083  16.772 -0.1122 -0.1192 -0.1258
22652W        W38726  10.082  12.503  13.641 -0.1513  0.1233 -0.5548
22653W        W38727   9.189  17.547  12.315 -0.1428 -0.1335  0.2733
22654W        W38728  10.599   2.378  12.369  0.1095  0.0913 -0.0607
22655W        W38729  14.905   6.029   5.028 -0.1328 -0.0221 -0.2202
22656W        W38730   4.708   7.386   4.835  0.1748 -0.0726 -0.1223
22657W        W38731  15.108   9.196  16.508 -0.2504  0.0919  0.0292
22658W        W38732   9.619   9.618  12.208 -0.0437 -0.1397 -0.1090
22659W        W38733   3.641   2.522   1.861  0.2991  0.2298  0.1976
22660W        W38734  13.760   7.249   6.114 -0.3814  0.1358  0.0248
22661W        W38735  10.576   0.906   3.833 -0.2040  0.2123  0.2044
22662W        W38736  15.298  15.048   5.509 -0.0102  0.2310  0.1710
22663W        W38737  16.413  16.066   1.447  0.0940  0.1986  0.0420
22664W        W38738   1.379   7.073   4.208  0.1263 -0.0189  0.2219
22665W        W38739   7.042  13.832  12.059  0.0959  0.1799  0.1774
22666W        W38740  11.095   3.069   4.978 -0.1971 -0.0024 -0.1151
22667W        W38741   1.475  12.335  15.461  0.0656 -0.0768 -0.0290
22668W        W38742  11.597   4.770   5.870  0.0036  0.1162 -0.0013
22669W        W38743  13.486   6.894   0.492 -0.0745 -0.3855 -0.1365
22670W        W38744   9.559  12.510   2.127  0.0837 -0.2311  0.0969
22671W        W38745   7.997  12.936   4.395  0.2470  0.0120 -0.1069
22672W        W38746  14.954   4.120  15.438  0.0745 -0.0031 -0.2213
22673W        W38747   0.308  11.442  12.302  0.2400 -0.0781  0.0163
22674W        W38748  11.940   0.055   4.442 -0.0132  0.3633  0.2303
22675W        W38749   1.064  10.098  12.163 -0.0158 -0.0440  0.2715
22676W        W38750   0.890   9.535   4.582 -0.0371  0.2070  0.3125
22677W        W38751   5.817  12.823  13.412  0.0724  0.0244 -0.0189
22678W        W38752  10.674  13.658   2.704  0.1136  0.0037  0.1119
22679W        W38753  16.994   9.095  13.157 -0.0529 -0.2444  0.1036
22680W        W38754   7.753  14.943   4.431  0.0512  0.1024 -0.3226
22681W        W38755  11.424   4.167   3.833 -0.0692  0.0116 -0.0704
22682W        W38756   3.725   7.489   1.983 -0.2211  0.1822  0.1516
22683W        W38757   0.883  10.045   2.208  0.2588  0.1401  0.1039
22684W        W38758  17.010  15.157   5.338 -0.2443 -0.0401 -0.1838
22685W        W38759   8.669  12.854   1.729  0.1211 -0.0152  0.2211
22686W        W38760  17.755  14.032   0.653 -0.0861  0.1235  0.3639
22687W        W38761  11.281  16.844  11.361  0.1070  0.0853 -0.0089
22688W        W38762   9.602  16.814   0.140  0.6152 -0.1166 -0.1720
22689W        W38763  11.567   9.368  12.103 -0.1941 -0.1642  0.1375
22690W        W38764  16.039  16.655   2.919 -0.2619  0.0530  0.0308
22691W        W38765   0.820  13.211  15.874 -0.2009  0.0459 -0.2104
22692W        W38766   3.012   1.307   4.107  0.2370 -0.2461  0.3318
22693W        W38767   7.436  16.176   2.207  0.0978  0.2109  0.1927
22694W        W38768   7.385  13.955  13.313  0.4320 -0.1294  0.0709
22695W        W38769   3.106  12.076  13.960  0.1708 -0.1530 -0.0293
22696W        W38770  12.400  10.694   0.944 -0.0552 -0.1657 -0.1063
22697W        W38771   5.494  15.827  13.128  0.1045 -0.2839 -0.2010
22698W        W38772   2.309   6.131   2.020 -0.0525 -0.2533  0.0827
22699W        W38773   8.323  15.304   5.658 -0.1204 -0.1509 -0.1245
22700W        W38774  12.851  10.520   3.335  0.1957  0.2379 -0.0227
22701W        W38775   7.976   5.151  14.896 -0.1401 -0.1899 -0.2059
22702W        W38776  13.726   3.725   3.260 -0.1114  0.0489  0.0183
22703W        W38777  11.248  16.265   4.264  0.4513  0.0917 -0.3357
22704W        W38778   2.534   8.843   2.475  0.0071  0.0432 -0.0420
22705W        W38779  16.697  13.431  14.123 -0.0044  0.1401  0.0380
22706W        W38780  16.786  16.836   4.930  0.1458 -0.0387  0.2794
22707W        W38781   0.033  14.820  14.005  0.0021 -0.0049  0.0470
22708W        W38782  13.604   3.122   3.929 -0.2102 -0.1615 -0.1579
22709W        W38783   1.369   9.288   5.648 -0.0877  0.1575 -0.2730
22710W        W38784   5.237   3.272  12.888 -0.1138  0.1995 -0.0888
22711W        W38785   9.591   8.027   2.081  0.0873 -0.0016 -0.2372
22712W        W38786   3.946   1.134  13.733  0.2493  0.2593  0.1465
22713W        W38787  12.233   2.187  14.423 -0.0698 -0.3247  0.1081
22714W        W38788  10.221   2.165  15.252 -0.0675 -0.1316 -0.1025
22715W        W38789   9.643   6.856  14.265  0.1180  0.1917  0.3084
22716W        W38790   8.744   0.171  13.953 -0.0966  0.1671  0.1134
22717W        W38791   9.113   1.323   5.181 -0.2005  0.0922 -0.0272
22718W        W38792  16.878  16.423  16.669 -0.2328  0.1280  0.0362
22719W        W38793  10.469   3.704   2.460 -0.0810 -0.1194  0.1292
22720W        W38794  11.108   5.163   1.305 -0.3557 -0.0687 -0.0584
22721W        W38795   4.844  14.248   3.044 -0.2216  0.1746 -0.1354
22722W        W38796  13.104   1.502  14.993  0.1897  0.0829  0.0758
22723W        W38797   5.372  14.073  14.445 -0.3456  0.5005  0.2233
22724W        W38798   2.663   7.649  16.552  0.1874 -0.2820  0.1738
22725W        W38799  14.111  10.635  14.553  0.0681  0.0490 -0.0471
22726W        W38800  10.991   9.782   3.694  0.3307  0.0260 -0.0374
22727W        W38801  11.887   1.165   1.132 -0.2253  0.1107  0.1242
22728W        W38802  11.038   3.070   4.290  0.0294 -0.0608  0.0374
22729W        W38803   9.710   3.637  14.955  0.2195 -0.0108 -0.0851
22730W        W38804  14.324  10.285   1.261  0.2179 -0.3363 -0.0928
22731W        W38805  15.627   3.704  16.691  0.0087  0.3058 -0.0294
22732W        W38806  11.906  16.734   2.045 -0.0557 -0.1119  0.1042
22733W        W38807   5.357   3.366   1.761 -0.2196  0.1484 -0.1994
22734W        W38808  13.994   7.111  15.905 -0.0458 -0.2628 -0.0240
22735W        W38809  16.516   2.547   4.872  0.1354 -0.1326  0.1324
22736W        W38810  17.555   7.478  15.350  0.1846  0.0771 -0.0934
22737W        W38811  16.746   0.558   0.135  0.0931 -0.2132  0.0616
22738W        W38812   4.216   5.743   3.201  0.2008  0.2032  0.2054
22739W        W38813  10.182  14.095  14.778  0.3085  0.4957  0.0443
22740W        W38814  11.121  14.551  13.787  0.1111  0.0892 -0.1104
22741W        W38815  17.209   6.059  15.223  0.3467  0.2235 -0.4327
22742W        W38816  13.658   8.886  14.160  0.1122 -0.2366  0.0994
22743W        W38817  15.838  12.084   0.918 -0.0756 -0.2068 -0.0865
22744W        W38818  14.048   5.120   3.703 -0.0655 -0.2051  0.1075
22745W        W38819   7.620   0.129  16.549 -0.1928  0.0196 -0.0185
22746W        W38820   6.468   8.307  16.307  0.2615 -0.0205  0.0835
22747W        W38821   8.678   8.366   4.383 -0.1548  0.0865  0.1941
22748W        W38822   6.979   9.656   1.502 -0.2853 -0.0617  0.0563
22749W        W38823   2.413   8.037  16.243 -0.0216  0.2736  0.1609
22750W        W38824   9.560   3.081  12.416 -0.0989  0.1549 -0.1402
22751W        W38825   5.954   8.515   0.055  0.1649 -0.2043  0.2613
22752W        W38826   4.944   9.361   4.921 -0.1048 -0.1883  0.0754
22753W        W38827  14.260   9.525  16.922 -0.0163 -0.0670 -0.1155
22754W        W38828  16.585   0.633   2.603 -0.3525 -0.3396 -0.0398
22755W        W38829   1.559   3.159   1.744 -0.0441 -0.2541 -0.2743
22756W        W38830  16.169  17.416   0.818 -0.2912 -0.2008  0.3407
22757W        W38831  10.745   5.994   2.078  0.3498 -0.0271  0.1271
22758W        W38832   3.590   3.722  11.646 -0.1594 -0.2972 -0.0656
22759W        W38833   8.084   2.824   1.934  0.1956  0.0329 -0.0336
22760W        W38834   5.883   3.631   5.914 -0.1040 -0.0592 -0.1812
22761W        W38835  12.636   9.220  14.966  0.1050 -0.2692  0.0944
22762W        W38836   7.172   8.735   2.643 -0.0011  0.0695  0.1352
22763W        W38837  10.029  16.341  13.284 -0.0789  0.1083  0.2338
22764W        W38838   8.922  15.426  16.321  0.0368  0.0906  0.2356
22765W        W38839  14.780  10.540  12.354  0.5554  0.2062 -0.1431
22766W        W38840   0.434   4.994   5.161  0.0370 -0.0136  0.0415
22767W        W38841  17.572   8.640   5.437  0.2942  0.2995  0.2417
22768W        W38842   2.595   2.116   3.240 -0.0589  0.0958 -0.2592
22769W        W38843   6.911   3.254  15.674  0.0420 -0.1702  0.1633
22770W        W38844  12.666   6.160  13.398 -0.1577  0.0876 -0.0457
22771W        W38845   6.073  10.187   2.898  0.1094 -0.1431 -0.0176
22772W        W38846  17.725   4.102   5.537 -0.0671  0.1521 -0.1773
22773W        W38847   8.638   2.493  13.566 -0.3190 -0.3154 -0.0448
22774W        W38848   0.608  14.994  14.534  0.2000 -0.1962  0.0521
22775W        W38849   9.722   7.600   5.052 -0.1883 -0.3398 -0.1423
22776W        W38850   7.086  14.088   3.892 -0.1665 -0.0130  0.0722
22777W        W38851   2.038  10.248  13.106 -0.3793  0.2193  0.3377
22778W        W38852   0.891   7.881   5.788 -0.1663 -0.2675  0.1393
22779W        W38853   8.109   2.454   5.398 -0.1048  0.1230 -0.0996
22780W        W38854  11.991   9.006  12.288  0.1033  0.0162 -0.2080
22781W        W38855  17.328   7.895  13.687  0.0631  0.0595  0.0078
22782W        W38856   0.086   1.151  12.732 -0.0081  0.1138 -0.2861
22783W        W38857   0.069   9.398   0.813 -0.2216 -0.0220 -0.0763
22784W        W38858  12.857  11.624  12.643 -0.3429 -0.1395 -0.2697
22785W        W38859  10.026  11.341   4.289  0.0560 -0.1354 -0.0694
22786W        W38860   5.889   2.652   4.604  0.1789 -0.0032 -0.0841
22787W        W38861   9.610   9.908   4.475 -0.1328 -0.0739 -0.0205
22788W        W38862  11.480   1.449  15.994 -0.1009 -0.3317 -0.2020
22789W        W38863  11.452  14.224  14.921 -0.2454  0.1787  0.1091
22790W        W38864  12.419  11.648   5.149  0.2353  0.0407 -0.1241
22791W        W38865   7.454   1.871  10.761 -0.3281  0.0085 -0.1593
22792W        W38866   7.098  13.714   5.324 -0.0696 -0.1022 -0.1734
22793W        W38867  12.405   1.376  13.065 -0.1275 -0.2064 -0.3259
22794W        W38868  11.201   4.824  15.396 -0.1134  0.0200 -0.0082
22795W        W38869   9.705   2.714  12.054  0.1573  0.1597 -0.0931
22796W        W38870  11.207  17.210  14.618 -0.0730 -0.2247  0.0294
22797W        W38871   7.758   9.275   1.677 -0.0307  0.1773 -0.0644
22798W        W38872   7.496   1.628  14.009 -0.2993 -0.3337 -0.1319
22799W        W38873  11.385   1.099   5.025  0.2640  0.2076 -0.3090
22800W        W38874  11.893  16.034  16.572 -0.0566 -0.1014  0.0874
22801W        W38875   1.510  16.346   4.995  0.1459 -0.0067  0.3239
22802W        W38876  16.332   0.449  11.921  0.0230 -0.0385  0.0208
22803W        W38877   0.521  17.446  14.969  0.0941  0.0953 -0.0410
22804W        W38878  12.675  10.927  12.247 -0.2558  0.0146 -0.1777
22805W        W38879  15.529   3.638   1.965 -0.1318  0.1793 -0.1045
22806W        W38880  14.429   4.186   1.839 -0.1427  0.0502  0.0748
22807W        W38881  11.145   2.210   4.356 -0.0737  0.1121 -0.0321
22808W        W38882   3.404   0.111   2.753  0.0427 -0.1880 -0.1991
22809W        W38883   1.370   3.307   5.977  0.2754  0.2993 -0.1159
22810W        W38884   1.967  10.910   0.910  0.2136 -0.0908 -0.4362
22811W        W38885   8.118   7.328   4.844  0.1253 -0.1365 -0.0091
22812W        W38886  16.368   8.222  15.024  0.1045  0.1832  0.0004
22813W        W38887  12.776  11.643  13.752  0.4331 -0.0173  0.2092
22814W        W38888  13.930   2.615   3.294  0.3408 -0.0712  0.1441
22815W        W38889   4.218   5.215   6.098 -0.0174  0.0115 -0.1233
22816W        W38890  10.311   2.442   3.261  0.3646  0.3161  0.3003
22817W        W38891  10.923   2.050  12.137 -0.3077 -0.1965  0.0875
22818W        W38892  17.070   6.074  11.794  0.3131  0.0073 -0.1634
22819W        W38893   7.345   6.279   1.140  0.1957  0.0385 -0.0430
22820W        W38894   5.932  17.276  11.895 -0.0727  0.0304 -0.0425
22821W        W38895  15.603  15.963   2.871  0.0133 -0.2293  0.0657
22822W        W38896  10.852  16.478  12.140 -0.3841 -0.0703  0.0609
22823W        W38897  17.118   2.167  13.388  0.2315 -0.3980 -0.0798
22824W        W38898   2.092   6.555   3.774 -0.2077  0.3755  0.1053
22825W        W38899  10.276  16.768  12.103  0.1130 -0.2296  0.0058
22826W        W38900  10.591   5.910   1.140 -0.1874 -0.2409 -0.3566
22827W        W38901   6.478  17.194  14.437  0.1416 -0.0583 -0.0535
22828W        W38902   2.523   7.372   5.441  0.1624 -0.0305  0.0150
22829W        W38903   4.245   2.813  14.068 -0.3167 -0.0880 -0.0727
22830W        W38904   3.054  11.314  15.475  0.2781  0.2541 -0.0976
22831W        W38905   6.556   8.234   2.016  0.1488 -0.0303  0.1414
22832W        W38906   1.065   0.674  13.310 -0.1341  0.0665 -0.0517
22833W        W38907   8.875   0.791   4.015  0.1870  0.2824 -0.1026
22834W        W38908   9.910   5.894   1.706  0.1241 -0.1619  0.0227
22835W        W38909   8.867  16.774   4.975  0.0373 -0.2244  0.0229
22836W        W38910   2.201   0.874  13.206  0.1303 -0.2301 -0.0383
22837W        W38911  11.618   0.845  15.467 -0.1827 -0.0442  0.0067
22838W        W38912  12.496  17.501   1.282  0.2582 -0.0691  0.0056
22839W        W38913   5.368   7.592   2.342  0.0383  0.1905  0.3665
22840W        W38914  16.244  10.290  12.867 -0.2630  0.5480 -0.1076
22841W        W38915   3.792   5.469   6.130  0.4418 -0.2746  0.0701
22842W        W38916   3.235   8.270  13.583  0.2373 -0.2415  0.1402
22843W        W38917  12.670   3.563  16.783 -0.0029 -0.2850  0.0118
22844W        W38918  13.686   5.063   5.558  0.1753  0.1242  0.1099
22845W        W38919   6.255   2.726  14.302 -0.2098  0.3499  0.2294
22846W        W38920  16.940   3.743   0.836  0.0604 -0.2861 -0.2255
22847W        W38921   8.664   6.144  15.685  0.2604 -0.0146 -0.0997
22848W        W38922   0.961  15.820  12.708 -0.0391  0.0091  0.1120
22849W        W38923   5.478   2.936  14.331 -0.0571  0.1062 -0.0593
22850W        W38924   5.894  17.834  14.478  0.0228 -0.1876  0.4876
22851W        W38925   6.291  13.366   2.710 -0.1359 -0.2416  0.1906
22852W        W38926   1.167  11.582  16.921  0.0122  0.3321 -0.0608
22853W        W38927  13.639  14.053  15.141 -0.0246  0.3111 -0.1120
22854W        W38928  10.392  11.270   1.937 -0.1542  0.0807 -0.1628
22855W        W38929   8.381  14.239   1.326  0.2011 -0.0947 -0.2446
22856W        W38930   9.174  15.860   2.284 -0.2231 -0.3047  0.0072
22857W        W38931   2.995   3.033  16.792  0.2305 -0.3837  0.1942
22858W        W38932   9.064   2.315   4.479  0.3288 -0.2524  0.0137
22859W        W38933  16.745   8.382  14.782  0.0952 -0.1740 -0.1516
22860W        W38934  16.815  12.724  13.761  0.0729 -0.0553  0.3679
22861W        W38935  13.425   0.890  14.522  0.0078  0.0964 -0.1361
22862W        W38936  15.764   7.057  14.738 -0.0607  0.3427  0.1207
22863W        W38937  11.202  14.757   3.200  0.0747 -0.0089  0.1334
22864W        W38938  10.532   8.372  13.360  0.2089 -0.0087  0.0910
22865W        W38939  16.966  11.401   1.347 -0.0061 -0.0867 -0.0755
22866W        W38940  13.473  10.710  16.563 -0.1381  0.1556  0.1720
22867W        W38941   6.377   5.372  16.254  0.0855  0.1488  0.0204
22868W        W38942   3.634  15.842  14.604 -0.2210  0.1288 -0.1621
22869W        W38943   9.934  15.575   0.660  0.1855 -0.1293  0.3530
22870W        W38944  13.027  11.117   4.295 -0.2484 -0.3757  0.0845
22871W        W38945  17.152   1.423   0.614 -0.0107  0.1931  0.0206
22872W        W38946  14.437  15.617   2.937 -0.0543 -0.2540 -0.4434
22873W        W38947   0.912   2.048   2.993 -0.0130 -0.1212  0.2445
22874W        W38948   6.146   5.611   1.649 -0.0636 -0.1398 -0.0295
22875W        W38949   8.744   5.001   2.164 -0.1711 -0.2633 -0.1816
22876W        W38950  10.238   9.957  13.519  0.1719  0.3732  0.0265
22877W        W38951   8.912  13.697   2.933 -0.0557  0.1586 -0.2090
22878W        W38952  15.753   0.006  13.459  0.4733 -0.0641 -0.1271
22879W        W38953  16.313  10.676  14.471  0.0629  0.1261  0.1375
22880W        W38954   8.574   0.632  14.017 -0.0294 -0.2235  0.3075
22881W        W38955   3.769  17.079   0.481  0.0458 -0.1661 -0.1420
22882W        W38956   5.373   9.820  12.593 -0.2134 -0.3084  0.3473
22883W        W38957  15.788   8.824  12.013  0.3153  0.1907  0.2191
22884W        W38958   4.457   5.269   4.730  0.2707  0.0451  0.0590
22885W        W38959  10.878  12.654  15.309 -0.0926 -0.3782  0.0999
22886W        W38960   0.008   0.222  12.942  0.0586  0.2056  0.0270
22887W        W38961  14.870   9.504   3.019 -0.0242  0.0861 -0.1301
22888W        W38962  10.750   7.040   4.507 -0.0992  0.0636  0.1334
22889W        W38963  13.243  10.176   3.161  0.0172  0.1427  0.3380
22890W        W38964  12.117   4.773   5.653  0.0018 -0.0504 -0.0346
22891W        W38965   1.836  10.721  13.192  0.0717  0.1402 -0.1314
22892W        W38966  11.470  13.068  12.703 -0.1180 -0.0622 -0.3133
22893W        W38967  10.895  17.001  13.316  0.1036 -0.1313  0.0912
22894W        W38968   9.412   1.262  16.564  0.0169  0.3884 -0.1377
22895W        W38969   1.535   9.382   3.395 -0.0927  0.0245  0.0917
22896W        W38970   6.954  15.518   5.989  0.1193  0.1603  0.0488
22897W        W38971   8.444  12.636  15.242 -0.1621 -0.2095  0.0006
22898W        W38972  15.457   9.325  16.182 -0.0212 -0.2044 -0.0151
22899W        W38973   1.689   4.290   3.935 -0.0270 -0.0155  0.3434
22900W        W38974   3.794   0.627   1.954  0.0505 -0.0383  0.2046
22901W        W38975  10.184   6.961   3.772 -0.2930 -0.0884  0.1676
22902W        W38976   5.031   6.698   5.168  0.3443  0.0438 -0.0377
22903W        W38977   4.845   8.452   6.094 -0.0721  0.1790  0.0038
22904W        W38978  16.736   6.616   0.670  0.0475  0.1058  0.0543
22905W        W38979   3.955  16.508  11.939  0.0306  0.1959 -0.0846
22906W        W38980  13.317  16.382   2.839 -0.0396 -0.1788 -0.3426
22907W        W38981   8.533   0.543  13.069  0.0127 -0.2887  0.0868
22908W        W38982   1.293   1.480  13.107  0.2709 -0.1479 -0.1214
22909W        W38983   9.170   4.235  13.800  0.0869 -0.3094  0.2113
22910W        W38984   3.987  12.342  12.800  0.3149 -0.1819  0.1190
22911W        W38985  13.894   4.060   5.374  0.0701  0.3083 -0.2736
22912W        W38986  15.333   9.461   1.789  0.1382  0.3106  0.3071
22913W        W38987   4.329  15.572  15.384  0.1089  0.3094 -0.2901
22914W        W38988   7.884  14.360   3.067 -0.2034 -0.1644  0.1098
22915W        W38989   2.556  17.616  15.074 -0.0882  0.1137 -0.1113
22916W        W38990  13.103   1.238  13.902 -0.2307  0.0549 -0.0301
22917W        W38991  10.293   3.552  13.468  0.0746  0.0591  0.1781
22918W        W38992   0.255   8.150   3.970  0.0749  0.0275 -0.0822
22919W        W38993   2.318  15.616  16.319 -0.2651  0.2366 -0.3228
22920W        W38994  11.845  14.692  14.070 -0.1798  0.0033 -0.0272
22921W        W38995  15.938   4.309  15.884  0.1095  0.2113  0.3069
22922W        W38996   9.052   6.941   4.395 -0.0958 -0.3391 -0.1561
22923W        W38997   5.383  15.129  12.283 -0.1404 -0.0432 -0.1720
22924W        W38998  16.473  10.312  14.857  0.0794 -0.2573  0.0901
22925W        W38999   8.843  13.712   1.692  0.1483 -0.0243 -0.0882
22926W        W39000   1.120   4.729   2.151 -0.0851  0.1113 -0.0381
22927W        W39001   0.674   6.384  13.054  0.2965 -0.2284 -0.1507
22928W        W39002   1.605   2.711   3.958  0.0273  0.1229  0.1770
22929W        W39003  15.426   1.977  12.494 -0.0173  0.1845 -0.1884
22930W        W39004   6.054  12.693  13.849 -0.0356 -0.1372  0.2377
22931W        W39005  17.285   5.487  15.236 -0.4701  0.0203 -0.1420
22932W        W39006  15.610   1.390   4.358  0.2834  0.2394  0.0914
22933W        W39007  17.524  11.134   4.632 -0.1264 -0.1020 -0.1984
22934W        W39008   0.622  17.330   3.530  0.0953  0.0880 -0.1893
22935W        W39009  12.731  13.955   2.415  0.0502  0.2035  0.1332
22936W        W39010   8.783  13.005  13.999 -0.1113  0.2287  0.2948
22937W        W39011   5.834   3.078  13.602  0.2379  0.0394 -0.2590
22938W        W39012  14.855   3.822   3.095  0.1183 -0.1545  0.2127
22939W        W39013  15.270   7.329   3.827 -0.0925  0.0528  0.0176
22940W        W39014  12.826  15.384   3.961 -0.2341 -0.1328 -0.0835
22941W        W39015  13.358  15.590   3.834 -0.4010 -0.3545  0.1565
22942W        W39016   7.077   1.231   3.717  0.0099  0.2501  0.4015
22943W        W39017   5.184   9.621   0.335  0.0490 -0.0574  0.0885
22944W        W39018  11.731  11.910  14.028  0.0276 -0.3405  0.2548
22945W        W39019  15.519   2.479  13.880 -0.0592  0.2249 -0.0477
22946W        W39020   6.770   2.431  11.484  0.1773  0.2073 -0.2953
22947W        W39021  10.109  10.172   1.906  0.0137  0.0666 -0.1762
22948W        W39022   7.254   6.768   1.767 -0.2412 -0.1407  0.1842
22949W        W39023   5.024   4.345   2.322 -0.0411  0.0520  0.0176
22950W        W39024  14.446  11.632  11.991 -0.2480  0.1082 -0.2113
22951W        W39025   5.349   4.515  15.792  0.0433 -0.1196  0.3676
22952W        W39026   6.460  14.163   4.688  0.1987  0.4439 -0.0890
22953W        W39027  12.006  15.283   2.842  0.0241 -0.0714  0.1615
22954W        W39028   1.467  14.670  11.652 -0.0422 -0.0710  0.2729
22955W        W39029  10.297  15.093   1.303  0.1130  0.1830 -0.0528
22956W        W39030  10.268  13.454  13.279  0.0638  0.0278  0.0322
22957W        W39031   3.651   2.988  14.130  0.2857  0.1150 -0.3436
22958W        W39032   3.302  14.513   1.999  0.1032  0.2160  0.2055
22959W        W39033   2.761   0.796  16.378 -0.1849 -0.0996 -0.1399
22960W        W39034  13.662  10.593  13.852 -0.2348 -0.2746  0.1070
22961W        W39035   7.374   1.143   6.356 -0.3660 -0.0894  0.1709
22962W        W39036   5.590   9.817   2.641 -0.1407 -0.1240  0.3660
22963W        W39037  14.848   8.162  13.476 -0.4493 -0.0273 -0.3177
22964W        W39038   0.715   6.541   2.163  0.0727 -0.0604  0.0632
22965W        W39039  10.629  14.432   0.025  0.0885 -0.2750  0.3307
22966W        W39040  16.446   5.033   2.773  0.2711  0.0730  0.0421
22967W        W39041   3.633  13.184   4.248 -0.2929  0.1195 -0.1199
22968W        W39042   0.445   6.733  13.521 -0.1623  0.0849  0.0233
22969W        W39043   9.428  11.461   0.479  0.1720 -0.3070 -0.0585
22970W        W39044  13.928  10.679   3.385  0.0523  0.1047  0.0776
22971W        W39045   5.917   6.723   5.002 -0.0130 -0.0181 -0.1646
22972W        W39046   6.619   5.514   4.860  0.0401  0.1600  0.0693
22973W        W39047   0.127   2.113   3.738  0.1121  0.1038  0.2040
22974W        W39048   7.516   8.280   0.612  0.1831 -0.1113 -0.0462
22975W        W39049   9.661  12.865   0.629 -0.2705  0.1542 -0.2164
22976W        W39050  17.750  10.542  16.359  0.2960 -0.3670 -0.1225
22977W        W39051  16.570  16.251  12.570 -0.0562  0.1958  0.1951
22978W        W39052  12.774  15.868  11.954  0.0828 -0.3465 -0.1268
22979W        W39053  15.200   5.793   1.338  0.3255 -0.0812  0.1310
22980W        W39054  15.886   6.635   4.889 -0.1287 -0.4806  0.0929
22981W        W39055  13.371  11.483   4.202 -0.3680  0.1104  0.0740
22982W        W39056   1.018  16.210   0.570 -0.1257 -0.1008  0.0384
22983W        W39057   7.897   5.437   0.281 -0.4524 -0.0040 -0.0118
22984W        W39058  13.747   0.975  13.087  0.0850 -0.2081  0.0490
22985W        W39059  17.701  11.564   4.760  0.0019  0.1362 -0.0724
22986W        W39060   4.783   9.534   1.899  0.1782  0.0888 -0.0495
22987W        W39061   2.412   8.139  13.852 -0.2569 -0.0606  0.1591
22988W        W39062   4.618   2.693  14.978  0.1338  0.0732 -0.2950
22989W        W39063   3.473  12.462  14.678 -0.0989  0.2650  0.2917
22990W        W39064  16.753   0.682  15.989  0.1803 -0.0064 -0.0517
22991W        W39065   3.759   3.811  12.115  0.1879 -0.1527 -0.2081
22992W        W39066   6.492   4.965   3.394  0.0282  0.2690  0.1349
22993W        W39067   3.188   0.477  12.129 -0.0786  0.2741  0.0418
22994W        W39068   8.903   0.780  11.683  0.0124 -0.1822 -0.0990
22995W        W39069  12.010  13.922  16.061 -0.0288 -0.2676 -0.2553
22996W        W39070  15.795  16.549  13.211 -0.2440 -0.0727 -0.1165
22997W        W39071   5.576  16.906   4.959  0.3182 -0.0776  0.0069
22998W        W39072   2.113  17.545   2.087 -0.0932 -0.0023  0.1924
22999W        W39073   1.205   6.093  13.927  0.1422 -0.1728 -0.1190
23000W        W39074  11.869   1.002   3.424  0.2825  0.3727 -0.0107
23001W        W39075   9.415  13.019  16.779 -0.0877  0.1468 -0.1071
23002W        W39076   7.243  16.768  13.982 -0.0271 -0.1277 -0.3048
23003W        W39077  15.940   8.193  14.756  0.0505 -0.0936  0.0061
23004W        W39078   3.331  11.726  15.337 -0.1026 -0.0799  0.0838
23005W        W39079  17.551   9.751   6.190 -0.1503 -0.1624  0.2439
23006W        W39080   8.887   7.509  13.225  0.0849 -0.0289 -0.1136
23007W        W39081   6.321   2.859   1.427  0.0672 -0.0675 -0.0737
23008W        W39082  12.317  17.789   5.381 -0.2763  0.2887  0.1528
23009W        W39083   2.334   4.528   5.374 -0.2869 -0.2227  0.0698
23010W        W39084  10.664  13.196   1.966 -0.3870 -0.0021 -0.0555
23011W        W39085   0.290  11.030   1.778  0.3448 -0.0740  0.2340
23012W        W39086  16.453  13.854  15.499 -0.1022  0.0400 -0.0424
23013W        W39087   1.426  10.340  13.959  0.2361 -0.1483  0.1185
23014W        W39088   2.116   2.834  13.779 -0.1112 -0.1088 -0.2259
23015W        W39089  10.105  13.699   1.492  0.3901 -0.1519  0.0506
23016W        W39090  11.697   9.957  16.531 -0.1806 -0.0982 -0.1683
23017W        W39091  11.865   5.933  11.775 -0.2975 -0.0134 -0.1504
23018W        W39092  17.615   8.971   3.455  0.0430  0.1805  0.0169
23019W        W39093  17.054  14.063   0.853 -0.0902  0.0365  0.0069
23020W        W39094   2.357   5.597  15.770  0.2750  0.0263 -0.2407
23021W        W39095  17.696   3.848   5.059  0.0741  0.2343 -0.2939
23022W        W39096  14.161   4.567  11.573 -0.0310  0.0445 -0.0625
23023W        W39097  12.113  15.668  14.303  0.2681  0.0145  0.0203
23024W        W39098  14.365   9.508  13.304 -0.1099 -0.0972  0.0943
23025W        W39099   7.528   1.428  16.552  0.3450 -0.1535  0.1299
23026W        W39100   7.588  15.914  12.249 -0.3535  0.1681 -0.1963
23027W        W39101   0.177   8.678  15.663 -0.1392  0.2295 -0.0759
23028W        W39102   6.795  13.677  13.395  0.2842  0.2031  0.0942
23029W        W39103  16.103   4.966  12.799  0.0285 -0.0315 -0.1711
23030W        W39104   1.530   5.975  16.483  0.2461  0.4004 -0.1137
23031W        W39105  14.036  11.810   1.121  0.0014  0.1663  0.0059
23032W        W39106  10.937   8.012  16.214 -0.0096  0.1984  0.1234
23033W        W39107   1.877  11.359   2.409  0.1848 -0.1583 -0.0375
23034W        W39108   4.970  12.620   0.417  0.1288  0.2326  0.3152
23035W        W39109   9.555   6.818  11.711  0.2043  0.2067  0.2178
23036W        W39110  13.977   3.310   2.979  0.2391 -0.2872 -0.2561
23037W        W39111   4.778   7.885   1.180 -0.0986  0.1374 -0.1041
23038W        W39112   7.980  10.265  12.899 -0.2107 -0.0999 -0.1122
23039W        W39113   7.490   8.344  11.498  0.0584  0.1934 -0.2697
23040W        W39114  11.143   5.330  15.500  0.2339  0.1664 -0.0131
23041W        W39115   5.232  15.139   6.046  0.0107 -0.2093 -0.0146
23042W        W39116  16.055  12.988   1.375  0.1025  0.3993  0.0679
23043W        W39117   2.928   1.780   4.916 -0.0040 -0.2629  0.1910
23044W        W39118   1.250  10.665  14.723  0.1650 -0.0089  0.1344
23045W        W39119   4.414  15.955   1.688  0.0370 -0.2521 -0.0190
23046W        W39120   3.500   2.180  12.321 -0.0651  0.2108 -0.0796
23047W        W39121   0.004   7.098   2.401 -0.2335  0.1270 -0.0192
23048W        W39122  15.564  16.950  13.300  0.1453 -0.1655 -0.0388
23049W        W39123   2.195  11.948   0.007 -0.2398 -0.0369 -0.1477
23050W        W39124   4.694  12.936  15.877  0.0850 -0.1543  0.1189
23051W        W39125   0.867   5.653   5.470 -0.2586  0.0735 -0.0304
23052W        W39126  10.419  15.628   4.033 -0.1874  0.0219  0.0760
23053W        W39127  14.230   8.363   5.135  0.0609 -0.0133  0.0935
23054W        W39128  14.490  14.059  11.906  0.0814  0.2343  0.1337
23055W        W39129  12.607  13.125   4.571  0.0207  0.3248  0.1511
23056W        W39130  16.160  11.958   5.072  0.0014  0.0518 -0.0266
23057W        W39131  13.371   7.836  15.942 -0.0171 -0.0445 -0.0941
23058W        W39132   0.041   3.735  13.990 -0.0720  0.1802  0.4627
23059W        W39133  16.378  15.804  12.423 -0.0911  0.1688 -0.0246
23060W        W39134  12.331   6.957  16.814  0.0323  0.3134  0.0642
23061W        W39135   3.995  17.572   0.424  0.1443 -0.1803  0.2362
23062W        W39136   0.278   1.753   0.576  0.2735  0.0455 -0.0707
23063W        W39137   0.643   9.362  11.819 -0.0433  0.2525 -0.1752
23064W        W39138  14.799   7.477  16.023 -0.1544  0.2878  0.1588
23065W        W39139   2.464   0.706  12.134  0.0891  0.1582  0.0124
23066W        W39140  14.904   5.812  14.659 -0.2934 -0.1113  0.1792
23067W        W39141   3.866  16.361  12.368  0.1884  0.1398 -0.1343
23068W        W39142  17.769   4.391  14.484 -0.0570 -0.1870 -0.3051
23069W        W39143  12.127  14.088  12.692 -0.2980  0.2502  0.0791
23070W        W39144   4.070   0.227   1.844 -0.0403 -0.0686 -0.0069
23071W        W39145   5.331  13.469  11.817  0.0417 -0.3383 -0.0619
23072W        W39146   7.647  13.303  13.637 -0.1562  0.1289 -0.2394
23073W        W39147  12.299   8.856  13.284  0.1461 -0.0997  0.0454
23074W        W39148   2.332  12.590  14.032 -0.3758 -0.0039 -0.0931
23075W        W39149  10.194  14.909  14.579 -0.1215  0.1711  0.0346
23076W        W39150  16.319   7.221  14.949  0.1403  0.1840 -0.3038
23077W        W39151   0.054  16.168   5.330 -0.2033  0.0314  0.0619
23078W        W39152   1.688   1.499   3.801 -0.1645  0.2033  0.3282
23079W        W39153   1.314  12.939   0.785  0.1895  0.3565  0.2201
23080W        W39154   0.109  17.315  14.636 -0.1491 -0.0336 -0.0971
23081W        W39155   2.602   7.236  16.887 -0.3145 -0.3806  0.0766
23082W        W39156   5.779   4.668  13.383  0.0912  0.2358 -0.1886
23083W        W39157   3.256   5.971   3.298 -0.1389  0.1183 -0.0331
23084W        W39158   2.914  16.456  14.592  0.0744  0.0984 -0.1894
23085W        W39159  17.071  17.244   0.370  0.0096 -0.0973 -0.1518
23086W        W39160   0.465  15.956  13.026  0.1267  0.2954  0.0461
23087W        W39161  13.274  10.336  10.947 -0.1427 -0.1952 -0.0613
23088W        W39162  14.880   0.912   1.456  0.0023  0.0906  0.4564
23089W        W39163  12.740   1.822   0.828  0.1950 -0.0383 -0.0611
23090W        W39164   0.093   8.469   0.063  0.0155 -0.0189 -0.0253
23091W        W39165   1.465   5.462   3.357  0.1319 -0.4477 -0.0698
23092W        W39166   1.243   2.322  15.882  0.3420  0.2085 -0.0477
23093W        W39167   5.057   1.070   3.868  0.2043  0.0953  0.1871
23094W        W39168   3.078   1.563  16.937 -0.0965  0.0543  0.1027
23095W        W39169  12.839  15.086   3.155 -0.1523 -0.1437 -0.0116
23096W        W39170   6.936   6.827  15.227  0.2182  0.0641 -0.3346
23097W        W39171   4.493   5.004  12.765 -0.2809 -0.0107  0.0373
23098W        W39172  13.426   5.277   5.196 -0.2302 -0.1843  0.2909
23099W        W39173  10.502   3.921  16.965  0.1447 -0.0911  0.1384
23100W        W39174   8.200  15.367  16.890  0.1751  0.1666 -0.2096
23101W        W39175  11.522   0.498   3.943  0.1106  0.2854 -0.1277
23102W        W39176  12.639   1.303  16.343  0.0940  0.0505 -0.0542
23103W        W39177   6.883  10.686   3.248 -0.0457 -0.0896 -0.0277
23104W        W39178   4.188   7.235   0.691 -0.1264 -0.0705  0.0959
23105W        W39179  14.891   3.434  16.070 -0.1092 -0.1329  0.0650
23106W        W39180   8.130   4.678  13.809 -0.1281  0.1210  0.1641
23107W        W39181  16.174   8.156   0.482  0.0472  0.3827  0.1992
23108W        W39182   1.407   2.246   0.391  0.1611 -0.2993 -0.2364
23109W        W39183  12.253   2.566   0.446 -0.2651 -0.1793 -0.0671
23110W        W39184  16.734   2.333  16.182 -0.0994  0.1070  0.1273
23111W        W39185   6.875   7.559   5.178  0.1858  0.4575 -0.0882
23112W        W39186  12.269   9.983   5.709 -0.0885  0.0845  0.4813
23113W        W39187   1.115   5.609  13.831 -0.2736 -0.0095  0.1725
23114W        W39188   4.571  10.685  12.006 -0.0660 -0.0485  0.1403
23115W        W39189  15.150   3.428  14.188 -0.0292  0.0227  0.2379
23116W        W39190  15.718  13.773   3.801 -0.0791 -0.0647 -0.2070
23117W        W39191   4.193   5.447  12.506  0.3599 -0.0370 -0.1540
23118W        W39192  16.180   1.236  13.447  0.1388 -0.0960 -0.1296
23119W        W39193   5.825   0.594   0.020  0.1392  0.2433 -0.0778
23120W        W39194   3.377  11.071  12.539 -0.0536 -0.0499 -0.0671
23121W        W39195  13.814  16.141  13.287 -0.2016  0.0383  0.0025
23122W        W39196  11.172  11.642  12.327 -0.1947  0.1578 -0.2414
23123W        W39197   8.361  11.508  14.359 -0.1978  0.0881  0.2968
23124W        W39198   9.675  17.069   4.386 -0.0298 -0.1209  0.2791
23125W        W39199  14.142  15.500   4.322  0.0641  0.0623  0.0507
23126W        W39200   2.117   3.167   4.583  0.0529  0.0941 -0.2873
23127W        W39201   2.511   0.637   2.007  0.0958 -0.1318  0.0612
23128W        W39202  10.244  13.106   5.452  0.1956 -0.0181  0.0075
23129W        W39203   2.043  10.525   1.682 -0.2848 -0.0013  0.3140
23130W        W39204  11.442   0.456  16.168 -0.2346 -0.5513 -0.1153
23131W        W39205   9.033   5.039   5.313 -0.1580  0.0249  0.0201
23132W        W39206   1.247   5.165   2.501  0.0449 -0.1388 -0.0254
23133W        W39207  16.842   3.254  12.365  0.2114 -0.0408  0.5195
23134W        W39208   2.983  11.308  12.740  0.0041 -0.1998 -0.0143
23135W        W39209   0.452  10.934  12.055  0.3445  0.1525 -0.1850
23136W        W39210   3.815   6.397  13.555  0.2787 -0.1407  0.2162
23137W        W39211   6.237   7.969   4.682  0.0390 -0.0808  0.1093
23138W        W39212  17.621   1.960   2.875  0.3046  0.1581  0.1528
23139W        W39213   1.211  13.200   0.150  0.2960  0.0028  0.2410
23140W        W39214   4.275  17.575  14.657  0.1194 -0.1225 -0.1848
23141W        W39215  13.932  11.411  15.194  0.1080 -0.0453 -0.0972
23142W        W39216   2.759  11.439  16.474 -0.0410  0.1566 -0.3308
23143W        W39217   9.419  16.654  12.350  0.1928  0.1225 -0.0103
23144W        W39218  16.563   6.106   2.638 -0.4472 -0.2196 -0.2149
23145W        W39219   3.990  10.007   0.861  0.0115 -0.1634 -0.0841
23146W        W39220   4.316   6.054  16.632  0.0409  0.0280  0.0777
23147W        W39221  17.738   8.815  13.417 -0.0949 -0.1459 -0.0932
23148W        W39222  13.248   7.227   2.705  0.1903  0.0128  0.1136
23149W        W39223  16.502   5.832  12.599  0.0796 -0.0853  0.1473
23150W        W39224   8.987   8.312  14.642 -0.1656  0.1820 -0.0883
23151W        W39225   5.117  11.536   4.661 -0.2120 -0.0090 -0.0701
23152W        W39226  11.085   9.613  13.502  0.2488 -0.0089  0.1040
23153W        W39227   4.326   4.401   1.106 -0.0943 -0.2457  0.0608
23154W        W39228  11.262  14.269   1.167  0.0231  0.3405 -0.3273
23155W        W39229   2.206   2.860   6.075 -0.0525 -0.1037 -0.2429
23156W        W39230   6.393  15.708  11.895 -0.0418  0.1442  0.2904
23157W        W39231   3.448  17.635   3.374  0.2112 -0.0110 -0.0743
23158W        W39232  15.208   2.660   0.311 -0.1424  0.0436  0.0545
23159W        W39233   4.224  11.039   4.347  0.3957 -0.2347  0.1257
23160W        W39234  13.696   6.692   4.478 -0.1258  0.2473 -0.0749
23161W        W39235  13.879   2.575   0.785 -0.2094  0.0806  0.0120
23162W        W39236   6.736   5.410   2.337  0.3641 -0.1414  0.0101
23163W        W39237   7.226   7.008   3.125  0.1338  0.0418  0.1478
23164W        W39238   3.931  12.255  14.668  0.1607  0.2077  0.1280
23165W        W39239  11.314  17.581   2.673  0.2602 -0.0635  0.1447
23166W        W39240  14.743   9.430  14.087  0.0093  0.2361  0.1218
23167W        W39241  16.387  15.304   2.875  0.0771  0.1128  0.6185
23168W        W39242  12.910   5.270  14.195  0.0997  0.2967  0.2300
23169W        W39243  15.027   1.979  12.110  0.2490  0.0972 -0.4064
23170W        W39244  10.545  11.973  14.797  0.2515  0.2794 -0.0811
23171W        W39245  13.733  13.780   1.506  0.1529  0.0569 -0.0035
23172W        W39246   7.121  16.068  12.140 -0.4324  0.4338 -0.1272
23173W        W39247  12.692   2.744  15.670  0.0505 -0.0918 -0.1701
23174W        W39248  15.038  10.346   1.953 -0.1442  0.1121 -0.1303
23175W        W39249  16.970  11.412   0.845  0.2036 -0.1264 -0.2826
23176W        W39250   4.515   0.969  10.220  0.4069 -0.2379 -0.1571
23177W        W39251   1.921   0.724   3.376  0.2246 -0.1527 -0.3594
23178W        W39252   3.588   4.075  12.467  0.2645 -0.1218 -0.1592
23179W        W39253   7.219  10.282   2.479  0.0972 -0.0662 -0.0522
23180W        W39254   8.932  13.053  16.587  0.0811 -0.0942 -0.3276
23181W        W39255   6.489   6.174   0.593  0.1621 -0.0424  0.2174
23182W        W39256   7.299   4.779  16.879 -0.1235 -0.0391 -0.0807
23183W        W39257  11.614  14.291   0.442 -0.1659  0.2046 -0.0145
23184W        W39258   8.821   6.127   1.138 -0.1319  0.0040 -0.2915
23185W        W39259  14.386  10.862   4.583 -0.0207  0.2041  0.4030
23186W        W39260   3.425   2.736   3.518  0.2170  0.1707  0.1463
23187W        W39261  16.582  13.765   1.488  0.2745  0.0148 -0.0433
23188W        W39262  14.402   6.516   3.324  0.1808  0.1340 -0.0753
23189W        W39263   0.852  13.754  14.846  0.0393  0.0206 -0.2798
23190W        W39264   3.609   7.659  15.999 -0.1209 -0.1570 -0.0681
23191W        W39265   7.614  17.627   5.153  0.0946 -0.2037 -0.0610
23192W        W39266   5.438   5.938  14.780  0.2991  0.0038  0.1118
23193W        W39267  16.251  13.913   3.943  0.1532 -0.0534  0.1029
23194W        W39268  10.046  11.935  14.719 -0.0679 -0.0772  0.0575
23195W        W39269  13.507  14.347   4.250  0.3390  0.1787 -0.2190
23196W        W39270  11.009   7.199  14.862  0.1748 -0.1015 -0.4345
23197W        W39271  16.773  17.024   4.411 -0.1881  0.2538 -0.0989
23198W        W39272   8.578  12.960  16.149  0.1566 -0.0335 -0.0158
23199W        W39273   1.013  14.149  14.685  0.4064 -0.0527  0.0856
23200W        W39274   2.265   9.222  14.782 -0.0587 -0.0898  0.0738
23201W        W39275   0.795  11.776   5.003 -0.1567  0.1383  0.3375
23202W        W39276   8.994  11.184  16.042 -0.3981  0.2425  0.0385
23203W        W39277  14.730  10.210  13.953  0.2318 -0.0558  0.4649
23204W        W39278   8.280   6.945  13.152 -0.2167 -0.1353  0.2886
23205W        W39279  13.081  11.624   0.706  0.3087 -0.1671  0.2203
23206W        W39280   2.217  15.160   2.294 -0.2364  0.0151 -0.0152
23207W        W39281   1.992   6.728  16.586 -0.1755  0.1557  0.2727
23208W        W39282  13.819  11.726   4.350 -0.1512  0.1637  0.1314
23209W        W39283  15.214   4.238  14.108 -0.1926  0.1359 -0.1766
23210W        W39284   6.749   0.895  15.640  0.2971  0.0413  0.2388
23211W        W39285  17.017  15.206   6.385  0.0122  0.1338  0.3317
23212W        W39286  14.797  15.449   4.974 -0.1701 -0.3472 -0.0108
23213W        W39287   9.411  11.839  15.107  0.0624 -0.0917 -0.1578
23214W        W39288   6.560   6.330   2.003 -0.0537 -0.0015  0.0823
23215W        W39289   9.780   6.806  15.951 -0.0263 -0.2395  0.0426
23216W        W39290  13.829  10.989   0.787  0.0802  0.0425 -0.0134
23217W        W39291  14.899   5.242   4.268 -0.4088  0.2180  0.0480
23218W        W39292  12.011  17.559   1.498 -0.1494 -0.0854  0.3332
23219W        W39293  14.670   7.949  15.834  0.2398  0.0379  0.2797
23220W        W39294   4.347   9.607  14.496  0.0047  0.1554 -0.1153
23221W        W39295   3.836   7.951   1.810 -0.1168 -0.0423 -0.0286
23222W        W39296   0.397   3.364   0.783 -0.2784 -0.1459 -0.1376
23223W        W39297  10.014   6.862  11.237 -0.1361 -0.1315  0.1161
23224W        W39298  17.412  14.787  14.237  0.1851  0.1545 -0.1773
23225W        W39299   4.498   1.523   4.261  0.3606 -0.1699  0.1614
23226W        W39300  10.350   7.221   1.162 -0.0229 -0.1377  0.1379
23227W        W39301   5.015   8.544   0.996  0.0655 -0.2636  0.1953
23228W        W39302   2.582  13.537  15.568  0.1754 -0.0099 -0.2845
23229W        W39303   7.953  12.857   0.902 -0.1014  0.1025  0.2088
23230W        W39304   1.324  10.341   3.483  0.1656 -0.2424  0.2945
23231W        W39305   2.189  10.919   2.539  0.1942 -0.3079 -0.0577
23232W        W39306   6.851   1.456   0.460  0.1544 -0.1132 -0.4773
23233W        W39307   1.766   6.898  12.486  0.0405 -0.1471 -0.0042
23234W        W39308   5.391   2.045   4.335  0.3020  0.0117 -0.0258
23235W        W39309   4.341   8.683  14.655 -0.1066 -0.0692  0.2545
23236W        W39310  13.055  10.143  16.448  0.1382  0.1357  0.2705
23237W        W39311   6.954  11.816  11.959  0.0054  0.2165 -0.0169
23238W        W39312   9.229  11.413   3.545  0.1356  0.1048  0.1224
23239W        W39313  16.110   0.661   0.897  0.1650  0.0056 -0.2083
23240W        W39314  12.020   2.820  12.305  0.1200  0.3174 -0.3092
23241W        W39315   8.884   6.593   3.886  0.0537  0.1627  0.0504
23242W        W39316   3.122  14.649   4.584  0.0213 -0.0431  0.0520
23243W        W39317  12.488  13.168   2.785  0.1224  0.0593 -0.0151
23244W        W39318  13.688   4.571  10.701  0.0039  0.0525  0.1693
23245W        W39319  11.843  17.677  13.939 -0.0321  0.1750 -0.0878
23246W        W39320   1.839  13.952  14.403  0.1479  0.0574  0.0320
23247W        W39321   8.968   5.787  12.561 -0.0551 -0.0945  0.0878
23248W        W39322  11.590  11.864   2.203 -0.0028  0.2109 -0.4022
23249W        W39323  12.156   2.155  11.704  0.4641  0.2355 -0.1984
23250W        W39324   1.091   3.850   1.442 -0.4904  0.2616 -0.1767
23251W        W39325   6.744  11.019  16.721 -0.1820  0.1334  0.1177
23252W        W39326  17.523   5.476  15.993 -0.0671  0.2420  0.2372
23253W        W39327  12.728  15.843  13.091 -0.1121 -0.1543  0.2292
23254W        W39328  14.899   4.355  13.106 -0.1835  0.2099  0.1662
23255W        W39329   7.654  12.087  12.534 -0.0472 -0.0894 -0.2979
23256W        W39330  13.595  15.133   6.318  0.2506  0.1849 -0.1928
23257W        W39331   9.539   4.102   2.646  0.2300  0.1036  0.0586
23258W        W39332   1.001  14.793  12.866 -0.2042 -0.0900  0.1333
23259W        W39333  10.026   7.137   2.429  0.0773 -0.1591  0.1453
23260W        W39334  13.880   7.120   1.993  0.0244 -0.1891  0.2400
23261W        W39335  14.109  12.315  13.542 -0.0546 -0.1242 -0.1394
23262W        W39336  16.222   5.838  12.996  0.1080  0.2032  0.1021
23263W        W39337  14.199  10.967   5.744  0.0962 -0.0390 -0.0988
23264W        W39338   2.873   8.413  12.616  0.1029  0.2010 -0.0105
23265W        W39339   3.786  15.351   1.382  0.3091  0.2817 -0.0717
23266W        W39340  14.754   7.473   5.957  0.1390  0.1201 -0.1038
23267W        W39341  15.032   6.967  16.064 -0.1371 -0.2118  0.1404
23268W        W39342   6.713  15.288   0.109 -0.0475  0.0780 -0.1935
23269W        W39343   2.063  11.650  14.361  0.0467 -0.1692 -0.2605
23270W        W39344  10.596   2.312   1.960 -0.1539  0.1801  0.0078
23271W        W39345   1.432  10.784  14.164 -0.1403  0.0277 -0.0409
23272W        W39346   8.013  12.944  16.312  0.0475 -0.0997 -0.0230
23273W        W39347   0.752   4.178   2.435 -0.1165  0.0649 -0.1101
23274W        W39348   5.361   2.512   4.032 -0.0224 -0.2386 -0.3633
23275W        W39349   5.479   4.842   0.647 -0.2421 -0.1912  0.0312
23276W        W39350   7.698   3.757   4.226  0.0487  0.1278 -0.0974
23277W        W39351  16.903   0.521  14.431  0.1033  0.0279  0.0956
23278W        W39352   5.900  12.300   5.030 -0.1030 -0.4153  0.1389
23279W        W39353   8.827   0.394   0.286  0.1741  0.0179 -0.2149
23280W        W39354   6.635   6.000   3.909  0.2843  0.0667  0.3031
23281W        W39355   4.407  11.084   4.952 -0.0145  0.3270 -0.0037
23282W        W39356  13.348  12.282  11.974 -0.0817  0.2763 -0.0151
23283W        W39357   6.072   1.865   4.827  0.0858 -0.1009  0.1240
23284W        W39358  14.722  14.528   4.003  0.0173 -0.1772  0.1349
23285W        W39359   7.013  14.353   4.705 -0.1232 -0.1848 -0.0714
23286W        W39360  17.314  11.510  11.904  0.3669  0.0055 -0.2196
23287W        W39361  11.668   6.975   2.559 -0.1585 -0.0015 -0.3136
23288W        W39362   8.488  11.124   2.340  0.3255 -0.1179  0.1410
23289W        W39363  10.026  16.632  16.344 -0.0283  0.0061 -0.0197
23290W        W39364  11.464   1.267   2.645 -0.2851  0.0474  0.0386
23291W        W39365   8.242  13.489  16.967  0.4017 -0.3660 -0.0876
23292W        W39366   3.907   2.756   4.950  0.0186 -0.2844 -0.0165
23293W        W39367   2.334  10.088  15.402  0.0323  0.1522 -0.0556
23294W        W39368  13.019   4.360   5.256  0.1899 -0.1767  0.1394
23295W        W39369   4.622   8.377   4.653 -0.2347 -0.1768 -0.0071
23296W        W39370   8.475  13.988   3.559 -0.0445 -0.0993 -0.0890
23297W        W39371  15.351  10.670   0.610 -0.2033 -0.0462  0.0034
23298W        W39372  16.875  16.616  15.074  0.0108  0.0902  0.0379
23299W        W39373  14.402  16.722  13.779  0.4570  0.1796 -0.1491
23300W        W39374   6.674   9.980  14.184  0.1042  0.2600  0.1425
23301W        W39375  14.587  13.140  15.873 -0.0067  0.1098  0.2311
23302W        W39376  13.306   1.748   5.118  0.0583 -0.1392 -0.0305
23303W        W39377   4.794  16.705  15.576  0.4236  0.1488 -0.2102
23304W        W39378   3.276   8.873   4.775 -0.0999  0.0602 -0.1072
23305W        W39379   4.305   0.751   1.935 -0.0951  0.0002  0.2716
23306W        W39380  15.751   5.654  12.884 -0.0738 -0.1151 -0.2697
23307W        W39381   3.110   0.366   5.387 -0.1490 -0.2182 -0.2584
23308W        W39382  15.919   1.619  13.682  0.3513 -0.1228 -0.0157
23309W        W39383   6.392   5.047  14.342 -0.0650  0.0345  0.0676
23310W        W39384   4.180  11.552  12.273  0.1909 -0.1539 -0.2644
23311W        W39385  16.585   7.417  16.906 -0.2133 -0.0250  0.0641
23312W        W39386   4.692  11.118   1.819  0.1310  0.0709  0.1988
23313W        W39387   4.524   8.942   6.002  0.0068 -0.2893  0.3033
23314W        W39388   1.754   5.137   4.752 -0.0851 -0.1277  0.3568
23315W        W39389   5.684  17.348   4.731  0.0337 -0.0950 -0.0322
23316W        W39390  15.572   5.568   5.833  0.0126 -0.0284  0.0413
23317W        W39391  12.191  17.126   0.746 -0.0760  0.0033  0.0889
23318W        W39392  11.047   1.204   2.334 -0.2014  0.0665  0.0704
23319W        W39393  12.565   0.495   0.098  0.1677 -0.3252 -0.0402
23320W        W39394   9.189   1.720   6.056 -0.1481  0.1260 -0.0800
23321W        W39395  15.621  13.889  16.667  0.0731 -0.1611  0.0557
23322W        W39396   7.144   1.130  15.127 -0.1143  0.2967  0.0142
23323W        W39397   0.044  11.319  15.090 -0.0411 -0.2298  0.0597
23324W        W39398   5.115  10.945   3.688  0.2926  0.3857  0.0426
23325W        W39399   9.946   6.863   4.862  0.2088 -0.0719  0.0966
23326W        W39400   2.917   1.931  14.519 -0.0989  0.2152 -0.2422
23327W        W39401   1.412   2.425  15.386  0.0028 -0.0228  0.3367
23328W        W39402   6.369   5.020   0.978  0.1954  0.0319 -0.3212
23329W        W39403  13.292   8.539   1.789  0.3938  0.2408  0.0314
23330W        W39404  16.567  11.184  12.922  0.1131  0.1331  0.1651
23331W        W39405   4.848  15.301  13.361  0.0312  0.0971  0.0326
23332W        W39406   0.110  12.520   4.654  0.2720  0.2996 -0.0947
23333W        W39407   5.376   1.339  15.735  0.1549  0.0620  0.3149
23334W        W39408   7.823  17.678  12.574 -0.1189  0.0629 -0.0859
23335W        W39409   2.842   6.614   0.695 -0.0489  0.2956  0.0733
23336W        W39410   2.158   8.882  16.057 -0.0407 -0.2105  0.2721
23337W        W39411   9.991   0.610  15.031  0.2835  0.0527 -0.0338
23338W        W39412   9.951   9.750   0.607  0.2678 -0.2681  0.0858
23339W        W39413  15.766  11.419  12.357 -0.0415  0.0978 -0.2894
23340W        W39414  12.706   4.426   0.085  0.1077 -0.3508 -0.0397
23341W        W39415  11.627  10.369  12.636 -0.1211  0.0257  0.1414
23342W        W39416   6.996   2.088   4.045  0.0469 -0.1601 -0.1391
23343W        W39417  13.161  10.381  14.565  0.0399 -0.0270 -0.3030
23344W        W39418  14.590  12.201   1.647  0.1306 -0.1822  0.2915
23345W        W39419   8.118   4.657   4.180 -0.1129  0.0694 -0.1144
23346W        W39420   1.468   6.835  16.410  0.1067  0.0108  0.2509
23347W        W39421   0.425  15.440   4.725  0.0225  0.0390  0.0083
23348W        W39422  17.496   8.370  16.469 -0.1398  0.1990  0.0693
23349W        W39423  12.258   7.809  13.202 -0.4113 -0.0874 -0.3440
23350W        W39424  17.367  10.984   3.018 -0.1369 -0.1192  0.2869
23351W        W39425  13.644  11.284   4.591 -0.0832  0.1743  0.0833
23352W        W39426  14.542   2.202  13.306 -0.1012 -0.0501 -0.2546
23353W        W39427   2.647   2.240   4.750 -0.0672  0.0182  0.0552
23354W        W39428   7.772   6.419  13.594 -0.3910 -0.1382  0.0294
23355W        W39429  13.689   4.170   2.407  0.3164 -0.1552 -0.0589
23356W        W39430  14.720  16.038  12.203  0.0670 -0.1038  0.1501
23357W        W39431  10.925   0.076   2.932 -0.0510 -0.0294 -0.1585
23358W        W39432  10.369  16.018   2.037 -0.2157  0.1111 -0.1045
23359W        W39433   2.449   5.038   2.724  0.0325  0.3143  0.1043
23360W        W39434  13.932   7.075   3.720  0.0124 -0.1299 -0.1699
23361W        W39435  13.164   2.064   0.871  0.1912 -0.0672 -0.2950
23362W        W39436   8.463   0.786   2.245  0.2296 -0.0389 -0.0478
23363W        W39437  16.984  14.824   4.326 -0.5181 -0.4572 -0.0162
23364W        W39438  13.903   0.013  12.224 -0.0448 -0.3969 -0.1403
23365W        W39439   5.366  12.505   2.143  0.1185 -0.0988 -0.0375
23366W        W39440   8.870   7.739  16.198  0.0401  0.0267 -0.2868
23367W        W39441  11.226  16.037  16.143 -0.1735  0.4205  0.1571
23368W        W39442   6.378   7.621  16.935 -0.1519  0.1507  0.0112
23369W        W39443   6.959  11.422   0.001  0.4124  0.1331  0.2379
23370W        W39444  11.197  17.006   0.383 -0.0729  0.1443 -0.0254
23371W        W39445   0.310   1.906  12.718 -0.3837 -0.3036 -0.0538
23372W        W39446   4.613   8.491  13.263 -0.2318 -0.0657 -0.2559
23373W        W39447   6.409  17.047  11.920 -0.1324  0.0553 -0.0799
23374W        W39448   7.759   2.348  13.338 -0.3688 -0.0917 -0.2266
23375W        W39449   6.765   5.212   0.823  0.0726  0.2412 -0.1131
23376W        W39450  11.758   8.016   5.492 -0.1633  0.1143 -0.0475
23377W        W39451   8.918   3.930  12.305 -0.0218 -0.0151  0.1984
23378W        W39452  13.500  12.202  16.394  0.2084 -0.2990  0.0998
23379W        W39453  14.201  14.550   5.987 -0.4021  0.2349  0.0691
23380W        W39454   8.808   3.712  15.395  0.4470  0.0071  0.0747
23381W        W39455  16.026   3.390  16.713 -0.2120  0.1025  0.0117
23382W        W39456  10.466   1.026   4.808 -0.0118  0.0668 -0.1050
23383W        W39457   9.136  13.947  13.865  0.0320 -0.1687  0.0982
23384W        W39458  17.598  15.289   2.435  0.2342 -0.0354 -0.2046
23385W        W39459   5.281   5.333  13.649 -0.0097  0.1727  0.0617
23386W        W39460  10.188   9.925  15.459  0.1672  0.2701 -0.0998
23387W        W39461   5.748   8.306  14.563  0.1653 -0.2313 -0.0671
23388W        W39462   2.567   3.011   5.440 -0.1768  0.3242 -0.0778
23389W        W39463  13.020   1.682  15.516 -0.1149 -0.0618 -0.1487
23390W        W39464   3.751  11.538   1.138  0.1436  0.0839  0.2473
23391W        W39465   4.040  10.452   5.570  0.1908 -0.0480 -0.2717
23392W        W39466  16.964   6.172  15.669 -0.0748 -0.0539  0.0048
23393W        W39467   7.467   6.994  15.357  0.2105 -0.3237  0.0716
23394W        W39468   3.293   6.695   3.492 -0.1076  0.1076  0.0208
23395W        W39469  11.879  12.472  12.377  0.3111 -0.0103  0.0670
23396W        W39470   8.207   1.812   3.450  0.3098  0.0581  0.2935
23397W        W39471   1.236   3.409  16.060 -0.1511 -0.0167 -0.2799
23398W        W39472  14.252   8.923   2.624 -0.1791 -0.1188  0.1440
23399W        W39473  14.233   4.283  15.674  0.0102 -0.1932 -0.0228
23400W        W39474   8.529   8.966  16.217  0.0806 -0.1912 -0.2719
23401W        W39475   3.279   1.696  11.406 -0.0515  0.0961  0.0482
23402W        W39476  10.429   6.478   4.530 -0.2841  0.2617 -0.1887
23403W        W39477  11.368   4.503  14.568  0.2701  0.0873 -0.1474
23404W        W39478   7.631  10.501  14.233 -0.2630 -0.0636 -0.1082
23405W        W39479  12.026  14.525   4.109  0.0611 -0.0642 -0.0905
23406W        W39480   6.534   8.727   2.194 -0.1081  0.1846  0.0552
23407W        W39481  10.462   3.672  12.935  0.1565 -0.0015  0.2338
23408W        W39482   3.943  15.921  12.938 -0.1188 -0.1436 -0.3083
23409W        W39483   7.266  14.272  12.958 -0.0658 -0.0030 -0.1972
23410W        W39484  17.513  17.660  14.688 -0.0818  0.1426  0.0138
23411W        W39485   0.822   9.653  12.304 -0.1502 -0.1428  0.1149
23412W        W39486  14.662   1.221   5.119  0.2951 -0.0765 -0.2068
23413W        W39487   4.188  10.934   0.572 -0.0819  0.0834  0.0784
23414W        W39488  10.504   9.992  11.969  0.0626  0.0336 -0.0813
23415W        W39489   5.588   9.858   0.024 -0.3026  0.1449  0.0278
23416W        W39490   8.462  12.558  12.535  0.1128 -0.3507  0.4149
23417W        W39491   3.753  14.826   2.169  0.0605 -0.0993 -0.0914
23418W        W39492  12.835  12.451   5.768  0.1682 -0.1106  0.0863
23419W        W39493   7.251  11.731   5.954  0.1121  0.2175 -0.4690
23420W        W39494  14.257  16.003  14.412 -0.0594  0.1650 -0.0088
23421W        W39495  16.114   6.293  12.828  0.1549  0.0624  0.1236
23422W        W39496   9.499  10.186  12.880  0.0909 -0.0015  0.1649
23423W        W39497   9.617   7.875   0.040 -0.0500 -0.3018  0.1348
23424W        W39498  10.547   9.973  14.819 -0.1911  0.1221 -0.1809
23425W        W39499  13.211   6.786  14.874 -0.1062 -0.2147 -0.1449
23426W        W39500   0.160  17.528  13.591  0.0284  0.3694 -0.0267
23427W        W39501   9.762  13.925   1.795 -0.2283  0.1191  0.0953
23428W        W39502   9.180   6.142   3.776  0.1562  0.0363 -0.0648
23429W        W39503   2.099   7.588  16.424 -0.1070 -0.0092  0.0401
23430W        W39504   4.555  15.331   4.126  0.1151 -0.0279  0.0991
23431W        W39505  17.195  17.179  11.273 -0.2179 -0.1964 -0.0315
23432W        W39506   7.420  11.749   0.068  0.1837 -0.0848 -0.2722
23433W        W39507  14.325  12.762  16.696 -0.3133 -0.1906  0.1142
23434W        W39508  11.484  14.182  16.938 -0.0756  0.4190 -0.3093
23435W        W39509   6.642  10.282   3.050 -0.0563  0.2288 -0.1823
23436W        W39510   5.341   7.185  12.494  0.0510  0.0741  0.2165
23437W        W39511   7.627   7.309  16.197  0.2314  0.0538  0.0198
23438W        W39512  17.111   1.473   1.689 -0.0403 -0.1164  0.0725
23439W        W39513  11.253  13.162  13.552 -0.0004 -0.1817  0.0959
23440W        W39514   0.174  13.650   5.111  0.1294  0.0142 -0.0980
23441W        W39515   7.595   9.404  14.864 -0.2532 -0.1922  0.1162
23442W        W39516   4.559  14.273  16.053  0.3699  0.0769 -0.1067
23443W        W39517  16.477  15.523   0.182 -0.3750  0.1167 -0.1889
23444W        W39518   8.689   1.858  16.657 -0.3644 -0.1463 -0.1369
23445W        W39519  16.954   8.275   4.843  0.0319  0.0477  0.2936
23446W        W39520   0.591  13.414  14.479  0.2255  0.0546  0.0335
23447W        W39521  11.400  15.661  15.871 -0.2446 -0.1821 -0.1416
23448W        W39522   1.248  16.290  15.021 -0.1567 -0.1912 -0.1543
23449W        W39523   1.883  10.389   3.259 -0.2867 -0.3227  0.1995
23450W        W39524  11.357   4.057  16.347  0.1704  0.0292 -0.0213
23451W        W39525   0.178  16.922   3.678 -0.0122 -0.2752  0.1901
23452W        W39526  14.552  16.227  15.775  0.0736 -0.0039  0.1299
23453W        W39527  17.195  13.628   6.276  0.1645  0.0076  0.2344
23454W        W39528   3.099   4.668   0.915 -0.0328 -0.0763  0.1220
23455W        W39529   4.342  10.792   6.197  0.0850  0.0282 -0.0111
23456W        W39530   3.818  14.678   4.533 -0.0021  0.2633  0.3882
23457W        W39531   2.670  14.307   2.759 -0.0082  0.2421 -0.3035
23458W        W39532  17.535   9.301  14.317  0.1306  0.0289 -0.1180
23459W        W39533   7.023   2.770  15.523 -0.1166  0.0733 -0.0396
23460W        W39534   4.007  14.467   3.407  0.0944 -0.2797  0.1594
23461W        W39535   7.522  13.633   4.247 -0.0598 -0.0080 -0.1185
23462W        W39536  13.887  15.104   0.350  0.1619 -0.1097 -0.2279
23463W        W39537  12.432   5.747   5.243 -0.2113  0.2065 -0.1241
23464W        W39538   3.122   7.393  13.548  0.0424 -0.2204  0.0546
23465W        W39539   5.523   1.968  15.416  0.0262  0.0438 -0.2919
23466W        W39540  10.460  11.882  13.187  0.2442 -0.0318  0.0029
23467W        W39541  14.880   5.226   5.201  0.1681 -0.1169  0.0177
23468W        W39542   7.727   3.133   3.158  0.2310 -0.0746  0.3936
23469W        W39543  13.604   0.301   5.002 -0.1461  0.0110  0.2203
23470W        W39544   6.247   6.387  13.813  0.1283  0.4338  0.1913
23471W        W39545   2.077   0.422  11.202  0.1440 -0.0721  0.2100
23472W        W39546  15.816   2.947  15.822  0.0152 -0.1411 -0.2786
23473W        W39547   4.167  14.129  15.542 -0.3206 -0.2542  0.1256
23474W        W39548   3.863   2.582  16.093  0.1456  0.1032 -0.2362
23475W        W39549  13.746  10.062   4.498  0.1214 -0.2183  0.1859
23476W        W39550  14.866   7.588  11.916  0.2019 -0.0751  0.2630
23477W        W39551   8.272   6.865  11.476 -0.0164 -0.2827 -0.0311
23478W        W39552  14.970   0.814   5.860 -0.0081 -0.0701  0.1610
23479W        W39553  13.365   0.593   5.826 -0.2506  0.0835  0.3429
23480W        W39554   0.849  15.975  14.208  0.0763 -0.1302 -0.0604
23481W        W39555  11.448   0.850  16.670 -0.0906 -0.2981 -0.2399
23482W        W39556   9.805  13.029  11.792  0.1132 -0.1177 -0.0716
23483W        W39557  10.789   6.311  13.424 -0.1574 -0.0453  0.0817
23484W        W39558  13.531  14.330  13.147  0.1496 -0.3145 -0.0126
23485W        W39559   2.398   0.153  13.644 -0.3648  0.2170  0.2906
23486W        W39560   9.983  12.413   0.372 -0.0676 -0.0950 -0.0714
23487W        W39561   2.836   1.246   5.732 -0.1058 -0.2862  0.0098
23488W        W39562  11.445  10.832   2.836 -0.2836  0.0251 -0.1355
23489W        W39563  12.447   1.372  16.796  0.1590 -0.2415  0.0889
23490W        W39564   5.536  11.517  16.605  0.0246  0.0404 -0.1796
23491W        W39565   6.099   7.736  11.457 -0.0006  0.4133  0.1134
23492W        W39566  16.485   4.661   1.154  0.0306 -0.2037 -0.1326
23493W        W39567   3.557   0.488  12.617 -0.3500  0.1558  0.0459
23494W        W39568   3.665   1.897   4.342  0.2639 -0.0577 -0.2580
23495W        W39569  12.315   5.405   0.918  0.0270 -0.1103 -0.2836
23496W        W39570  15.465  12.274   2.502  0.2298 -0.2881  0.2271
23497W        W39571   5.853   7.206   1.260 -0.0678  0.0465 -0.3199
23498W        W39572   6.203  15.771   0.766  0.4460  0.0048  0.0865
23499W        W39573   7.954  16.570   2.314  0.0626 -0.1566 -0.1961
23500W        W39574  16.148   3.102   2.887 -0.0328  0.2938  0.0530
23501W        W39575  15.199   5.744   3.233 -0.1569 -0.1493  0.0466
23502W        W39576   1.571   0.709  15.576  0.2983  0.0119 -0.3060
23503W        W39577  12.393   8.270  14.013  0.1738 -0.3159  0.0362
23504W        W39578  17.477   0.665   3.294 -0.2818 -0.0326  0.1310
23505W        W39579   7.058  16.999  10.980 -0.3607  0.2123 -0.0782
23506W        W39580  14.517   6.831  14.238 -0.0172  0.0725 -0.1292
23507W        W39581  12.137  16.729   3.083 -0.0351  0.0634  0.0350
23508W        W39582  13.694   3.670  12.842 -0.1158 -0.1014 -0.1001
23509W        W39583   9.702   5.541  15.136  0.0299  0.0906  0.1926
23510W        W39584   5.894   7.425  16.212 -0.1067 -0.0371  0.1553
23511W        W39585   8.754  17.135  13.569 -0.0900 -0.0299  0.1855
23512W        W39586  15.325  13.280  14.527  0.2382 -0.1898  0.1632
23513W        W39587  17.483   9.255  13.325  0.4829 -0.0746 -0.0071
23514W        W39588  10.337   6.305  13.768  0.0344  0.1042  0.2864
23515W        W39589   1.097  10.962   1.138  0.2127 -0.0059  0.0608
23516W        W39590  10.710  13.903  15.802 -0.1376 -0.1474  0.0360
23517W        W39591   4.356   5.418   1.952  0.2304 -0.2180  0.1762
23518W        W39592  11.533   6.696  15.864  0.2634 -0.1533 -0.4436
23519W        W39593   5.233   6.306  15.466  0.1357 -0.3026  0.1091
23520W        W39594   8.198   4.736  14.762 -0.0399  0.4235  0.0806
23521W        W39595   1.426  10.479  11.673 -0.3403  0.2200 -0.1665
23522W        W39596  15.190  11.592  13.267 -0.1628 -0.1297 -0.3863
23523W        W39597  16.318  10.101   3.771  0.0265 -0.2269 -0.0427
23524W        W39598  16.841   4.961   0.932  0.1174 -0.1383 -0.1549
23525W        W39599   3.652  11.146   2.981 -0.1757 -0.0093  0.0228
23526W        W39600  10.611   7.919   3.689  0.0419  0.1341 -0.0923
23527W        W39601   2.554  15.997  15.189  0.3307 -0.0099 -0.2359
23528W        W39602  16.889  14.303  14.874  0.1229  0.2538 -0.0524
23529W        W39603  11.658  11.162  15.812  0.3157 -0.5103 -0.0639
23530W        W39604  15.986  12.532   5.002 -0.0124  0.1604  0.0261
23531W        W39605   9.490  14.355   1.869  0.1436 -0.1140 -0.2625
23532W        W39606  13.914  11.432   3.384 -0.1188  0.2719  0.1636
23533W        W39607  16.479  11.875   4.486  0.3519  0.1044  0.0712
23534W        W39608   7.767  14.986  13.368  0.1378 -0.1165 -0.1757
23535W        W39609  14.468  15.029  14.641  0.1995  0.0424 -0.1150
23536W        W39610  10.873  14.103   1.858  0.0705 -0.0404  0.0922
23537W        W39611  12.360   9.988   4.141  0.1007 -0.0916 -0.2650
23538W        W39612   7.524   8.798  12.397 -0.1594  0.1550 -0.1548
23539W        W39613   6.671  11.374  11.696  0.2119 -0.1664 -0.0552
23540W        W39614   0.343  12.128  14.400  0.1664 -0.1082  0.1180
23541W        W39615   9.600   4.671   5.403  0.1349  0.1938  0.0439
23542W        W39616   7.511  15.769  13.189  0.1756  0.4043 -0.0208
23543W        W39617   1.767   5.555  16.596  0.1898  0.1186 -0.4724
23544W        W39618   1.235  16.684   0.276  0.2490  0.0364 -0.0726
23545W        W39619  12.719   7.868   0.765 -0.0671 -0.0601  0.0269
23546W        W39620   1.332  10.451  16.067 -0.0197 -0.1092  0.1640
23547W        W39621  13.307   0.378  16.804 -0.1040  0.3727 -0.2434
23548W        W39622  13.576   7.518  16.640  0.0822  0.3989 -0.2297
23549W        W39623   2.893  16.842  15.436  0.0624 -0.0451  0.2141
23550W        W39624   6.714  14.022   5.418  0.1478  0.0615 -0.0230
23551W        W39625   2.658  14.962  14.917 -0.0526 -0.0443 -0.0915
23552W        W39626   3.943  13.948   2.160 -0.0057  0.1796 -0.3923
23553W        W39627   5.524  11.435   0.895  0.1987 -0.1768 -0.0743
23554W        W39628  13.859   5.165  14.945  0.0836 -0.0394  0.3147
23555W        W39629   8.990  13.869  16.628 -0.0221 -0.0644  0.0647
23556W        W39630   7.180  11.440   0.953 -0.0449  0.2526  0.0081
23557W        W39631   1.537   4.987  12.738  0.0230 -0.1713  0.0774
23558W        W39632   0.953  16.036  13.173  0.2530 -0.0603 -0.3629
23559W        W39633  16.898  16.401   1.152 -0.0434  0.0205 -0.0158
23560W        W39634   9.739  13.039  16.259  0.0768  0.1633  0.0312
23561W        W39635  11.929  13.814   2.457  0.1448  0.1337 -0.1055
23562W        W39636  13.446  17.124   0.647 -0.3421 -0.3279 -0.1211
23563W        W39637   6.983  17.288  12.640 -0.0504 -0.0751  0.1483
23564W        W39638   1.731  13.794   2.111  0.0448  0.1439  0.0634
23565W        W39639   1.577   3.686   6.305  0.5009 -0.1675 -0.0979
23566W        W39640   7.574   1.419   2.180  0.1129  0.2755  0.1238
23567W        W39641   1.665   0.451   2.637  0.1917 -0.3983  0.1365
23568W        W39642   2.906   1.542  11.764  0.2520  0.0394 -0.0948
23569W        W39643  16.652   9.725   0.110 -0.0535  0.0978  0.1340
23570W        W39644   5.964  10.009  13.713  0.1417  0.2715  0.1118
23571W        W39645   8.178   0.715   1.371  0.2624  0.3510 -0.0264
23572W        W39646   5.055   8.636   4.141 -0.1288 -0.0472 -0.2970
23573W        W39647   6.347   2.498   1.860  0.0657 -0.2265  0.0347
23574W        W39648   2.623   7.885   5.353  0.0545  0.3080 -0.2946
23575W        W39649  13.212  12.399  15.387  0.1873 -0.2847 -0.1615
23576W        W39650  14.927   1.358   1.195 -0.3622  0.0482 -0.1294
23577W        W39651   8.364  13.493  14.144 -0.1274 -0.2398 -0.1960
23578W        W39652  16.534   7.797   0.264  0.0567 -0.1808 -0.1331
23579W        W39653  17.384   7.040   4.992 -0.0641  0.1226  0.1440
23580W        W39654   6.087   4.218  15.577 -0.0165 -0.2473  0.0062
23581W        W39655   8.371  13.434   5.501  0.0673  0.1037 -0.0695
23582W        W39656   7.015  13.870   1.817 -0.2355 -0.2344  0.0688
23583W        W39657  12.074  15.333  13.245  0.0197 -0.0643  0.3723
23584W        W39658   4.540  14.672   2.725 -0.2942 -0.0383 -0.1158
23585W        W39659  10.741   7.387   5.707  0.0256 -0.1925 -0.2436
23586W        W39660   5.262   9.791  13.996  0.1967  0.0085 -0.2193
23587W        W39661   6.553  10.019  13.549  0.2471 -0.0504  0.1046
23588W        W39662   0.082   5.885   2.364  0.1473  0.2481 -0.0674
23589W        W39663  12.324   0.041  13.975  0.0724 -0.0142  0.1743
23590W        W39664   8.819   6.001   0.515  0.0163 -0.1177  0.3788
23591W        W39665   6.491  10.583  12.586 -0.0398 -0.0981 -0.1443
23592W        W39666   5.691   7.344   3.083  0.1165  0.0748  0.2869
23593W        W39667   6.938   9.948   5.818  0.0620 -0.3731  0.1037
23594W        W39668  14.389  14.451   1.810  0.1062 -0.0768  0.1236
23595W        W39669   9.277   7.792   4.925  0.0701 -0.0075 -0.0000
23596W        W39670   0.156   6.844   3.326  0.1402 -0.2570  0.2106
23597W        W39671  12.346  13.638  12.639  0.1688 -0.0480  0.1355
23598W        W39672  15.147  13.986  16.889  0.0192  0.3462 -0.1741
23599W        W39673  14.818  12.330  11.804  0.0551  0.0669 -0.0391
23600W        W39674   3.657  12.085  15.106 -0.1403  0.2799 -0.1163
23601W        W39675  15.635  14.060   4.759  0.1894 -0.1047  0.2616
23602W        W39676   5.355  17.162   0.767  0.1107 -0.0307 -0.0139
23603W        W39677  14.117   1.514   6.203 -0.3609  0.1027  0.0541
23604W        W39678  15.965  11.011  14.292  0.1272  0.0981 -0.3463
23605W        W39679  10.956   7.888  11.333 -0.0841  0.3198  0.1543
23606W        W39680  15.235   7.476   2.052  0.2933 -0.2090  0.0498
23607W        W39681   1.771   8.266  15.618 -0.3270  0.1004 -0.1562
23608W        W39682  16.750  15.524  16.321  0.1093 -0.0916  0.1498
23609W        W39683  14.671  13.433  14.021  0.3026  0.1050 -0.2236
23610W        W39684  17.191   6.286  12.247  0.7148  0.0218 -0.0382
23611W        W39685  13.667   7.959   3.698  0.3250 -0.1840  0.1058
23612W        W39686  15.161  14.721  15.889  0.1087 -0.2174 -0.0210
23613W        W39687  12.265   8.144   5.520  0.1478  0.1007  0.2454
23614W        W39688  13.243   3.058  15.382 -0.1352  0.1362  0.0809
23615W        W39689   4.693  14.873  12.533 -0.1252 -0.0241  0.0586
23616W        W39690   2.948   2.574  16.037 -0.1020  0.2415 -0.3402
23617W        W39691   2.875  14.029  12.306 -0.1158 -0.0449  0.0591
23618W        W39692  17.659   3.360  13.728 -0.0095 -0.0545  0.1360
23619W        W39693   6.915   3.692  16.428  0.1324 -0.3157  0.0900
23620W        W39694  14.924  16.359  13.303 -0.0813 -0.2261  0.1819
23621W        W39695   8.640  13.748   2.241  0.0699 -0.1836 -0.2842
23622W        W39696  16.788  17.012  14.042 -0.3321  0.0200  0.1859
23623W        W39697   1.007  10.106   0.344 -0.2885  0.5210 -0.1851
23624W        W39698   1.391  11.064  16.237  0.1209 -0.0067 -0.0548
23625W        W39699   6.417  15.667  16.925 -0.1213 -0.2350  0.0594
23626W        W39700  15.133  11.187   4.671 -0.0429  0.4775 -0.0786
23627W        W39701   7.553  10.092   2.119  0.1148  0.1108 -0.0649
23628W        W39702   7.518   5.123  12.041  0.0473 -0.0246 -0.0349
23629W        W39703   1.701   1.774   4.843  0.1678  0.0228 -0.1944
23630W        W39704   1.215  10.338  12.611  0.2235 -0.1252  0.3813
23631W        W39705   5.736  16.360  16.488 -0.0001  0.0094  0.1610
23632W        W39706   5.840  15.110  13.678  0.0887  0.1994 -0.1010
23633W        W39707  10.644   8.906  12.008 -0.0712 -0.1344 -0.0678
23634W        W39708  14.603  11.289   1.773  0.0409  0.4070 -0.0491
23635W        W39709  11.475   7.250  15.777  0.1693  0.2879  0.2145
23636W        W39710  13.720   6.641   3.984 -0.2341  0.0945  0.0924
23637W        W39711   5.766  15.798   0.506  0.2162 -0.2151  0.0281
23638W        W39712   6.198  10.865  15.008  0.3379  0.4091 -0.0512
23639W        W39713  15.871   8.688  11.501 -0.1321  0.1727  0.2599
23640W        W39714  14.553   6.434  16.092 -0.1602  0.1499  0.0670
23641W        W39715  10.207   3.048  14.293  0.1018  0.1052  0.1035
23642W        W39716   4.086   0.859  14.120 -0.1579 -0.0324  0.1116
23643W        W39717   4.236   0.220  15.536 -0.1398 -0.1569  0.1382
23644W        W39718  14.787  16.138   2.609  0.2111 -0.0276  0.0512
23645W        W39719   9.810   2.123  16.205 -0.1849 -0.0688  0.2411
23646W        W39720  17.130   0.978   3.311  0.2165  0.2345  0.1733
23647W        W39721   0.851  17.195   2.005 -0.1695 -0.0157 -0.1216
23648W        W39722   9.148  17.340  12.892 -0.0759 -0.0107  0.0338
23649W        W39723  17.398   9.207  16.763 -0.2447  0.3602 -0.4780
23650W        W39724   2.704  16.413  16.304  0.0451  0.1544  0.2325
23651W        W39725   2.934  15.377  12.239 -0.0982 -0.2737 -0.1073
23652W        W39726   6.144   3.693  16.697  0.4562  0.5874 -0.0690
23653W        W39727   7.273   3.721  14.441  0.2007 -0.1583 -0.0264
23654W        W39728   9.353   3.242   4.305  0.0390  0.2564  0.0778
23655W        W39729  15.205  13.885  14.932 -0.0041 -0.2581  0.2142
23656W        W39730   5.215   0.713  16.147  0.0752  0.0340 -0.1573
23657W        W39731   3.955   9.774  13.712 -0.1397  0.1231  0.0526
23658W        W39732  16.622  14.826   5.092 -0.0530 -0.1027 -0.0535
23659W        W39733   5.389   9.359  14.281 -0.1100 -0.1792  0.0443
23660W        W39734   0.185   5.974  16.840  0.0450  0.1189  0.3494
23661W        W39735   8.217   6.755  13.940  0.0899  0.0889 -0.0502
23662W        W39736  17.642   7.461   4.888 -0.0533  0.1855 -0.3306
23663W        W39737  12.990   9.020   4.413  0.2003  0.1021 -0.0300
23664W        W39738  12.401  13.004  12.159 -0.0778  0.3144 -0.0376
23665W        W39739   2.071   1.392   1.641  0.1924  0.0897  0.1090
23666W        W39740  14.626  10.658   0.144 -0.3851  0.0091 -0.0811
23667W        W39741   5.345   8.308   3.821 -0.1369 -0.1861  0.1193
23668W        W39742   2.446  11.050   1.019  0.3450  0.1150  0.1048
23669W        W39743  14.670  16.626  12.910 -0.1632  0.2404 -0.3068
23670W        W39744  13.011   5.669  12.333 -0.2842  0.3334 -0.0909
23671W        W39745  14.774   8.646  11.785 -0.0245  0.2054  0.1479
23672W        W39746  13.083  12.004  16.157  0.0554  0.2446  0.1465
23673W        W39747  15.048  14.124  14.350  0.1314  0.0552 -0.0759
23674W        W39748   3.584  15.326   3.620 -0.1300 -0.1207  0.1255
23675W        W39749   5.845   0.445   0.522 -0.2490 -0.0828  0.0344
23676W        W39750   3.703   2.652   5.932  0.0626  0.2303  0.0679
23677W        W39751  11.812   1.866  14.266 -0.0972 -0.0117 -0.1039
23678W        W39752  10.779  16.528   1.297  0.1928 -0.4807  0.0659
23679W        W39753  12.888   5.833  14.056  0.0322  0.0238 -0.0338
23680W        W39754  17.390   9.895   1.716  0.1109  0.2997  0.1181
23681W        W39755   2.560  17.762  14.058  0.1612  0.0395  0.1863
23682W        W39756   5.410   5.943  12.804 -0.2192  0.2545 -0.0809
23683W        W39757   1.392   6.179  16.030 -0.1398  0.0902 -0.0390
23684W        W39758   5.920  12.542  14.362 -0.0854  0.1034  0.3154
23685W        W39759  14.657  11.956   3.122 -0.0983  0.0440 -0.1478
23686W        W39760  13.148   6.741   2.690 -0.2331 -0.1383  0.1233
23687W        W39761  16.467  12.508   5.062  0.1042 -0.1324  0.0346
23688W        W39762  11.848  13.170  15.984  0.1506  0.3262  0.0886
23689W        W39763   6.883  16.464  12.258  0.2632  0.1982  0.1220
23690W        W39764   3.914   2.943   3.572  0.1392  0.1770 -0.1051
23691W        W39765   8.833   8.167  11.845 -0.1390  0.0534  0.0253
23692W        W39766  15.408   5.292  12.118  0.0063 -0.0161  0.4110
23693W        W39767  12.103   5.240  12.856  0.0729 -0.2275  0.2589
23694W        W39768  17.406   2.088   4.320  0.4795  0.2159 -0.1669
23695W        W39769  15.769   9.280  13.188  0.0985  0.0585 -0.3629
23696W        W39770   4.983  16.261   2.479  0.0820 -0.0957 -0.1867
23697W        W39771   0.233  15.955  16.190  0.3575 -0.1039 -0.2188
23698W        W39772  15.099  16.770   6.398 -0.0922 -0.1818 -0.0620
23699W        W39773  14.805  12.344  12.891 -0.1353 -0.1747  0.2133
23700W        W39774  11.230   2.243  15.875  0.1755  0.0289  0.0738
23701W        W39775   9.315   1.441   3.115 -0.0458  0.1260  0.0125
23702W        W39776  11.908   6.639   0.854 -0.1580  0.2936 -0.2211
23703W        W39777   5.582   2.231  13.843  0.1712  0.0150 -0.1615
23704W        W39778   0.905  11.516   3.161  0.0357  0.1677  0.1000
23705W        W39779  17.793   9.376  16.423  0.1933 -0.0171  0.0528
23706W        W39780   1.329  11.138  14.533  0.2564  0.0274  0.0419
23707W        W39781  16.471   9.043   4.339  0.1478 -0.6607  0.2215
23708W        W39782   6.886  12.560   2.422 -0.1914 -0.0093 -0.3452
23709W        W39783  10.301  16.435  15.937  0.0071  0.0627 -0.0316
23710W        W39784   0.483   4.851  16.120  0.3238  0.1840 -0.0989
23711W        W39785   0.597   8.958  15.687 -0.0139  0.0814  0.1670
23712W        W39786   4.134   1.913   4.948  0.2153 -0.0758  0.2170
23713W        W39787   1.711  11.295  13.783 -0.1177  0.5017  0.0317
23714W        W39788  16.844   1.123   6.105 -0.0768  0.2415  0.0321
23715W        W39789   7.928  16.321   3.581 -0.0265  0.0584  0.3938
23716W        W39790   0.837   7.906   3.271  0.0438  0.1438 -0.3154
23717W        W39791  12.364  13.907  16.398 -0.2578  0.0195  0.2483
23718W        W39792   5.281   4.279  16.665  0.0345  0.0709 -0.0807
23719W        W39793   6.902   8.993  15.497 -0.1289  0.2661  0.1348
23720W        W39794   7.090   5.993   3.075  0.0248 -0.1058 -0.0634
23721W        W39795  13.101   5.867  13.410  0.2835  0.1451 -0.2238
23722W        W39796   5.536  10.284  16.782  0.3732 -0.1375 -0.0904
23723W        W39797  15.817  16.890   1.395 -0.1907  0.1070  0.0229
23724W        W39798   8.479   5.065  11.833 -0.0376 -0.2570 -0.1928
23725W        W39799   2.307   9.559  11.934 -0.3669 -0.0580 -0.5505
23726W        W39800   8.284  17.042   1.114 -0.1514  0.2542 -0.4523
23727W        W39801   7.661   6.188   4.251 -0.0611 -0.0725 -0.2381
23728W        W39802  11.050  15.677   1.826 -0.0613 -0.0200 -0.1648
23729W        W39803  13.939   8.402  14.437  0.1149  0.0029 -0.1167
23730W        W39804  14.378   1.913   0.201  0.1319 -0.1869 -0.0674
23731W        W39805   4.211   1.835  14.278  0.3118  0.2243  0.3682
23732W        W39806  17.318   6.354   2.861  0.0475 -0.1305 -0.0946
23733W        W39807   5.586   7.039   0.188 -0.1749 -0.1540 -0.1398
23734W        W39808   4.997  15.284   3.942  0.2046  0.0519  0.0069
23735W        W39809   0.973  15.571  13.925  0.2370 -0.0647  0.0765
23736W        W39810   6.212   9.776  12.823  0.0758 -0.0905  0.1262
23737W        W39811   0.348   8.953   2.359  0.0798  0.0315  0.1318
23738W        W39812   4.151  16.315  13.629 -0.0602  0.1438  0.1208
23739W        W39813  14.315  15.951  13.517  0.1799  0.0149 -0.0862
23740W        W39814   0.612   1.618   1.342 -0.1963  0.2665 -0.0830
23741W        W39815   1.192   2.616  14.614  0.2423  0.2698 -0.2340
23742W        W39816  13.424   1.060   5.674  0.0171  0.2589  0.1308
23743W        W39817  15.498  15.216   4.245 -0.0281  0.4663 -0.2355
23744W        W39818   0.839   4.985   5.589  0.1509  0.0220  0.0941
23745W        W39819   3.164   1.087   3.530 -0.1718  0.0844 -0.2025
23746W        W39820   8.671   7.646   0.405 -0.3468 -0.0414  0.1664
23747W        W39821   8.693   0.272  14.475  0.0201 -0.0154 -0.1349
23748W        W39822  12.260  10.625  12.201 -0.3447 -0.3857  0.0631
23749W        W39823   3.921  15.689   4.388  0.1533  0.2264 -0.0744
23750W        W39824   8.804  13.388   0.500  0.1707  0.1375  0.1649
23751W        W39825  11.069  15.441  13.333 -0.0179 -0.0508 -0.0673
23752W        W39826   2.503  11.681   5.625 -0.3696 -0.0898  0.1437
23753W        W39827  12.576  13.620  14.644  0.1967  0.0428 -0.0328
23754W        W39828  14.060   6.778   4.863  0.1149 -0.1676 -0.0425
23755W        W39829   6.952  15.680   3.434  0.1633  0.1277 -0.1883
23756W        W39830  17.626   3.919   2.676  0.0255 -0.0757 -0.1553
23757W        W39831  13.345   9.977  15.765  0.0970  0.0974 -0.5177
23758W        W39832  16.470  11.509   4.092 -0.1297 -0.1935 -0.1887
23759W        W39833   2.988  12.943   3.649 -0.0412  0.2987  0.0147
23760W        W39834   2.820   8.481  12.149  0.0932  0.1658  0.0691
23761W        W39835   8.561   4.504   5.924 -0.1970 -0.0980 -0.0567
23762W        W39836  14.974  13.128   1.659  0.0267 -0.1069  0.0150
23763W        W39837  14.067  16.569   1.786  0.1709 -0.2819 -0.1519
23764W        W39838   0.253  11.768   0.469  0.1446 -0.2306 -0.0915
23765W        W39839   9.729   0.060   0.394 -0.2422 -0.0147 -0.0309
23766W        W39840   2.126  14.482   0.264  0.3404 -0.1928 -0.0909
23767W        W39841  17.208  12.895  15.082 -0.1660  0.1061 -0.0753
23768W        W39842   7.778   6.389   3.077  0.2986 -0.2127 -0.0667
23769W        W39843  13.860  12.313   5.629  0.0177 -0.1062 -0.0657
23770W        W39844   8.374   2.197   1.542  0.1005 -0.0530 -0.2016
23771W        W39845   5.504  17.626   3.225  0.0779  0.1110 -0.1105
23772W        W39846  12.186   5.667  12.317 -0.0868  0.0678 -0.0004
23773W        W39847   6.587  13.256   3.099 -0.2818  0.0946 -0.2732
23774W        W39848   5.058   1.582  11.117 -0.2625 -0.3299 -0.0384
23775W        W39849   0.317   9.960  13.985  0.1868  0.0661 -0.2351
23776W        W39850   8.539   2.936   4.856 -0.1373 -0.0921  0.2007
23777W        W39851   7.121  12.867   0.267  0.1624 -0.0211  0.4090
23778W        W39852  16.623   8.215  16.564  0.0165 -0.1608  0.2115
23779W        W39853   3.715  11.952   3.469 -0.2461 -0.0188 -0.1965
23780W        W39854   1.456  10.678   4.882  0.0422  0.1266 -0.0166
23781W        W39855   4.672   2.510   3.221  0.0653  0.1061 -0.3818
23782W        W39856  16.265   1.283   5.469  0.3765  0.3601  0.1309
23783W        W39857  11.443  14.339  10.797  0.1013 -0.2519  0.0378
23784W        W39858  12.776  13.782  11.970 -0.1037  0.2316  0.2905
23785W        W39859  15.524   4.135  12.697 -0.3265  0.0858 -0.0922
23786W        W39860   9.234  11.123  14.659 -0.1756  0.1713 -0.1140
23787W        W39861  15.481  13.530   4.737  0.3876 -0.0427  0.1239
23788W        W39862   9.650  10.594   5.171 -0.1762  0.0454  0.0615
23789W        W39863   1.786  12.795  16.537  0.1727 -0.3627  0.0855
23790W        W39864  11.256  16.128   3.591  0.2820  0.0686  0.1677
23791W        W39865  11.078  14.269  15.239 -0.2910 -0.1963  0.3584
23792W        W39866   9.912  10.700  16.925  0.4200 -0.2791  0.1323
23793W        W39867  12.146   2.716   4.684 -0.0790 -0.2034  0.1111
23794W        W39868   1.721  16.450   2.755  0.0046 -0.1779 -0.1295
23795W        W39869   4.778   1.222   4.779  0.0955 -0.0259 -0.0093
23796W        W39870  13.134  11.997  13.018  0.0908 -0.1722  0.1168
23797W        W39871   5.209   0.769  12.737  0.0706  0.0661  0.0765
23798W        W39872  14.913   7.497  15.342 -0.0503 -0.0598  0.1020
23799W        W39873   4.206  11.596   1.014 -0.0983  0.0977  0.2544
23800W        W39874   5.795   3.298  16.947  0.0358 -0.3035 -0.0917
23801W        W39875   7.972  16.586   2.939 -0.1031 -0.3034  0.0511
23802W        W39876  17.150   8.904   3.251  0.2031  0.1796  0.1082
23803W        W39877  13.329   6.025   4.514  0.0533  0.1538 -0.0402
23804W        W39878  17.799  15.822  13.221 -0.0596  0.3656  0.3362
23805W        W39879   2.865  10.797  15.658 -0.1185  0.0866  0.0482
23806W        W39880  11.849   6.493   6.135  0.2261  0.0282 -0.2030
23807W        W39881  11.522  15.404   3.787  0.0467 -0.1638 -0.0844
23808W        W39882  17.687   9.651   1.423  0.0704 -0.0347 -0.0034
23809W        W39883  17.824   9.172  13.913  0.1237 -0.3696 -0.1372
23810W        W39884  11.215  16.713  12.902  0.0179 -0.0731 -0.0988
23811W        W39885  15.884  16.908  14.234 -0.3698 -0.0301 -0.0305
23812W        W39886  13.602  15.778   5.035  0.2207 -0.2049  0.1067
23813W        W39887   5.500  13.348   4.729  0.1181 -0.1642  0.0634
23814W        W39888   1.437   7.902  15.466 -0.0807  0.2206  0.0472
23815W        W39889  14.744   8.409   5.029  0.0073 -0.0191  0.2845
23816W        W39890  12.043   6.644  14.527  0.0084 -0.0369 -0.0541
23817W        W39891  14.929  15.919   5.464 -0.0188 -0.0388 -0.2035
23818W        W39892   0.345  12.839  16.442  0.0935  0.2264  0.0035
23819W        W39893   7.744   1.902   1.924 -0.0326  0.0815 -0.1045
23820W        W39894   1.702  15.053  13.794 -0.0596 -0.1684  0.1129
23821W        W39895  12.934  11.062  13.287 -0.1769  0.0638 -0.0038
23822W        W39896   8.445  11.922   4.721  0.2604  0.1160  0.1731
23823W        W39897   7.574  11.424  14.189  0.1080  0.0125  0.0768
23824W        W39898   3.901  17.530   1.227 -0.0785 -0.2419  0.1944
23825W        W39899  12.466  17.432  16.644 -0.4004 -0.1380  0.1000
23826W        W39900   3.299   0.934   5.751 -0.0374 -0.0743 -0.0988
23827W        W39901   5.265   4.816   1.098 -0.1001 -0.3085  0.4319
23828W        W39902  16.179  11.219  15.058  0.2232 -0.1033  0.0754
23829W        W39903  10.376  10.185  15.839  0.2075 -0.2462 -0.1472
23830W        W39904  15.032  15.416  13.796  0.1711  0.1646 -0.0210
23831W        W39905   2.371  14.272  14.389  0.1479 -0.2043 -0.0257
23832W        W39906   1.136  11.160  13.958 -0.0074 -0.2955  0.2140
23833W        W39907  16.520  17.374   0.332 -0.1647  0.3219 -0.1494
23834W        W39908   8.706  14.517   4.848  0.1455 -0.2508  0.1134
23835W        W39909   2.374   4.799  14.238  0.0812 -0.0204  0.0762
23836W        W39910   8.695  16.667   2.159 -0.1629  0.2338  0.0006
23837W        W39911  12.288  12.799  13.013 -0.1165 -0.2705 -0.2784
23838W        W39912   0.017  16.058   0.635  0.1369  0.0698 -0.0616
23839W        W39913  12.672  17.802   3.134 -0.0832 -0.0324 -0.0531
23840W        W39914   5.071  14.653  12.150 -0.0037  0.1378  0.0115
23841W        W39915   9.976   9.470  11.304  0.1183  0.0712  0.1232
23842W        W39916  12.961  12.725  16.779  0.0322  0.1684 -0.0232
23843W        W39917   0.556  13.188   4.790 -0.0834 -0.1483 -0.0812
23844W        W39918   2.757   1.747   4.071  0.0985 -0.1365  0.1015
23845W        W39919   8.060   6.635  16.381 -0.0095 -0.2101 -0.2124
23846W        W39920   6.023   2.891  15.382 -0.2184 -0.0907 -0.2136
23847W        W39921   1.026  16.625  15.392 -0.0141  0.2363  0.1442
23848W        W39922  16.307  14.987  12.557  0.1568  0.0333 -0.0502
23849W        W39923   3.911  15.662  15.005  0.0150 -0.0154 -0.2751
23850W        W39924   2.067  11.150   0.090  0.0243 -0.1014 -0.0462
23851W        W39925   1.212  16.226  14.505 -0.1157 -0.2158  0.0272
23852W        W39926   3.538   0.965  13.022 -0.1956  0.1371 -0.1978
23853W        W39927   8.960   5.692   3.896 -0.2085 -0.1479 -0.1507
23854W        W39928  11.018   8.405  12.284  0.2224  0.3890  0.3375
23855W        W39929   6.495   5.559  10.633 -0.1503  0.1098 -0.0023
23856W        W39930  15.890  17.828  12.958  0.0780 -0.0917 -0.1310
23857W        W39931   2.013  15.893  11.470  0.1912 -0.1757 -0.1080
23858W        W39932   0.210   0.423  15.916 -0.1789 -0.3044 -0.2174
23859W        W39933  11.935   5.085   3.886  0.2004 -0.2421  0.1709
23860W        W39934   2.149  17.444   1.477 -0.2002 -0.4203 -0.1408
23861W        W39935  10.839   1.549  16.536  0.2482  0.0244  0.1374
23862W        W39936  17.331  15.288   4.521  0.0257 -0.1953  0.1424
23863W        W39937   8.232   0.052  14.681  0.1371  0.0776  0.0074
23864W        W39938  13.998   2.577   4.425 -0.0420  0.0643 -0.0997
23865W        W39939   6.031   8.854   2.032 -0.1464 -0.2673  0.0287
23866W        W39940   4.590  10.381  13.943  0.0199  0.0882 -0.1292
23867W        W39941  15.966   7.856  15.263 -0.0367 -0.0983  0.0447
23868W        W39942   8.885   5.682   5.425  0.0001  0.0498 -0.4311
23869W        W39943  10.577   4.910   3.011 -0.1108 -0.0578 -0.1118
23870W        W39944  13.504   9.225   4.310 -0.1491  0.0503  0.0926
23871W        W39945   5.256  15.576   4.303  0.0641 -0.0804 -0.0306
23872W        W39946  15.689   5.855   3.125 -0.2694  0.1515  0.2027
23873W        W39947  16.146  10.624  13.978  0.2223 -0.1266 -0.0357
23874W        W39948  15.842  10.570   2.673  0.2169  0.1160 -0.0237
23875W        W39949   5.690   0.236   4.157  0.1625  0.0101  0.2393
23876W        W39950   4.329   7.429  14.723  0.0958  0.2057 -0.2377
23877W        W39951   6.423   9.973   2.168 -0.1126  0.0729  0.1613
23878W        W39952  17.786   8.315   2.220  0.0111  0.1262  0.1714
23879W        W39953  17.040   3.473  12.878  0.0438 -0.0434 -0.0542
23880W        W39954  10.621  14.635   4.960 -0.1376 -0.2170  0.2200
23881W        W39955   5.236   9.750   3.655 -0.1426 -0.0452  0.0855
23882W        W39956  16.887  16.692   1.689 -0.1203  0.3202 -0.0288
23883W        W39957  13.947  14.558  15.252 -0.2917 -0.0954 -0.0994
23884W        W39958   7.037  13.684  14.436 -0.1190  0.0023 -0.2997
23885W        W39959   8.061  11.961   6.146 -0.0818  0.0340 -0.0742
23886W        W39960  16.791   4.907  15.816 -0.0557  0.1910  0.2101
23887W        W39961  10.439  11.076   4.184  0.1948  0.2816  0.0940
23888W        W39962  12.452   7.469  15.518 -0.1560  0.1461  0.0686
23889W        W39963  13.949   9.318   6.125  0.2424  0.1070 -0.0910
23890W        W39964  17.203   0.760  16.202  0.1929  0.2691  0.1297
23891W        W39965   2.746   0.024  16.949  0.1085 -0.1305  0.0997
23892W        W39966  16.762   9.231   1.790 -0.0540 -0.1448 -0.2308
23893W        W39967   2.117   1.930   2.992 -0.1638 -0.2811 -0.1750
23894W        W39968  15.930   4.696  14.528  0.2326  0.0409  0.0258
23895W        W39969  11.974  16.665   0.679 -0.1644 -0.1257  0.0430
23896W        W39970  11.630  14.480   0.903  0.3111 -0.0529  0.1899
23897W        W39971   0.421   8.090  15.839  0.3477 -0.2224  0.0285
23898W        W39972  14.646   3.602   1.402 -0.1003 -0.2430 -0.2603
23899W        W39973  15.100   2.474   1.151 -0.2147  0.1871  0.0251
23900W        W39974   1.159   4.919  14.890  0.1228 -0.0870 -0.0636
23901W        W39975   0.280  14.951   4.734  0.0968 -0.1646 -0.0210
23902W        W39976   5.723   5.381   5.077 -0.3052 -0.0588  0.3240
23903W        W39977   0.781   2.289  12.283  0.1823 -0.0289 -0.0422
23904W        W39978   6.943  12.216   5.707 -0.1640  0.3783  0.3429
23905W        W39979  13.548  11.157  14.047  0.1135 -0.0869 -0.1120
23906W        W39980  16.104   1.666   1.655  0.3483  0.0239 -0.1613
23907W        W39981   5.111  16.473  14.026  0.0383  0.2018 -0.1994
23908W        W39982   8.046   3.468  14.205  0.3934  0.0745 -0.2974
23909W        W39983   8.867   2.009  14.976 -0.3663 -0.0649 -0.1100
23910W        W39984   5.349  13.390   0.047  0.2654  0.1871 -0.0894
23911W        W39985   8.062  16.775   0.161  0.0373 -0.0761 -0.2762
23912W        W39986  11.451   1.104   0.741 -0.0060 -0.2834  0.1752
23913W        W39987   1.586   6.562   3.173  0.2899  0.4563 -0.1164
23914W        W39988  17.326   9.344  13.843 -0.0670  0.0639  0.1584
23915W        W39989  14.981   4.181   3.815 -0.0128  0.0607 -0.0402
23916W        W39990  12.644  15.229  13.209 -0.0592 -0.1456  0.4117
23917W        W39991  10.762   0.617  14.356  0.4558 -0.0617 -0.1052
23918W        W39992   1.639  16.031   2.473  0.2905  0.1632  0.1483
23919W        W39993  12.492   3.583  15.013  0.2294  0.2652  0.2468
23920W        W39994   0.731  12.382  15.899 -0.0820  0.0773  0.1924
23921W        W39995  16.023   4.585   1.084  0.1572 -0.3393 -0.1181
23922W        W39996   0.945  14.045  15.897 -0.0519  0.1681 -0.1041
23923W        W39997   9.116  12.529   2.329  0.0362  0.2408 -0.0639
23924W        W39998   8.068  11.400  16.310 -0.1822 -0.0634 -0.2260
23925W        W39999   3.998  10.434   4.119  0.0008 -0.0954 -0.2479
23926W        W40000  11.894  14.878  16.267 -0.1808  0.1807  0.0390
23927W        W40001  14.075   7.850  14.468 -0.1734 -0.1041  0.2568
23928W        W40002  14.363  15.343  16.166  0.3287 -0.1567 -0.2980
23929W        W40003   4.846   4.432  15.674 -0.1367 -0.0866 -0.0089
23930W        W40004  11.725   6.990  14.703  0.0668  0.0204  0.0536
23931W        W40005   7.411  17.152   3.548  0.2152  0.0411 -0.0300
23932W        W40006   8.935   4.260   3.443 -0.1932 -0.0326  0.2128
23933W        W40007  11.809  11.880  11.695 -0.1092  0.1538 -0.1595
23934W        W40008   3.934  11.003   5.978 -0.1669  0.0463  0.0423
23935W        W40009   9.401  15.084  15.593  0.0840  0.0107 -0.0965
23936W        W40010  13.921  12.466   3.705  0.0906  0.1601 -0.0437
23937W        W40011   9.230   2.069   1.370  0.1783  0.0548 -0.3222
23938W        W40012   3.300   3.964   0.912  0.1066  0.0075  0.0501
23939W        W40013  14.820  13.304   0.728  0.0250  0.1173  0.2648
23940W        W40014   8.480  15.246  16.082  0.0064 -0.1439 -0.1709
23941W        W40015  16.862  14.913  12.346 -0.1748  0.0191  0.0495
23942W        W40016   6.257   3.036   1.882  0.0608 -0.0438 -0.0393
23943W        W40017   4.236   2.225  16.073  0.0008 -0.2144  0.2469
23944W        W40018  13.557  16.054   3.655  0.2875  0.3382  0.2922
23945W        W40019  10.806   7.922   2.156  0.3189 -0.2301 -0.1432
23946W        W40020   4.795   3.147  12.779  0.0912 -0.0146 -0.2495
23947W        W40021  10.009  10.665  13.768  0.2313  0.1959 -0.2218
23948W        W40022  13.179   2.875   4.133 -0.1839 -0.0386 -0.2009
23949W        W40023  16.780  10.055  13.305  0.3273  0.1264 -0.3631
23950W        W40024  12.478  10.270  15.718  0.2007  0.0759 -0.1857
23951W        W40025   6.699   9.576   2.103  0.2273  0.0815  0.0928
23952W        W40026  11.013  10.501   1.939 -0.0686  0.1981 -0.0575
23953W        W40027  15.930  16.527   4.707 -0.0036 -0.1013 -0.0356
23954W        W40028   4.703   3.136  15.209 -0.0400  0.0768  0.0658
23955W        W40029   7.898  12.486   1.285 -0.1192  0.4306 -0.0684
23956W        W40030  12.640  10.298   4.459  0.0618  0.2043  0.0253
23957W        W40031   7.181   2.957  12.382  0.0270 -0.0152  0.0464
23958W        W40032   8.946   8.667  15.042 -0.1699  0.1919 -0.1474
23959W        W40033   9.300  14.538   3.591  0.1067  0.1004 -0.1034
23960W        W40034  12.039  13.579  15.713 -0.0424 -0.3939  0.1336
23961W        W40035  17.115  10.616   2.810  0.0190 -0.0753  0.3851
23962W        W40036  14.071   2.831   1.169 -0.0340 -0.1090 -0.2188
23963W        W40037  15.524   5.910  11.880 -0.1242 -0.1579  0.0735
23964W        W40038  13.048  15.762   0.495  0.1831 -0.4793 -0.0317
23965W        W40039  13.939   7.199   0.480  0.0427 -0.1793  0.2911
23966W        W40040  16.244  15.015   6.433  0.0945  0.0535  0.4180
23967W        W40041   6.326   2.286   4.184  0.2385  0.2334  0.0607
23968W        W40042  12.862  11.750   2.251  0.3006  0.3394 -0.3839
23969W        W40043  12.891   5.762   2.685  0.0391  0.2812 -0.1442
23970W        W40044  11.362  16.362   5.048  0.3067  0.0447 -0.3850
23971W        W40045  17.714  11.925   1.012 -0.0047  0.0295 -0.0467
23972W        W40046   0.363  16.655   1.412 -0.2021  0.0363  0.0478
23973W        W40047  14.501  13.005   4.647  0.4830 -0.1539 -0.1383
23974W        W40048   5.028  11.745  13.779 -0.0420 -0.0516  0.0878
23975W        W40049   2.065  10.752   4.141  0.2794 -0.0646  0.0967
23976W        W40050  15.453   6.436  12.045  0.0845 -0.1572 -0.0546
23977W        W40051   4.624  10.704   5.344  0.1959 -0.1052 -0.0212
23978W        W40052  16.734   6.992  12.801  0.2904  0.2009 -0.0371
23979W        W40053   6.631   2.857  15.926  0.0168  0.1667  0.0548
23980W        W40054  17.537  13.390   3.390  0.0277 -0.1361  0.0530
23981W        W40055  15.610  12.744   5.310 -0.0623  0.0125  0.1086
23982W        W40056   1.850  15.948  13.661 -0.0091 -0.1617  0.1172
23983W        W40057  11.864   9.578  11.719  0.1140  0.1561 -0.0486
23984W        W40058  11.341   0.361  15.260  0.3097  0.2172  0.1830
23985W        W40059  11.235  13.168  12.188 -0.0752 -0.2074 -0.1331
23986W        W40060   9.914   9.742   2.145 -0.1511 -0.0292 -0.1498
23987W        W40061   4.800   7.411   5.784  0.0954 -0.0941 -0.1169
23988W        W40062  11.372   3.813   4.292 -0.0606 -0.1346 -0.3808
23989W        W40063  12.353  13.300  15.387  0.2113  0.1736 -0.2217
23990W        W40064   7.973   8.701   3.226 -0.2347 -0.2171 -0.1726
23991W        W40065  16.874  11.109  13.542 -0.0900 -0.0662  0.0901
23992W        W40066   8.967   7.743   2.718 -0.0059  0.0523 -0.1702
23993W        W40067   7.499   5.999   3.358 -0.1039  0.0013 -0.0938
23994W        W40068   1.114   8.620  16.438 -0.2868 -0.2704 -0.0315
23995W        W40069  15.638  11.831  13.483 -0.2147 -0.1706  0.0371
23996W        W40070  10.788  15.804   3.580 -0.0330  0.0384 -0.2371
23997W        W40071  13.390  12.233  16.904  0.0099  0.2821  0.2521
23998W        W40072   5.104  11.462   3.339 -0.0235 -0.2841  0.1179
23999W        W40073   9.815  17.771  12.324 -0.0788  0.0866 -0.0977
24000W        W40074  12.629   9.108   6.513 -0.0401 -0.0743 -0.2942
24001W        W40075  15.618   4.538  13.914 -0.0549 -0.0796  0.1447
24002W        W40076   4.916   8.932   3.247  0.1797 -0.2045  0.3089
24003W        W40077   7.588  17.680   1.413 -0.0763  0.1256  0.0415
24004W        W40078  16.606  11.833  12.901 -0.0725  0.0987  0.0704
24005W        W40079   7.091  14.023  12.519  0.1380 -0.0239  0.3055
24006W        W40080  17.450   7.434  14.043  0.1012 -0.2142  0.1216
24007W        W40081  14.379  13.430  15.498 -0.1129  0.0704 -0.0536
24008W        W40082  15.404   3.508  16.134  0.2673  0.0862 -0.2211
24009W        W40083   2.516  15.903  15.925  0.0134 -0.2064  0.3404
24010W        W40084   9.248   0.999   4.337 -0.2147 -0.1975  0.1817
24011W        W40085  15.725  10.972  12.846  0.1269  0.1210  0.0489
24012W        W40086  14.714   7.275   3.128  0.0402  0.2344  0.1884
24013W        W40087   7.311   8.752  16.937 -0.0095 -0.0220  0.0097
24014W        W40088   1.356   5.002   5.960  0.2019  0.1964  0.0603
24015W        W40089   6.716   0.943   5.541  0.2003  0.4371 -0.2374
24016W        W40090   2.212   4.866   4.687 -0.1983  0.1330  0.1233
24017W        W40091  10.948   5.244   0.874 -0.0281  0.3062 -0.0015
24018W        W40092   3.691   6.644  16.575  0.0024 -0.2871 -0.1639
24019W        W40093   9.743  10.736   5.683 -0.0245  0.2261 -0.1959
24020W        W40094  13.023   2.329  15.731 -0.1000 -0.0252  0.0384
24021W        W40095   2.253  11.945  11.529 -0.1738  0.1207  0.1951
24022W        W40096  13.431  11.386   1.652 -0.0776  0.0093  0.2893
24023W        W40097   5.620   2.810  16.723 -0.0177 -0.0043 -0.1846
24024W        W40098   1.201   3.215  12.789 -0.1601  0.0851 -0.0370
24025W        W40099   9.817   5.785  15.697  0.2069  0.0768  0.1475
24026W        W40100   3.659   7.830   2.441  0.1953  0.2127  0.2812
24027W        W40101   4.149   5.641   5.773  0.0460 -0.3051  0.0369
24028W        W40102   6.289  17.126   0.999  0.0362  0.2265 -0.0996
24029W        W40103   9.727   2.987   4.570  0.2265  0.1279 -0.2305
24030W        W40104  13.251   7.537   5.045  0.1749 -0.1918 -0.2575
24031W        W40105   3.003   4.210   1.299 -0.0567 -0.1259  0.1935
24032W        W40106   5.407  10.410  13.442 -0.2796  0.0242 -0.1395
24033W        W40107  10.117   0.008   2.053 -0.0419 -0.0114 -0.2391
24034W        W40108   9.626  16.242   3.121 -0.1101 -0.0716  0.1248
24035W        W40109   8.024  11.498   3.101 -0.0586 -0.1031 -0.0222
24036W        W40110   9.729  17.305  14.536  0.5527  0.1835 -0.0026
24037W        W40111  12.665  17.825  14.345 -0.2646 -0.1060 -0.1301
24038W        W40112   1.765  10.605  15.153 -0.0010 -0.2046 -0.2633
24039W        W40113   5.900   2.596   1.108  0.0841 -0.0090  0.1670
24040W        W40114  11.505   1.889   0.654  0.0997  0.0130 -0.0338
24041W        W40115  16.652   2.472   1.960  0.2083 -0.1906  0.0274
24042W        W40116   8.396   0.340  13.538 -0.1495 -0.1228 -0.0177
24043W        W40117   2.745  11.436  15.835 -0.1810 -0.2733  0.0169
24044W        W40118   0.110  15.569   3.458  0.1276 -0.2739  0.2193
24045W        W40119   7.663   4.713   3.263 -0.2891 -0.2734  0.1562
24046W        W40120   4.025   6.519  14.855  0.1723 -0.0606 -0.1222
24047W        W40121   7.900   1.460  16.190 -0.1749 -0.0769  0.1388
24048W        W40122   5.330  15.150   1.889  0.1735  0.4657  0.2792
24049W        W40123   6.012   9.230   1.650 -0.1692  0.2138 -0.0350
24050W        W40124   1.054   2.788  15.946 -0.0536  0.1359  0.0153
24051W        W40125   6.096  10.172   4.690 -0.1004 -0.2263 -0.0890
24052W        W40126   1.243   6.893   0.245 -0.4674 -0.1905 -0.0720
24053W        W40127  10.392  10.828  16.821 -0.1246 -0.2103  0.1634
24054W        W40128   7.120  11.322  14.508  0.0978  0.2306 -0.0320
24055W        W40129   1.496   6.894  12.952 -0.1869  0.2864 -0.0237
24056W        W40130   3.160  13.578   1.137  0.0416 -0.6089  0.1420
24057W        W40131  13.032  14.649  11.901  0.0150 -0.3388  0.2938
24058W        W40132   1.451  14.681   1.835  0.0058 -0.0420  0.0016
24059W        W40133   6.429   1.237   4.767  0.2207  0.0075  0.1434
24060W        W40134  12.232   5.844  15.620  0.1809 -0.1535  0.0445
24061W        W40135   0.677  15.562  13.238  0.0816 -0.0810 -0.1439
24062W        W40136  15.305   1.064   4.592 -0.0950 -0.1816  0.0770
24063W        W40137  14.449   4.297  16.567  0.0255  0.1665 -0.1078
24064W        W40138   5.957  15.402   4.581  0.1998  0.2883 -0.2573
24065W        W40139  13.854   4.226  16.057 -0.0120 -0.1154 -0.0200
24066W        W40140  10.177   5.700  15.295  0.0406  0.2141 -0.0577
24067W        W40141  10.367   5.032   3.836 -0.1685 -0.2170  0.0923
24068W        W40142   3.615   3.411  14.495 -0.1669  0.1020  0.0011
24069W        W40143  12.126  12.837  16.908 -0.1731  0.0021  0.3539
24070W        W40144  13.686   4.970  13.425 -0.0266  0.0384 -0.0883
24071W        W40145  17.403  10.366   1.490  0.1515 -0.0733  0.1203
24072W        W40146   3.381  15.271  11.362 -0.1044  0.1684  0.2165
24073W        W40147  11.602   2.197  12.855  0.0669 -0.0329  0.0510
24074W        W40148   4.522  10.860   3.239  0.1928  0.2225 -0.2491
24075W        W40149  16.339   1.159  12.868 -0.3187  0.0827 -0.0382
24076W        W40150   8.448   6.454  16.650 -0.0423  0.0581  0.2752
24077W        W40151   3.299   7.925   0.216  0.1420  0.0877 -0.3093
24078W        W40152   1.793  11.916   4.137 -0.0443  0.1710  0.1428
24079W        W40153   5.051  15.035   0.823 -0.0792  0.0586  0.1145
24080W        W40154   9.327  11.289  13.199  0.1351 -0.0290 -0.0986
24081W        W40155   1.826  15.671  16.498  0.0356 -0.1128  0.2838
24082W        W40156   1.199   1.622   1.325 -0.1365 -0.0134  0.1817
24083W        W40157  15.233  11.366   1.728 -0.2177 -0.1935 -0.1830
24084W        W40158   1.800  13.738  13.958 -0.0475 -0.2858  0.3561
24085W        W40159   3.836  12.278  11.697 -0.1824  0.0692  0.4841
24086W        W40160   6.036  16.774  14.326  0.0426  0.1759 -0.2957
24087W        W40161   1.954   4.836  13.022 -0.0353 -0.1748 -0.2327
24088W        W40162  10.112  15.884  14.664 -0.2571  0.0750  0.0660
24089W        W40163   7.259  15.855  14.063 -0.0025 -0.0926 -0.1435
24090W        W40164   5.656  11.908  13.246 -0.0640 -0.2429 -0.0213
24091W        W40165   0.335  13.134  13.021 -0.0223 -0.2467  0.0342
24092W        W40166   5.541   5.786   3.003  0.1074 -0.1250  0.1239
24093W        W40167   2.896   2.766  12.335 -0.1548 -0.2521 -0.0369
24094W        W40168   3.333  14.685   5.883  0.2314  0.0402 -0.1422
24095W        W40169   7.778   4.805   0.123  0.0455  0.2194  0.0750
24096W        W40170  10.022   4.767   1.765 -0.2106 -0.0135 -0.3399
24097W        W40171  10.156   7.562  13.318  0.0931  0.0897 -0.2030
24098W        W40172   3.961   8.178  15.208  0.1180 -0.2613  0.1318
24099W        W40173   0.936  13.020  15.426  0.0671 -0.1844  0.0368
24100W        W40174   1.762   9.209  14.322  0.0480  0.0358 -0.0357
24101W        W40175   3.243  12.926   5.314 -0.0522  0.0568  0.0384
24102W        W40176   1.362   0.636   4.649 -0.1485 -0.0655  0.1836
24103W        W40177   2.782  13.798   4.677 -0.1541  0.0758  0.0578
24104W        W40178  17.827   1.929  16.553 -0.0540  0.0660  0.0432
24105W        W40179   0.582  12.954   3.123 -0.1583  0.1381  0.2092
24106W        W40180  13.881   5.373   1.858  0.0314  0.0285 -0.0966
24107W        W40181  14.138  12.027  12.985 -0.0323  0.3657  0.0201
24108W        W40182   1.871  13.450   3.717  0.1166 -0.4105  0.2159
24109W        W40183   9.952   6.543   4.411  0.1755  0.3647  0.1479
24110W        W40184  11.169  11.212   1.133 -0.0539  0.0474 -0.0832
24111W        W40185   0.319   8.273  15.106 -0.1195 -0.0080 -0.0311
24112W        W40186  16.282  17.037   5.416  0.3568 -0.0167 -0.1785
24113W        W40187  13.451  13.787   2.069  0.0573 -0.2692  0.0632
24114W        W40188  17.485   8.784   1.120  0.0477  0.0862 -0.0639
24115W        W40189   2.549   4.479   1.416  0.0920 -0.3552  0.0463
24116W        W40190   1.673   3.045   2.919  0.1786  0.0228  0.1927
24117W        W40191   8.506   6.711  14.348  0.2736 -0.1938 -0.1408
24118W        W40192   5.996   7.463  14.615 -0.1731 -0.0277  0.2827
24119W        W40193  14.585   3.436   4.347  0.4039  0.0306  0.2734
24120W        W40194  15.704   7.835  13.106 -0.0107 -0.0350  0.1240
24121W        W40195  13.649  16.815   2.670 -0.1724  0.1236 -0.0470
24122W        W40196  13.612  13.060  13.566 -0.0491 -0.0570 -0.0250
24123W        W40197   4.163   6.742  11.832  0.1645 -0.2715  0.0404
24124W        W40198  17.679  16.520   5.037 -0.0910 -0.2657 -0.0250
24125W        W40199  13.792  15.498   6.053 -0.3083 -0.1984 -0.0754
24126W        W40200  14.357  17.556   4.493  0.0125 -0.0851  0.2932
24127W        W40201   9.793  10.254  16.792  0.1814  0.1950 -0.0959
24128W        W40202   5.601   1.146   4.640  0.0437 -0.1446 -0.2562
24129W        W40203   9.113   3.643   4.482 -0.2567 -0.0708  0.1569
24130W        W40204  11.207   5.302   2.432  0.1999  0.0323 -0.0374
24131W        W40205   6.251   8.065   5.559 -0.1526  0.1982  0.1982
24132W        W40206  12.402  14.205   0.921  0.0051  0.2579  0.0630
24133W        W40207  13.902   3.760  14.534 -0.3492  0.1763  0.0611
24134W        W40208   6.758  13.763   1.299  0.2066 -0.3186  0.0611
24135W        W40209  13.774  14.451   3.174 -0.1774 -0.3530  0.3445
24136W        W40210   9.669   6.219  13.081 -0.0704  0.1062  0.1441
24137W        W40211   2.397   8.497   3.735 -0.0941 -0.1009  0.3473
24138W        W40212   2.413   5.577   3.693  0.1301 -0.0353  0.0330
24139W        W40213   2.555  13.950  13.996 -0.3941 -0.0497 -0.0672
24140W        W40214   1.015   9.700   0.693 -0.0048 -0.0435  0.0052
24141W        W40215   8.738   7.832  14.849 -0.0373  0.0906 -0.1928
24142W        W40216  16.886   8.519   2.425 -0.1973 -0.1505  0.2474
24143W        W40217   3.274   0.325  15.084 -0.1334  0.0372 -0.4022
24144W        W40218   0.703   5.981   2.109 -0.1649 -0.2022 -0.1734
24145W        W40219  11.107   4.717  11.980  0.0154 -0.0945  0.0936
24146W        W40220   4.560  17.737  11.821 -0.2214 -0.0378 -0.3510
24147W        W40221   0.847  17.836   0.638  0.1428 -0.3010  0.1141
24148W        W40222   3.472   7.890  13.370  0.2314 -0.4506  0.0549
24149W        W40223   3.145  16.645  11.475 -0.0295  0.2885  0.0820
24150W        W40224  15.777  13.924   2.333  0.1972 -0.1249  0.2231
24151W        W40225  11.090   7.372  12.119 -0.0379 -0.1396  0.0177
24152W        W40226   9.917   2.558  14.243 -0.2497 -0.1277 -0.0887
24153W        W40227  16.841   5.753  15.117 -0.1819  0.1378  0.1162
24154W        W40228  14.161  16.447   4.740 -0.1037  0.0458  0.0471
24155W        W40229   7.869   7.387  12.325  0.0282 -0.1185 -0.1687
24156W        W40230  17.086  13.423  14.900 -0.1560  0.1634 -0.0880
24157W        W40231   7.748  13.561  16.182 -0.1840 -0.2959  0.0764
24158W        W40232  11.473  14.973  13.866  0.4044 -0.2695 -0.0670
24159W        W40233  17.666  15.352  13.202 -0.0650 -0.2169 -0.2185
24160W        W40234   7.794   4.788  13.436  0.2282 -0.1031 -0.1529
24161W        W40235  17.243   0.930  15.230  0.0003  0.2423  0.2190
24162W        W40236   6.327  13.444  14.965 -0.2942 -0.2179 -0.0520
24163W        W40237  10.640  15.080  13.297  0.0585  0.1310  0.1384
24164W        W40238   4.395  14.126   2.002 -0.0816 -0.1473 -0.0561
24165W        W40239  13.870   0.057   3.461 -0.0004 -0.2780  0.0066
24166W        W40240   9.282   9.134   2.797 -0.2155 -0.0303 -0.1022
24167W        W40241   3.260   7.114  12.203  0.3152 -0.1506  0.0910
24168W        W40242   6.158   9.285  13.672  0.0863 -0.0442 -0.2606
24169W        W40243   0.664   6.639   3.518  0.1068 -0.3264 -0.5150
24170W        W40244  16.671   4.588   4.912 -0.1466  0.6256  0.0352
24171W        W40245   5.305   8.921  12.358 -0.1236  0.2734  0.1405
24172W        W40246   2.983   7.375  11.850  0.1347 -0.0470  0.2368
24173W        W40247  14.467   0.687   6.519 -0.1568 -0.0658  0.0802
24174W        W40248  16.923  14.288  16.161  0.2017  0.0745  0.2244
24175W        W40249  14.428   0.775   5.607  0.1973  0.2252  0.5444
24176W        W40250   7.339   4.637   0.440  0.0288  0.0104 -0.0137
24177W        W40251   7.116   7.326  13.858  0.1014 -0.1926  0.2991
24178W        W40252   8.830   3.596   1.541  0.0834  0.2925 -0.0580
24179W        W40253  10.648   5.554   3.915  0.1603 -0.0028 -0.0735
24180W        W40254   4.332   0.783   3.240  0.1698  0.0439  0.1800
24181W        W40255  11.281   9.097  16.493  0.0872  0.0431  0.1472
24182W        W40256   3.576  15.751   1.201  0.2053  0.1102 -0.2390
24183W        W40257  13.553  11.756   0.823  0.1720 -0.3802 -0.0969
24184W        W40258  16.669   8.475  13.350 -0.3028  0.0662  0.0670
24185W        W40259   5.631  14.199   1.893  0.2936  0.2560  0.0858
24186W        W40260   4.262  17.825  16.055  0.0278 -0.1074  0.1462
24187W        W40261  13.289  16.168   0.742  0.2874 -0.1035 -0.3143
24188W        W40262  12.714   2.323  13.368  0.2819  0.1799  0.2490
24189W        W40263  15.109  13.886   4.595  0.0410 -0.2521  0.0305
24190W        W40264   8.694  16.023  12.200  0.1515 -0.0572  0.0971
24191W        W40265   1.605   2.570  16.834 -0.1391  0.1089  0.1156
24192W        W40266   8.018  12.249   3.757 -0.0642  0.3253 -0.0858
24193W        W40267   3.307   1.555   2.695  0.0156  0.1226 -0.1288
24194W        W40268   5.114  13.611  15.539  0.1697  0.0681 -0.1991
24195W        W40269   2.820  15.557   4.425 -0.2032 -0.2402 -0.3230
24196W        W40270   3.152  14.150   4.442  0.0327 -0.2647 -0.0859
24197W        W40271   3.838   2.990   4.059 -0.1540 -0.3073 -0.2068
24198W        W40272   3.838  17.297  15.242  0.1105  0.0521  0.1017
24199W        W40273   2.163   6.487  15.362  0.0151  0.0144  0.0143
24200W        W40274  12.989  12.520   2.206  0.0417 -0.0427 -0.1435
24201W        W40275  11.381  14.679  15.152  0.0511  0.2068 -0.0289
24202W        W40276   1.213   4.993  15.565  0.1602 -0.1205  0.0932
24203W        W40277   0.314   7.909   2.387 -0.0382 -0.2100 -0.1052
24204W        W40278   7.405  17.803  15.279 -0.0273 -0.2773  0.0466
24205W        W40279  14.182   6.161  14.855  0.1831 -0.0385 -0.2311
24206W        W40280   5.930   4.950   2.483 -0.1618 -0.0530  0.0477
24207W        W40281   6.528  10.549  16.406 -0.0763 -0.0795  0.2486
24208W        W40282   1.320  11.938   4.229 -0.0631  0.1449  0.2671
24209W        W40283   0.983  14.129   2.218 -0.0128  0.0672  0.0405
24210W        W40284   1.291  15.070   1.003  0.0646 -0.0538 -0.1884
24211W        W40285   9.587  16.081  12.407  0.3876  0.1165  0.3149
24212W        W40286   2.241  13.893   1.890  0.3401  0.2457 -0.1579
24213W        W40287   2.589   2.039   1.458  0.2536  0.0643 -0.1807
24214W        W40288  16.719   7.837   4.947  0.0361  0.1734 -0.1691
24215W        W40289   0.936   4.120   3.376  0.0786  0.6349  0.2378
24216W        W40290  11.214  12.882   0.807 -0.0076  0.0310 -0.1524
24217W        W40291   7.285  14.607  14.367  0.1333  0.0482  0.0496
24218W        W40292  13.761   4.918   1.925  0.2178 -0.0762 -0.2711
24219W        W40293   8.829   2.283   3.399  0.1729  0.0350 -0.0557
24220W        W40294   1.133  13.057   3.881  0.0144  0.1445  0.1052
24221W        W40295   8.853   6.505   0.854  0.1360 -0.2859 -0.0277
24222W        W40296  16.586   3.986  14.620 -0.0931 -0.0138 -0.0042
24223W        W40297  14.822  14.719  14.851  0.2203 -0.0225  0.0537
24224W        W40298  16.923  10.076   1.373 -0.1640  0.1120 -0.0869
24225W        W40299  13.667   2.856  12.336  0.0472 -0.1502 -0.2407
24226W        W40300   0.269   3.928  15.389  0.0222 -0.1130 -0.3644
24227W        W40301  12.960  12.404  15.825  0.1010 -0.2332  0.0094
24228W        W40302  15.985  16.004   5.556  0.2943 -0.1304 -0.4599
24229W        W40303   1.655  16.041  15.166 -0.0185  0.1280  0.3814
24230W        W40304  15.327   1.250  14.255 -0.0241  0.0155 -0.0678
24231W        W40305   5.690   8.435  13.275 -0.2799 -0.2720 -0.0760
24232W        W40306  11.587   0.941   4.279 -0.2440  0.0781  0.2191
24233W        W40307  16.721  16.039  13.212  0.3430  0.1273 -0.1619
24234W        W40308   8.477   8.065   3.403  0.0327  0.0439  0.0720
24235W        W40309   8.981  13.277  14.429 -0.4168  0.1073  0.1672
24236W        W40310  12.588  14.939  11.728 -0.3503 -0.0939  0.1148
24237W        W40311   5.560  13.911  15.425  0.1896 -0.0886 -0.2825
24238W        W40312   2.353  16.601  15.953 -0.1752 -0.1753  0.3064
24239W        W40313  12.918  12.959   0.189 -0.0031 -0.1420 -0.1736
24240W        W40314  12.452  11.431   2.628  0.1482  0.0992  0.2659
24241W        W40315   3.425   9.693  14.926  0.0620  0.0731 -0.0773
24242W        W40316   5.574  17.588   5.683  0.1897 -0.0883  0.1455
24243W        W40317   4.669  17.223   2.023 -0.0195 -0.0566  0.0472
24244W        W40318   4.594   3.162   2.550  0.1076  0.0938 -0.0534
24245W        W40319   3.451   7.217   5.149  0.0267 -0.1570  0.0441
24246W        W40320   4.986   4.902   2.511  0.2029 -0.1845 -0.1392
24247W        W40321   5.657  16.416  14.489 -0.2003  0.1904 -0.2041
24248W        W40322  15.381   0.230  11.991  0.0575  0.1180 -0.0334
24249W        W40323   7.842  13.125   2.023 -0.2099  0.0344 -0.0874
24250W        W40324   3.698   0.144   3.745  0.3486  0.1950  0.0646
24251W        W40325   4.759   5.145  16.863 -0.3361 -0.2757 -0.3167
24252W        W40326  13.410   5.893  16.328 -0.2060  0.0835 -0.0877
24253W        W40327   4.907   0.007   4.613  0.1096  0.2835  0.3888
24254W        W40328  12.732   0.678  12.244 -0.3146  0.3485 -0.0800
24255W        W40329  10.054  13.186   4.080 -0.0009 -0.2151 -0.0282
24256W        W40330   5.548   9.846   3.254 -0.0943  0.1972  0.0250
24257W        W40331   4.831  16.376   2.029  0.0715 -0.1792 -0.2673
24258W        W40332   3.113  10.320  12.906  0.2141  0.0334 -0.3887
24259W        W40333  14.742   8.496   3.682  0.1675 -0.1311 -0.0142
24260W        W40334  15.973  12.356  15.734 -0.2789 -0.0734  0.0884
24261W        W40335  16.624  14.106  16.617 -0.2411  0.2485  0.0359
24262W        W40336  16.009   0.063   3.632  0.1715  0.0779 -0.1579
24263W        W40337  16.633  14.454  14.428 -0.1045 -0.1137 -0.1684
24264W        W40338   9.388  14.993   5.516  0.1331  0.0148  0.2563
24265W        W40339   2.103   0.764   2.765 -0.0838 -0.1166 -0.3104
24266W        W40340  17.633  10.523   3.888  0.0102 -0.2280 -0.2792
24267W        W40341  14.236   5.509   4.070 -0.0825  0.0049 -0.0250
24268W        W40342  13.623   5.164  15.607  0.0509 -0.0043  0.1461
24269W        W40343   0.231   9.176  13.399 -0.0282  0.0186  0.1434
24270W        W40344   4.122  17.090   3.972 -0.2060  0.0414 -0.2736
24271W        W40345   1.543  10.243   5.596 -0.1159 -0.2658  0.0095
24272W        W40346   1.430   9.582  14.418 -0.0941  0.1625  0.0352
24273W        W40347   8.436   6.496  12.426 -0.2286 -0.1280 -0.3304
24274W        W40348   3.908   2.715  16.628 -0.0933 -0.0901  0.1288
24275W        W40349  14.260  10.386  15.984  0.1125  0.0742  0.2168
24276W        W40350   0.302  17.562   0.304  0.0227 -0.0517  0.0414
24277W        W40351   6.615  10.282   4.494 -0.0625  0.0174  0.1677
24278W        W40352  15.553  12.996   2.680  0.1079  0.1038  0.0970
24279W        W40353   3.197  13.433   3.357  0.0255 -0.0258  0.1553
24280W        W40354  11.473  10.094  15.675  0.3220  0.1484 -0.1181
24281W        W40355  12.324   2.735  15.312  0.0981 -0.0694  0.3761
24282W        W40356   2.054   4.319   0.263  0.4486 -0.3835 -0.1777
24283W        W40357   3.808  15.071  12.950  0.1491 -0.1907 -0.0255
24284W        W40358   6.257   7.942  14.096  0.0614  0.0831 -0.0502
24285W        W40359   0.447   0.019  15.762  0.0313  0.1689 -0.1104
24286W        W40360  12.635  12.779  15.496  0.0120 -0.0759 -0.1018
24287W        W40361   3.773  12.622  15.643 -0.1203 -0.2027  0.0308
24288W        W40362   8.392   2.103  15.875 -0.0782  0.3817  0.2746
24289W        W40363   0.445   1.171  16.183 -0.0700 -0.5212  0.0245
24290W        W40364  10.257   6.609   3.421  0.0179 -0.2264 -0.3163
24291W        W40365   9.033  16.811  14.144 -0.0452  0.0438 -0.1190
24292W        W40366   5.248  11.066  16.687 -0.3497  0.2192  0.2601
24293W        W40367   9.830  15.385   1.136 -0.1880  0.0018  0.1272
24294W        W40368   3.830  12.723   1.344 -0.0426  0.0410 -0.2446
24295W        W40369   4.675   9.230   1.465  0.1097  0.0495  0.1177
24296W        W40370  15.053   0.876  13.385  0.0220 -0.0005 -0.0509
24297W        W40371   4.773  12.967  14.266  0.0202 -0.0971 -0.1452
24298W        W40372   5.325   0.688   0.031  0.3716 -0.3009 -0.3512
24299W        W40373   2.081   2.056   1.952  0.0418 -0.0701 -0.0204
24300W        W40374   2.148  16.672   2.945  0.2019  0.1317 -0.0605
24301W        W40375   7.775  14.234   2.158 -0.2928  0.0784 -0.1675
24302W        W40376   9.518  15.324   1.523 -0.0660 -0.6169 -0.4519
24303W        W40377  13.615  12.832  15.480 -0.0496  0.1239 -0.4023
24304W        W40378   3.121   0.483   2.731 -0.1900  0.0462 -0.0304
24305W        W40379   6.960  13.096  14.221 -0.2108 -0.1947 -0.0879
24306W        W40380   3.083  14.702  13.914 -0.0400 -0.0988  0.1164
24307W        W40381  13.533   5.081   1.484 -0.0418 -0.0883 -0.1224
24308W        W40382  14.750   5.610  16.585 -0.0028 -0.2805  0.0045
24309W        W40383   3.446   5.830   2.838 -0.1383  0.2409 -0.1156
24310W        W40384   1.364   4.974   3.302 -0.1018  0.1290  0.0206
24311W        W40385   1.323   6.487  16.956  0.1651  0.3041 -0.1211
24312W        W40386   7.353   3.978   1.515  0.1584  0.1589  0.0286
24313W        W40387  14.438  13.571  16.848  0.0753 -0.2060 -0.1961
24314W        W40388  11.483   0.600   5.844 -0.1072  0.4126  0.1605
24315W        W40389   8.168   5.043  14.254  0.1583 -0.2798 -0.0409
24316W        W40390  15.155  15.563   5.717  0.1987  0.0385 -0.1602
24317W        W40391   4.470  14.300  11.032  0.2182  0.0426 -0.0286
24318W        W40392   2.300   8.697   0.847  0.1330  0.0601  0.3134
24319W        W40393   8.575   7.862   5.455  0.0309 -0.1844  0.0799
24320W        W40394  16.011   2.178   3.084 -0.1118  0.0245 -0.0083
24321W        W40395  10.326   7.680   0.079 -0.0980 -0.1048  0.0498
24322W        W40396  10.164   8.893   5.588 -0.3730 -0.0665 -0.0820
24323W        W40397  15.667  12.639   1.466 -0.1593  0.1986 -0.2729
24324W        W40398   7.075  13.434   1.635  0.1727  0.1627  0.1092
24325W        W40399  14.406   6.705  11.636  0.3014 -0.0547 -0.0445
24326W        W40400   3.763  12.985  16.454 -0.0177 -0.0481 -0.0508
24327W        W40401   5.950   5.315  16.541  0.4123 -0.3608  0.0461
24328W        W40402   8.479   8.037   4.936  0.0924 -0.2237 -0.4712
24329W        W40403   1.314  16.614   6.420 -0.0272 -0.0633  0.1762
24330W        W40404  10.732  17.262   4.854  0.0301 -0.1158 -0.0598
24331W        W40405   3.346   1.231  15.164  0.2559  0.4029  0.2661
24332W        W40406   3.336  14.241  14.077  0.0516 -0.0589 -0.2089
24333W        W40407   5.598   1.460  15.335  0.0064 -0.2538 -0.0274
24334W        W40408  12.045   4.906   1.580  0.0429 -0.0559 -0.0815
24335W        W40409  13.079   3.647  16.322 -0.2288  0.1039  0.0224
24336W        W40410   0.581  13.674  15.753  0.0691 -0.1117  0.1129
24337W        W40411   2.278   0.251  12.064 -0.1094  0.2530 -0.2260
24338W        W40412   1.807   7.788   4.082 -0.0589 -0.0113 -0.2150
24339W        W40413  13.010   9.202   1.049  0.1670  0.0735 -0.0614
24340W        W40414   1.260   0.738   2.951 -0.3040 -0.0825  0.4465
24341W        W40415  11.484   0.927   1.340  0.0282  0.0732  0.0517
24342W        W40416   5.431   7.035   2.597  0.2669  0.0159 -0.1839
24343W        W40417  13.342   9.889  15.267 -0.3547  0.2034  0.1881
24344W        W40418  10.873  14.401  16.044 -0.0619 -0.0024  0.0114
24345W        W40419   6.588   4.430  11.535 -0.2216  0.2625  0.2108
24346W        W40420   2.655   7.098  13.993 -0.0391  0.0627  0.1323
24347W        W40421   5.110  16.869  11.514 -0.0320 -0.2024  0.0619
24348W        W40422  16.521  11.545   4.863  0.1814  0.2094 -0.3209
24349W        W40423  16.165   6.742   3.480  0.0503 -0.0794  0.0921
24350W        W40424  16.906   2.500  14.634  0.1687 -0.0612 -0.2272
24351W        W40425   5.579   4.625  14.916 -0.0781  0.2855 -0.0046
24352W        W40426   3.227  15.813  11.455  0.0716  0.0648  0.1315
24353W        W40427   2.171  12.864   0.753  0.3573  0.0915 -0.2258
24354W        W40428   5.406  11.756  16.182  0.0806  0.0858 -0.0206
24355W        W40429  12.156  14.273  13.115 -0.1042 -0.3364 -0.1633
24356W        W40430  15.194   0.697  11.004 -0.1238  0.0118 -0.1347
24357W        W40431  12.781  16.226   0.708 -0.2805 -0.3054  0.0493
24358W        W40432   8.910  16.015   0.023  0.0664  0.0140 -0.1153
24359W        W40433   6.633  11.340   1.631 -0.3586  0.1577  0.0866
24360W        W40434  12.122  15.712  14.834 -0.0059 -0.0929  0.0673
24361W        W40435   3.163   1.155  16.514 -0.0585 -0.2730  0.1348
24362W        W40436   7.326   7.604  15.899 -0.0557  0.1141  0.3818
24363W        W40437   5.570  10.473  12.808  0.1502  0.0948 -0.0694
24364W        W40438  15.150  16.260  13.910  0.0396  0.3851 -0.0076
24365W        W40439   7.402   6.944  11.647 -0.1111 -0.0339 -0.0110
24366W        W40440  12.503   7.786  12.762 -0.0923  0.2446 -0.0326
24367W        W40441   5.252   3.263   3.463  0.1677 -0.0419  0.2804
24368W        W40442  10.262  16.927   6.238  0.0141 -0.1420  0.3738
24369W        W40443  11.724   7.437  16.230 -0.5674 -0.0007 -0.0057
24370W        W40444  14.530   3.841   4.604 -0.0095 -0.1592 -0.0411
24371W        W40445   0.910  13.810  13.830 -0.4318  0.2557  0.0221
24372W        W40446   1.568   6.791   5.611 -0.2396 -0.2636 -0.0369
24373W        W40447   8.066   1.013   3.825 -0.3262 -0.1977 -0.1912
24374W        W40448   1.820   2.556   3.067 -0.1746 -0.2502 -0.2127
24375W        W40449   2.802  12.613   2.871 -0.1151  0.2641 -0.0977
24376W        W40450  16.325   7.052   1.815 -0.1004  0.3562 -0.0428
24377W        W40451  15.738   7.446   3.851  0.2590  0.2647 -0.0974
24378W        W40452   8.065   6.361  14.291 -0.4198 -0.2736 -0.2623
24379W        W40453  13.640  13.158  15.829  0.3380  0.1309  0.0383
24380W        W40454  10.014   3.425   0.587  0.0857  0.2192 -0.0943
24381W        W40455   8.358   8.042  11.734 -0.2089  0.0243  0.1352
24382W        W40456  10.638  15.895  11.787  0.1183 -0.1731 -0.0294
24383W        W40457  12.203  11.660  11.285 -0.0493  0.1872 -0.2748
24384W        W40458   3.091   9.998   5.661 -0.1652  0.0775 -0.0887
24385W        W40459  17.597   6.178   0.611 -0.0309  0.0468 -0.0220
24386W        W40460   3.827  13.864   4.788  0.0431 -0.1335 -0.6099
24387W        W40461  17.039  11.001   3.460  0.0303  0.0300  0.0985
24388W        W40462  12.002   3.005   0.421  0.1600 -0.4117  0.2390
24389W        W40463   1.113   2.097   5.445 -0.2847  0.1634 -0.1427
24390W        W40464   3.696   6.209  14.085  0.0184 -0.0320 -0.0349
24391W        W40465   8.787   8.849   4.091  0.4005  0.2108  0.4601
24392W        W40466  10.304   5.304   6.608  0.0252 -0.1248 -0.2635
24393W        W40467  15.347   9.022  13.162 -0.2062  0.3128  0.0273
24394W        W40468  15.922   0.045   4.245  0.0405  0.1718 -0.1844
24395W        W40469  11.609   7.651   0.754  0.0788 -0.0048 -0.0803
24396W        W40470   1.163   3.472   0.203 -0.2865  0.0810 -0.0113
24397W        W40471   3.608  10.084  15.683  0.0901 -0.1920 -0.0409
24398W        W40472  10.634  13.939   4.365 -0.1481 -0.1500 -0.2651
24399W        W40473   5.702   6.635   0.551  0.3559 -0.3189 -0.4353
24400W        W40474  12.317  17.423   0.150 -0.3556  0.0109  0.2077
24401W        W40475  10.569   5.727  14.846  0.0033  0.1816 -0.1918
24402W        W40476   9.420  10.756  16.834 -0.0077 -0.0725 -0.0208
24403W        W40477   9.636  12.617   5.307  0.2097 -0.1474  0.1091
24404W        W40478   7.581  13.188   3.042  0.0884  0.0454 -0.2152
24405W        W40479   0.556  11.058   2.978 -0.0166  0.0136 -0.0211
24406W        W40480  17.156   8.311  12.017 -0.0336  0.2376  0.2770
24407W        W40481   5.203   1.886   3.615  0.0250 -0.1669 -0.0440
24408W        W40482  16.406   6.849  13.803 -0.0509  0.2719 -0.0576
24409W        W40483   7.729   1.056   2.643  0.0704  0.0065  0.1894
24410W        W40484   2.239   9.639   0.700 -0.0461 -0.1675 -0.1254
24411W        W40485  11.858   0.066   3.465  0.2501 -0.2540  0.0458
24412W        W40486  11.404  15.805   4.068  0.0709  0.0215 -0.0850
24413W        W40487  14.251  14.200   0.430  0.1281  0.1218  0.3882
24414W        W40488   7.151  11.005  15.470  0.0122 -0.0954  0.1793
24415W        W40489  12.044   2.963  13.326 -0.2628  0.1019  0.0851
24416W        W40490  15.353   2.665  14.790 -0.0175  0.0769 -0.0648
24417W        W40491   4.213   5.667  14.193 -0.0873 -0.1442 -0.0136
24418W        W40492   9.538  10.057  15.175  0.0578 -0.0254 -0.3023
24419W        W40493  15.029   7.429   2.747 -0.1821  0.0982  0.3027
24420W        W40494   0.988  16.835  14.281 -0.0327 -0.1239 -0.0001
24421W        W40495   2.278   7.660   3.105 -0.4204  0.1086 -0.3982
24422W        W40496   3.410   6.680  12.361  0.4422 -0.0367 -0.0458
24423W        W40497   8.452  14.810   5.586  0.3359  0.1965 -0.1659
24424W        W40498  12.057  15.109  15.417  0.0396 -0.0832 -0.1562
24425W        W40499   9.418   8.120  15.529 -0.1423 -0.0155 -0.2935
24426W        W40500   7.308   0.266  16.943 -0.1060  0.1105 -0.2606
24427W        W40501   2.032   5.077  14.527 -0.1602  0.0441 -0.3385
24428W        W40502  11.935   1.709   5.666  0.1539 -0.1581  0.0551
24429W        W40503   6.857   4.228   2.490  0.0315  0.2596  0.0586
24430W        W40504  14.954   0.262  12.777  0.0028 -0.0973  0.0212
24431W        W40505  11.469   7.002  16.625  0.0093 -0.2957  0.0221
24432W        W40506  13.594  14.764   0.594  0.0851  0.1836  0.0863
24433W        W40507  16.874   2.675  15.883 -0.1609  0.1133  0.3877
24434W        W40508  10.827   8.577   1.524 -0.0852  0.2517 -0.2160
24435W        W40509   5.134  11.960   4.943 -0.1069  0.0240 -0.3021
24436W        W40510   2.000   0.454   0.849  0.0883 -0.0170  0.1152
24437W        W40511   4.862   0.509  12.451 -0.2707  0.2157  0.0374
24438W        W40512   6.710  11.627  14.538 -0.2023 -0.0407  0.1541
24439W        W40513   5.587  12.810  15.337 -0.0513  0.3736  0.2896
24440W        W40514   1.545  10.807   5.872 -0.0865 -0.1605  0.1637
24441W        W40515   1.383  13.738  14.634 -0.2905  0.1800  0.1195
24442W        W40516   3.944   4.580  15.465  0.1887 -0.1127 -0.0119
24443W        W40517   1.558   8.970  13.218  0.2470 -0.0962 -0.0526
24444W        W40518  10.124   4.837  12.204  0.1257  0.2486  0.0623
24445W        W40519   0.324   4.779   0.568 -0.2710  0.1363  0.3322
24446W        W40520   2.577   3.188   3.145  0.2125 -0.1769  0.0589
24447W        W40521  13.804   7.283   1.444 -0.3999  0.0047 -0.3297
24448W        W40522   1.048   9.320   3.612 -0.1120  0.0145 -0.0798
24449W        W40523  10.380  10.074   1.277  0.1510 -0.1053  0.0521
24450W        W40524   6.173  13.950   3.788 -0.0802  0.0405 -0.0668
24451W        W40525   5.798   8.186   4.864  0.0332 -0.2423 -0.1735
24452W        W40526   4.070   8.933  13.913 -0.0818 -0.1071 -0.1883
24453W        W40527  16.679  12.401   4.467  0.0424  0.0831 -0.0662
24454W        W40528   0.166  15.434   0.086  0.0267  0.4059 -0.3050
24455W        W40529  10.774   3.373  13.542 -0.0540  0.1951 -0.1562
24456W        W40530  17.490   4.416   5.183  0.0737  0.2656  0.1852
24457W        W40531   4.471   2.484   4.304 -0.1004 -0.0318  0.2236
24458W        W40532  11.961   3.403   2.684 -0.1053  0.0377  0.4002
24459W        W40533   9.546   4.310   5.768 -0.2338 -0.0049 -0.0442
24460W        W40534   4.602   7.816   4.302  0.0929  0.3532 -0.0065
24461W        W40535  14.797   4.306  16.128  0.0276  0.3082  0.2524
24462W        W40536  16.283  16.338   0.521  0.2404 -0.4072 -0.0296
24463W        W40537  10.950  17.093  15.216 -0.4089  0.3070 -0.2057
24464W        W40538  13.641   2.931   2.066 -0.0956  0.0773  0.1339
24465W        W40539  17.579   2.822  16.399 -0.2183  0.3118  0.0676
24466W        W40540   9.929   1.131   5.476 -0.1896  0.1664  0.0810
24467W        W40541  13.911  10.697  12.631  0.0511  0.3088  0.1156
24468W        W40542  16.817   5.480  12.391 -0.0362  0.0032  0.0137
24469W        W40543  17.219  11.859   1.187  0.1128  0.1127  0.3226
24470W        W40544  13.514  10.307  16.201 -0.2553 -0.2907 -0.2408
24471W        W40545  17.816   6.628  13.484 -0.2564  0.0441 -0.0136
24472W        W40546  10.614   6.251  12.280  0.2541 -0.1855 -0.2048
24473W        W40547   9.585   3.029  16.350 -0.0804  0.1089  0.0010
24474W        W40548   2.634  13.007   0.674 -0.0280  0.3251 -0.1251
24475W        W40549  11.276   7.268   2.187  0.2590 -0.1766 -0.0232
24476W        W40550   3.464   3.336   0.571 -0.1308 -0.2671  0.0370
24477W        W40551   5.510   8.203   4.316  0.1265 -0.0096 -0.0099
24478W        W40552   5.997   2.486   2.468  0.0213  0.0353  0.3976
24479W        W40553  14.106  17.065   5.416  0.0742 -0.2341 -0.0191
24480W        W40554   3.041   7.890   4.931  0.0917 -0.3113 -0.0507
24481W        W40555   9.892   2.059  12.502  0.0468 -0.0178 -0.0497
24482W        W40556   5.846  10.688  13.200 -0.0804  0.3196  0.0400
24483W        W40557   4.528   1.308  12.475 -0.2227 -0.0207  0.2848
24484W        W40558   7.035   1.979   6.312  0.1895 -0.0125 -0.0229
24485W        W40559   7.346   6.486   0.001  0.1257 -0.2393 -0.0745
24486W        W40560   0.861   9.130  12.209  0.0015  0.1068 -0.1485
24487W        W40561  12.414   8.690   5.204  0.1042 -0.0354 -0.0641
24488W        W40562   5.140   9.394  15.761 -0.1596  0.0401  0.0544
24489W        W40563  15.609  11.347  14.019  0.1148  0.0691  0.1788
24490W        W40564   6.356   2.113  12.605 -0.1349  0.1519  0.0647
24491W        W40565   1.690  10.975  14.796 -0.1661  0.2124  0.4772
24492W        W40566   7.410   8.270  16.568 -0.0174  0.0606  0.2073
24493W        W40567  16.182  16.122  14.780 -0.0708  0.0499 -0.1880
24494W        W40568   6.460   7.305   5.871  0.1113  0.1818  0.0283
24495W        W40569  10.015   0.957   2.003  0.1795 -0.0173  0.0468
24496W        W40570   0.967   2.248   0.124 -0.3801  0.0398  0.1825
24497W        W40571   7.785   9.196  13.663  0.3098 -0.1812 -0.1408
24498W        W40572   7.120   1.521  14.718 -0.0615  0.0526 -0.0551
24499W        W40573   4.573  11.000   3.712 -0.0400 -0.1559  0.1696
24500W        W40574   4.189   1.450  13.291  0.0419  0.1102  0.1255
24501W        W40575   8.838  14.262  16.959 -0.0343 -0.2828  0.1715
24502W        W40576   0.593  11.620   3.566 -0.2779 -0.0283 -0.0316
24503W        W40577  17.574  13.882   5.344  0.0511 -0.3179  0.1612
24504W        W40578   2.221   6.912   1.424 -0.0671 -0.0447  0.1609
24505W        W40579  12.316   4.731   0.136 -0.0511 -0.2213  0.2492
24506W        W40580   2.273   6.815   0.097  0.5863  0.2603 -0.0013
24507W        W40581   8.550   4.882  16.017 -0.1224 -0.1866 -0.0539
24508W        W40582   1.106  16.689   4.579 -0.4797  0.2082 -0.2222
24509W        W40583  10.326   8.724   0.648 -0.1630 -0.0103 -0.0384
24510W        W40584  16.062  13.765  14.626  0.1575 -0.1483 -0.0406
24511W        W40585   5.850  15.394   0.823  0.1611  0.2374  0.3576
24512W        W40586   9.318  13.952  15.166 -0.1485  0.1726 -0.0143
24513W        W40587  12.144  13.205  13.379  0.3154  0.0736  0.2935
24514W        W40588  10.194  14.287   3.060 -0.0306 -0.2952 -0.2986
24515W        W40589   6.170  13.963  14.890 -0.1496  0.1394  0.1794
24516W        W40590  13.839   5.658   3.834  0.3891 -0.0698 -0.1492
24517W        W40591   5.999  11.395  12.749 -0.2192  0.0925 -0.2539
24518W        W40592   9.584   9.878  15.647  0.0846  0.2418 -0.2522
24519W        W40593   4.114   8.437  16.318 -0.2786 -0.1250 -0.2797
24520W        W40594  11.186   3.605  16.215 -0.4579  0.0464  0.1977
24521W        W40595  10.375   5.715  14.373  0.0726 -0.0870  0.0337
24522W        W40596  17.567  11.113  15.403  0.1024  0.2514 -0.0203
24523W        W40597  11.933   8.437  12.490 -0.3478 -0.0038  0.0410
24524W        W40598  12.687   1.641  11.725  0.0383  0.2062  0.0495
24525W        W40599   4.178   9.773  15.673  0.2867  0.2719 -0.0017
24526W        W40600   3.662   9.325   3.184  0.1242 -0.0629  0.3491
24527W        W40601   9.091   4.419   1.669 -0.0498 -0.3715 -0.1365
24528W        W40602  17.782  12.025   2.445 -0.0782 -0.4703 -0.2548
24529W        W40603   0.206  13.321   0.373 -0.0045 -0.1456  0.2269
24530W        W40604  16.099   7.109   3.929 -0.0564  0.0294  0.1307
24531W        W40605  11.499  13.301   1.715 -0.1533  0.0681  0.1058
24532W        W40606   2.994   8.638   6.257 -0.2010 -0.0538 -0.1193
24533W        W40607   3.287   8.349  10.941 -0.1696  0.4375  0.2618
24534W        W40608  14.359   3.462   4.905  0.0045 -0.0828 -0.1977
24535W        W40609   3.003   5.856  11.801 -0.0277 -0.2138 -0.2580
24536W        W40610  14.723   3.967  13.396 -0.0090 -0.0650  0.1455
24537W        W40611  17.778  17.396  14.084 -0.1444 -0.0890  0.1308
24538W        W40612   1.017   3.860   4.647 -0.4690  0.2005 -0.1229
24539W        W40613  15.500   7.408   4.275 -0.1910  0.4009 -0.1138
24540W        W40614   2.762   0.878  14.293  0.1148  0.2780  0.1834
24541W        W40615   4.376   3.699  13.051  0.0700  0.0366 -0.0173
24542W        W40616   0.262  10.005  14.631 -0.0917 -0.1064 -0.1127
24543W        W40617   9.246   1.245  16.073 -0.0417 -0.1567  0.0791
24544W        W40618   8.446  11.387   0.466 -0.2886  0.2380  0.0541
24545W        W40619  15.401  17.220   0.201 -0.1598  0.0700  0.0969
24546W        W40620   7.719  11.096  12.285 -0.2066  0.0092  0.0730
24547W        W40621  13.896  12.090   0.735  0.3801 -0.1975  0.0302
24548W        W40622   0.891   3.669   5.683 -0.2695  0.0505  0.2001
24549W        W40623   5.415  10.338   4.171 -0.1421 -0.1077  0.0555
24550W        W40624   5.143  15.736   2.411 -0.0305  0.1201 -0.0440
24551W        W40625   7.802  17.512  11.539 -0.0803 -0.0899 -0.0411
24552W        W40626  11.792   6.275  12.892 -0.0879 -0.0148  0.0984
24553W        W40627   7.842   5.371   4.186  0.0926  0.1659  0.3061
24554W        W40628  16.711   6.948  16.793  0.0125 -0.1660  0.1754
24555W        W40629  11.326  16.078   1.708  0.3655 -0.3035  0.0783
24556W        W40630  13.913   4.501  13.279  0.0444 -0.1404  0.1015
24557W        W40631  15.589  16.486   0.144  0.0678 -0.2817 -0.2956
24558W        W40632   4.306   0.573   1.460 -0.3418  0.1737 -0.0662
24559W        W40633  16.231   9.067   0.553  0.1239  0.0770  0.1518
24560W        W40634   3.471  13.859  13.680 -0.2579  0.0689 -0.1561
24561W        W40635  16.035  14.322   2.529 -0.0132  0.0848 -0.2470
24562W        W40636   7.035   6.626  12.866 -0.0608 -0.0218 -0.2921
24563W        W40637  11.277   8.666   0.248 -0.2336 -0.3757 -0.1886
24564W        W40638  17.105   2.635  16.308 -0.0922 -0.1312  0.2382
24565W        W40639  13.156  12.077   4.762 -0.1285 -0.3025 -0.0837
24566W        W40640  10.337   3.403  15.130  0.0505  0.0984 -0.0296
24567W        W40641  15.059   1.959  16.050 -0.1977 -0.2349 -0.1630
24568W        W40642  17.381  11.440   5.636 -0.1902  0.1944  0.0297
24569W        W40643   6.873  16.140  15.807  0.0766  0.0057 -0.2031
24570W        W40644  10.504   2.729  13.439 -0.1048 -0.0152 -0.1848
24571W        W40645  13.547   9.424  12.637 -0.0780 -0.1146 -0.1812
24572W        W40646   0.088  16.644   2.631 -0.4495  0.1206 -0.2993
24573W        W40647  17.539   1.687  14.986  0.0692 -0.1831 -0.2228
24574W        W40648   5.805   4.191  11.787  0.0756  0.0182  0.0297
24575W        W40649  13.230   3.083  12.853  0.0011  0.2841  0.0692
24576W        W40650   7.347  16.412  15.638 -0.2423  0.1279  0.2210
24577W        W40651  10.385   7.743   1.147  0.2550  0.0602 -0.2023
24578W        W40652  13.278  10.365  13.593 -0.0005 -0.0797 -0.0970
24579W        W40653   5.419   7.998   6.151  0.1535 -0.1448 -0.1936
24580W        W40654  11.361   1.312  14.605 -0.0517 -0.0304 -0.0637
24581W        W40655   8.210  14.690  16.271  0.1076  0.2489  0.0496
24582W        W40656   8.004   5.227  16.814  0.0103 -0.0246  0.3505
24583W        W40657  14.904  16.705  13.814 -0.2611  0.3571  0.0704
24584W        W40658   9.528  13.424   1.815  0.2090  0.0409  0.4024
24585W        W40659   0.711   1.534  14.995  0.0986  0.0860 -0.1388
24586W        W40660  16.544  12.979   2.770  0.2077  0.1985  0.3050
24587W        W40661   0.751   0.802   1.494  0.0472  0.1199 -0.1676
24588W        W40662   1.366  17.232   0.181  0.4847 -0.3536 -0.2705
24589W        W40663   6.436  11.512   4.383  0.0830 -0.0942 -0.0002
24590W        W40664   2.129  10.325  14.997  0.1800 -0.0758 -0.1462
24591W        W40665   7.124   3.366   5.421 -0.1968 -0.0511 -0.2079
24592W        W40666  12.241   2.926  14.532 -0.1685  0.1580 -0.0296
24593W        W40667   7.007   5.694   5.750 -0.1454 -0.0483  0.1164
24594W        W40668  15.888   8.160  12.619  0.0599  0.1469 -0.3246
24595W        W40669   1.118   6.675   1.326 -0.1061 -0.1476  0.1116
24596W        W40670  14.456   9.710   1.387  0.0384 -0.0859 -0.0996
24597W        W40671   8.623   2.216  11.877 -0.0001 -0.1568  0.1434
24598W        W40672   4.007   6.624  11.353  0.1515  0.2049  0.2635
24599W        W40673  14.193   2.260   4.864 -0.2031  0.1600 -0.2732
24600W        W40674   7.033  16.915   4.021 -0.3769  0.2513  0.1925
24601W        W40675   6.791  13.870   6.003  0.1323  0.2644  0.1587
24602W        W40676   5.440   5.617   5.724  0.1734 -0.2350 -0.0652
24603W        W40677   0.274  10.759  13.907 -0.1092  0.0727  0.0649
24604W        W40678  10.484   0.836  12.532  0.0181  0.2180 -0.4538
24605W        W40679   0.829  14.194  14.166 -0.0603  0.1531  0.1034
24606W        W40680   8.145   4.574  16.847 -0.0400 -0.1375  0.1714
24607W        W40681   5.831  15.471  13.337 -0.2657 -0.0328 -0.0874
24608W        W40682   1.408   3.252  14.521  0.1170 -0.0562  0.0372
24609W        W40683   6.709  13.167   0.443  0.1608 -0.0744 -0.0455
24610W        W40684   6.812   3.206  13.744 -0.1667 -0.3534 -0.3212
24611W        W40685  14.993   0.578  16.242 -0.2903 -0.1628 -0.0354
24612W        W40686  14.814   0.387  13.859  0.2548  0.0827 -0.0314
24613W        W40687   9.244  10.647  13.031 -0.3114 -0.0561  0.5681
24614W        W40688  12.567   2.843   2.459  0.0010  0.2275  0.1033
24615W        W40689   5.305   8.818   0.723 -0.2159  0.4105 -0.1065
24616W        W40690  16.927  17.499  13.837 -0.2001 -0.0981 -0.1727
24617W        W40691   5.403  11.379   3.709  0.1053 -0.0464  0.2347
24618W        W40692   6.669   3.150   1.151  0.0005  0.0267  0.0713
24619W        W40693  17.440   2.924   2.700 -0.1456  0.2050 -0.0429
24620W        W40694   2.771   9.531  12.609  0.0656  0.0738 -0.2745
24621W        W40695   1.127   1.649   5.668 -0.0922  0.0680  0.1858
24622W        W40696  16.234  17.490  12.893  0.2713  0.2510 -0.0883
24623W        W40697  13.808   4.814  12.455  0.0776 -0.5116 -0.0218
24624W        W40698  15.843   3.298  16.224  0.2395  0.0437  0.3469
24625W        W40699   9.048   8.688   2.046  0.1216 -0.1645  0.1736
24626W        W40700   5.652   5.422   0.101 -0.1749  0.1164 -0.0260
24627W        W40701  10.608   5.779  12.073 -0.1533  0.4592 -0.1219
24628W        W40702   2.658   1.685  12.615 -0.2351 -0.1084  0.0270
24629W        W40703   6.438  16.057  15.990 -0.2398 -0.2859  0.0556
24630W        W40704  13.416  15.154  16.176  0.0426 -0.4671  0.1034
24631W        W40705   2.325   0.552   3.213  0.0080  0.3384  0.5157
24632W        W40706   6.456   8.006   2.945 -0.2408  0.2093 -0.1462
24633W        W40707  12.877  11.412   3.884  0.1145 -0.1501 -0.0675
24634W        W40708   7.757   7.477   4.499 -0.3249 -0.0745 -0.3010
24635W        W40709   0.512  12.261   5.272 -0.0707  0.0091 -0.2742
24636W        W40710  16.488  12.709   1.610 -0.0570 -0.1182  0.0441
24637W        W40711   5.232  15.459  15.546  0.0296  0.1425 -0.0865
24638W        W40712   6.261  14.361   0.587 -0.1162  0.2723  0.2877
24639W        W40713  14.979   5.343  10.946  0.0869  0.0733  0.1626
24640W        W40714  14.159   6.587  14.521 -0.1105 -0.0371 -0.0864
24641W        W40715   3.005  17.514   3.625 -0.2517  0.1043 -0.1876
24642W        W40716   7.577   1.833  11.992 -0.0025  0.2985  0.3077
24643W        W40717  17.345   2.424   4.805 -0.0376 -0.2739 -0.0443
24644W        W40718  12.466  16.331   2.678 -0.1275 -0.2852 -0.0768
24645W        W40719  15.244   4.827  15.523 -0.0214  0.2282 -0.2433
24646W        W40720   3.030   2.598  16.597 -0.1302 -0.0770  0.0150
24647W        W40721   4.900   1.890   0.503 -0.3695  0.2281 -0.0276
24648W        W40722  13.558  10.340  12.861 -0.0777  0.0945  0.2164
24649W        W40723  15.103   9.966   3.119 -0.2375 -0.0160  0.3648
24650W        W40724  10.223   3.782   0.907  0.0218  0.3006  0.1859
24651W        W40725   1.782   7.138   6.002 -0.0498 -0.1949  0.4240
24652W        W40726   7.581  17.634  15.746 -0.1316  0.1406 -0.3984
24653W        W40727   2.361   9.606   2.671  0.5075  0.2308 -0.1662
24654W        W40728   5.368  13.311   5.646 -0.1679 -0.2477  0.0944
24655W        W40729  10.058   4.165  15.661  0.3855  0.4828  0.2761
24656W        W40730   4.209   8.872   5.090  0.1985  0.1209  0.0049
24657W        W40731   9.182   1.997   3.114  0.1193  0.0606  0.1171
24658W        W40732  17.027   7.236  14.274 -0.0978  0.0636 -0.0150
24659W        W40733   6.879   4.733   2.455 -0.0048  0.0721  0.1096
24660W        W40734   0.867  10.510  13.405 -0.0436  0.2835 -0.0890
24661W        W40735   9.080   3.213   0.181 -0.0411 -0.1672  0.3421
24662W        W40736   4.031  16.521  11.385 -0.2619  0.0189 -0.2901
24663W        W40737  10.298  12.009  13.866  0.3534 -0.0403 -0.0366
24664W        W40738  13.799  17.072  13.963  0.2597  0.0883 -0.1010
24665W        W40739   1.284   1.708   2.926  0.3020 -0.2199  0.1444
24666W        W40740  10.916   0.518   2.500 -0.0004 -0.3977 -0.2309
24667W        W40741   2.574   5.926  16.697  0.1458 -0.0487 -0.0284
24668W        W40742  16.992   5.336   3.630 -0.1143 -0.3980 -0.1634
24669W        W40743   1.778  14.646  15.643  0.0995 -0.2469 -0.1840
24670W        W40744   3.803  15.307   1.911  0.2056  0.0511 -0.0241
24671W        W40745   4.827   6.674   0.894  0.1017  0.0676 -0.1207
24672W        W40746  14.451   1.303  15.848 -0.0576  0.0566 -0.1631
24673W        W40747  15.365   7.458  12.992  0.0708  0.1209 -0.2601
24674W        W40748   8.569   5.440   2.757  0.0820 -0.0866 -0.2386
24675W        W40749   5.443  10.963   0.209 -0.3485 -0.1278  0.0278
24676W        W40750  15.632  13.288   3.557 -0.2393  0.1401  0.0898
24677W        W40751   1.460   2.185   4.051 -0.2357  0.1389  0.0770
24678W        W40752   6.377  16.603  12.158  0.0754  0.0670  0.1274
24679W        W40753  15.848   6.861   5.643  0.0996 -0.2453  0.0057
24680W        W40754  10.184  11.042   4.784 -0.0757  0.1158 -0.0852
24681W        W40755  11.835   4.956   2.040 -0.0546 -0.0471  0.1452
24682W        W40756   2.294   3.307   5.749  0.1405  0.2315 -0.2286
24683W        W40757  11.547   2.176  15.132 -0.1762  0.0337 -0.0953
24684W        W40758  14.998   9.456  14.579  0.1252 -0.2200 -0.1843
24685W        W40759   7.002  13.302  13.159  0.1232  0.1958 -0.1076
24686W        W40760  14.094   9.499   1.719  0.1185  0.0086  0.1214
24687W        W40761   7.372   1.615   4.087 -0.0248  0.1948  0.1335
24688W        W40762   9.035   0.394  16.212 -0.3260 -0.0223  0.3401
24689W        W40763   8.557   6.401  16.080  0.0122 -0.2204 -0.1939
24690W        W40764   7.086   0.375   4.523  0.0144 -0.1332 -0.2185
24691W        W40765   0.528  15.444   2.902  0.0630  0.1468  0.1756
24692W        W40766   4.366   3.344  15.948  0.1293 -0.0799  0.0846
24693W        W40767  16.656   2.077   0.348  0.0849 -0.3215  0.0789
24694W        W40768   9.357  15.096   3.539 -0.1653  0.3918 -0.0346
24695W        W40769  16.642  17.362   1.535  0.0203 -0.0197  0.0436
24696W        W40770  13.289  14.705  16.356 -0.1171  0.0275  0.0500
24697W        W40771   8.885   6.116  14.301 -0.0491 -0.1254 -0.1631
24698W        W40772   6.088  15.854  15.231 -0.0602 -0.0556 -0.2438
24699W        W40773   1.659   2.892   3.400  0.3252 -0.3638 -0.2939
24700W        W40774   5.471  14.698  13.573 -0.1210 -0.3041 -0.1055
24701W        W40775  13.781  10.618   0.470 -0.4341  0.0942  0.0767
24702W        W40776   7.613  16.247  14.065 -0.1572 -0.2306  0.0305
24703W        W40777  13.318   2.022   3.339 -0.1278  0.1995  0.0421
24704W        W40778   1.259  17.777   3.074  0.0329 -0.2169 -0.3922
24705W        W40779   0.441  14.858   2.920  0.1568  0.3312  0.3958
24706W        W40780   9.641  15.572  15.980 -0.0295 -0.1311  0.3132
24707W        W40781  16.994  11.815  11.606  0.1550  0.1205  0.3925
24708W        W40782   7.718   2.436   2.815  0.2320  0.1026  0.0862
24709W        W40783   9.258  13.059   2.547  0.1059  0.3902 -0.0963
24710W        W40784   5.133   7.864  12.094  0.1158 -0.1634 -0.0130
24711W        W40785  17.623  15.200   0.452 -0.0801 -0.2998 -0.2401
24712W        W40786  13.074  15.795   1.166 -0.1684 -0.2543 -0.3822
24713W        W40787   0.851  16.725   1.698 -0.0562  0.2232 -0.0441
24714W        W40788  11.206  12.880  16.327 -0.0819 -0.1962 -0.2574
24715W        W40789   6.637  14.557   1.916 -0.2567 -0.1312 -0.0573
24716W        W40790  11.388  12.794   4.836  0.4581 -0.1988 -0.5969
24717W        W40791   0.210  10.367  15.520 -0.0397  0.2671  0.3647
24718W        W40792  10.409  13.376   4.406  0.1732 -0.0909 -0.0636
24719W        W40793   3.218  15.234  14.302  0.0045 -0.2342 -0.0248
24720W        W40794  14.201   0.604   4.048  0.4705  0.2585 -0.1582
24721W        W40795   5.149   6.636   3.308 -0.0089 -0.1846  0.2267
24722W        W40796   3.545  15.911  13.344  0.2584  0.2381 -0.1081
24723W        W40797   1.280   9.063   4.515 -0.1055 -0.0919 -0.1624
24724W        W40798   2.167  12.939  12.450 -0.2006  0.0861  0.1614
24725W        W40799  13.135   5.529   0.719  0.3061 -0.2941  0.1057
24726W        W40800   6.137  14.690  12.258  0.0380 -0.3541 -0.0349
24727W        W40801   6.832   1.247  12.883  0.0807  0.1203  0.1311
24728W        W40802   4.305  13.620   1.952  0.1484 -0.0712  0.1078
24729W        W40803  10.627   7.079   5.264 -0.1940 -0.3129  0.0112
24730W        W40804   9.735  13.217   2.264 -0.3150  0.1033  0.1202
24731W        W40805   3.986   7.251  11.830  0.1072 -0.1590  0.1050
24732W        W40806   5.184   7.489   4.619  0.1944  0.2316  0.2066
24733W        W40807  14.875   4.997   1.819  0.1465  0.0285  0.1437
24734W        W40808   8.492  15.546  13.080  0.3859 -0.2122  0.0393
24735W        W40809   8.382  13.883  14.885  0.2660 -0.0311 -0.1313
24736W        W40810   4.594   4.579   5.538  0.0343 -0.2411 -0.2513
24737W        W40811   7.913   1.925  15.946  0.0393 -0.0262  0.1028
24738W        W40812  10.376   1.782  14.770  0.3116  0.0081 -0.0584
24739W        W40813   7.919   0.423  14.703 -0.0831 -0.0362 -0.1734
24740W        W40814   4.007   7.482  16.248 -0.4358  0.0015  0.2127
24741W        W40815   4.776  17.126   6.454  0.1884 -0.0893  0.0112
24742W        W40816   0.578  16.203   5.326 -0.0076  0.2169 -0.0261
24743W        W40817   7.435   7.308   0.525  0.2247 -0.2934 -0.2848
24744W        W40818  12.062   1.704   2.930 -0.0293 -0.3198 -0.2401
24745W        W40819  16.881   3.744  13.264  0.1594  0.0467  0.1206
24746W        W40820  12.496   2.005   3.694  0.1022  0.4302 -0.0637
24747W        W40821  16.354   9.918   4.678 -0.2535  0.3571  0.0361
24748W        W40822   9.253   8.540  15.955 -0.2598 -0.0439  0.0364
24749W        W40823  17.447   1.261  14.757  0.0412 -0.0192  0.0186
24750W        W40824   7.832  11.615  12.331  0.2667 -0.1068  0.2255
24751W        W40825   2.701   5.931  15.788  0.0467  0.0859 -0.1025
24752W        W40826   2.911  16.544  11.948 -0.0454 -0.0263  0.1042
24753W        W40827  13.439   3.346  12.494  0.0327 -0.4145 -0.2278
24754W        W40828  17.193   7.802   3.361  0.0902 -0.2970  0.1208
24755W        W40829   0.745  17.765   3.249  0.0092 -0.2855 -0.1774
24756W        W40830  13.286   5.656   1.198  0.2475  0.1557 -0.4885
24757W        W40831  15.485   5.313  13.205 -0.0837 -0.0159 -0.2801
24758W        W40832   7.527   4.823   1.209 -0.0317  0.2352  0.2640
24759W        W40833   8.300  13.242   5.990  0.1186 -0.2437  0.1813
24760W        W40834   0.538  16.396   1.904 -0.0565 -0.0821  0.2990
24761W        W40835   6.627  15.634   0.502 -0.0645  0.0312 -0.1743
24762W        W40836   3.105  11.064  14.285 -0.0636 -0.0098  0.2416
24763W        W40837  10.697   9.028  12.799 -0.0897 -0.1779  0.0760
24764W        W40838   2.267  13.408   0.554 -0.0178  0.1912  0.1594
24765W        W40839   5.006   4.451   2.827 -0.1462  0.2045 -0.2471
24766W        W40840   1.374   3.132  13.890 -0.1407  0.0152  0.0182
24767W        W40841   4.118   4.356  13.855  0.0202 -0.0693 -0.1475
24768W        W40842  10.167   4.408  12.489 -0.1261  0.0006 -0.2329
24769W        W40843  11.870   6.733  16.699  0.0745  0.0704  0.1056
24770W        W40844  15.718   4.369   4.983 -0.0501  0.0269  0.1019
24771W        W40845  15.418   0.940   2.083  0.0310 -0.1081 -0.2900
24772W        W40846   2.393   9.837  13.657 -0.1282  0.2736 -0.1646
24773W        W40847   1.188  17.125   4.770 -0.2557 -0.0032 -0.0082
24774W        W40848   3.630   1.690   4.925 -0.2521 -0.2893  0.3369
24775W        W40849   4.383   7.798  16.359  0.2292 -0.0418  0.0328
24776W        W40850  15.705   2.812  14.476 -0.0314  0.0867  0.2591
24777W        W40851   7.967   8.108   2.139  0.2938 -0.0186  0.1798
24778W        W40852   6.189  11.975  15.924  0.1931  0.3510 -0.0834
24779W        W40853   6.184  10.340   4.205 -0.1410  0.2614 -0.1223
24780W        W40854  15.355   2.679  15.829  0.2669  0.3120  0.3078
24781W        W40855  13.896  16.660   1.280 -0.1560  0.1262  0.2475
24782W        W40856   0.208   2.628   3.893 -0.0693  0.0716  0.0805
24783W        W40857   7.891  17.430   4.822 -0.1813 -0.0932  0.1927
24784W        W40858  11.333  11.671  15.121  0.3952  0.0989  0.1123
24785W        W40859  13.381  15.402   3.028  0.0441  0.3165 -0.2701
24786W        W40860   7.714  16.673  14.876  0.2338  0.1738  0.3657
24787W        W40861   5.252   5.826   1.929 -0.1255 -0.0762 -0.1076
24788W        W40862   0.217   6.650   0.891 -0.1063  0.2828 -0.2540
24789W        W40863  16.536  12.836   0.126  0.1680  0.1083 -0.1944
24790W        W40864   8.112  15.011   0.290  0.3395 -0.1228 -0.0048
24791W        W40865   7.733  17.752  14.502 -0.0335 -0.1605  0.0326
24792W        W40866   9.338   5.858   5.617  0.0723  0.0208 -0.1244
24793W        W40867   7.589   0.985   0.101  0.0619 -0.0717  0.0524
24794W        W40868   9.808   0.291  16.957 -0.0548 -0.0300  0.2423
24795W        W40869   2.802  10.207  12.062  0.4000 -0.0218 -0.2129
24796W        W40870  17.607   4.366   2.276  0.3986  0.1118  0.2120
24797W        W40871   3.925  10.452  12.780  0.0935 -0.0036  0.1016
24798W        W40872  17.397   2.894   4.986  0.4731 -0.1650  0.2895
24799W        W40873  17.139   7.742   2.033  0.3578  0.2323  0.0900
24800W        W40874   6.127  13.978   4.276  0.1096  0.2327  0.2140
24801W        W40875  10.460  16.632   5.277  0.0651 -0.1612  0.1109
24802W        W40876  13.102  13.081  14.206 -0.0779  0.0592  0.0838
24803W        W40877   4.348   6.595  15.675  0.1069 -0.3625 -0.2837
24804W        W40878   9.138   7.032  12.623  0.0326 -0.0607 -0.1694
24805W        W40879   3.157   7.872   5.932  0.0107 -0.0894 -0.2181
24806W        W40880   6.715  16.431   3.991 -0.0976  0.3122 -0.0572
24807W        W40881  10.137  13.854   5.099 -0.1383  0.1412  0.1013
24808W        W40882  15.994   5.897  12.432 -0.2104 -0.0423  0.1026
24809W        W40883  10.034  14.839   2.553  0.2188  0.1408  0.2157
24810W        W40884   9.050   7.453   0.852  0.0250  0.3592 -0.1656
24811W        W40885  16.608  12.093   6.228 -0.0003  0.0444 -0.1037
24812W        W40886   6.810  13.641  15.231 -0.1538  0.0062 -0.2937
24813W        W40887   5.976  13.143  11.523  0.1551  0.1326 -0.0008
24814W        W40888  15.441  15.238   5.940 -0.0790  0.0597  0.0593
24815W        W40889   5.018  15.920   2.903  0.1224 -0.1617  0.0364
24816W        W40890  11.830   6.078   5.838  0.1367  0.0139 -0.2072
24817W        W40891   4.783  14.111   3.919 -0.2979  0.3250  0.0914
24818W        W40892  15.686  14.273   3.885 -0.1386 -0.3520 -0.0847
24819W        W40893  15.373  17.369   3.160  0.0777 -0.0410 -0.1402
24820W        W40894   2.338  11.519   0.853 -0.0499 -0.3444  0.2517
24821W        W40895  10.858   7.617   5.295  0.0406  0.0157  0.0478
24822W        W40896  11.700  16.336   2.328 -0.0599  0.2020  0.4155
24823W        W40897  11.341   8.820   2.201 -0.0742 -0.1972 -0.0862
24824W        W40898   0.616   2.319   5.584 -0.1313 -0.0327 -0.0011
24825W        W40899   4.007   1.491   5.369 -0.1171  0.2328 -0.0486
24826W        W40900  10.080  10.451   1.459 -0.1350  0.1953  0.1130
24827W        W40901  16.526   0.657  12.920  0.0588  0.0175  0.3453
24828W        W40902   8.737   3.967   5.303 -0.2606  0.0980 -0.0480
24829W        W40903  10.189   2.494   3.840 -0.1079  0.0189  0.1582
24830W        W40904  10.377  13.513   2.308  0.1685  0.0213 -0.1232
24831W        W40905   4.837  17.797  16.024 -0.2072  0.1326 -0.0543
24832W        W40906   7.925   3.967  13.108 -0.1357  0.3769 -0.2281
24833W        W40907   9.882   1.458   2.784  0.0138 -0.1251  0.3002
24834W        W40908  10.804   2.363   3.390 -0.2460  0.0937 -0.2208
24835W        W40909   7.015   6.853   2.188  0.2585  0.1217  0.1687
24836W        W40910  17.099   4.634  16.658 -0.0748 -0.2982  0.1617
24837W        W40911   4.604   1.037   0.581  0.2034  0.0199  0.1062
24838W        W40912   4.245  16.252   0.682  0.1794 -0.0269  0.0110
24839W        W40913   2.179  11.594   0.347  0.0637  0.1864 -0.1878
24840W        W40914   4.695  16.850  14.655 -0.3577 -0.3298  0.0920
24841W        W40915  14.976   6.211   2.465 -0.0962  0.2228  0.1376
24842W        W40916  16.461   9.220  13.522  0.2620  0.2786 -0.2589
24843W        W40917  13.019  17.526   1.228  0.0614 -0.0865  0.1400
24844W        W40918  14.358   0.351  12.250  0.2017 -0.0785  0.1275
24845W        W40919   1.037   7.181  15.112 -0.1290 -0.0487  0.0032
24846W        W40920   1.076   9.922  14.102 -0.1823  0.4018  0.0291
24847W        W40921   5.795   7.399   2.598 -0.3534 -0.0976  0.0436
24848W        W40922   8.659   3.162   2.079 -0.2115 -0.0757 -0.2435
24849W        W40923   7.635  13.781   3.105 -0.1620  0.1137 -0.1517
24850W        W40924   8.753   1.134  14.945  0.1511  0.1431 -0.1632
24851W        W40925   5.223   7.076   5.703 -0.0393 -0.0438 -0.0030
24852W        W40926   4.971  10.108  12.589  0.2839  0.1705  0.1069
24853W        W40927   2.406   9.174   0.701 -0.1424 -0.1561 -0.0015
24854W        W40928   6.877   1.624   3.920  0.1405  0.0162  0.3233
24855W        W40929   7.061  12.649  15.266 -0.1226  0.1870 -0.4271
24856W        W40930   7.720  16.053  16.411  0.0492  0.0972  0.0943
24857W        W40931   2.564   4.436  15.442 -0.2121  0.0610  0.3194
24858W        W40932  15.755  14.287   5.715  0.1399  0.0356  0.0958
24859W        W40933   0.771   7.408   1.832  0.0247 -0.1707 -0.1055
24860W        W40934   3.879   9.374  12.242 -0.1028 -0.1077  0.0635
24861W        W40935   7.602   6.828  16.512  0.0214 -0.1397 -0.1574
24862W        W40936   9.149   9.845  15.425  0.0758  0.3141 -0.2736
24863W        W40937  13.888  16.886  16.437 -0.0805 -0.4623  0.1387
24864W        W40938   6.588   1.054  12.371  0.1990  0.2960 -0.1488
24865W        W40939   0.362   4.894   5.838 -0.1050 -0.0394 -0.1685
24866W        W40940   7.128   2.641   5.670 -0.1930 -0.2613  0.0425
24867W        W40941   5.661  13.650  12.272 -0.6211  0.2158 -0.0424
24868W        W40942   2.790  11.616   4.250  0.1260 -0.0044 -0.0866
24869W        W40943  17.604   2.509  12.612 -0.0539  0.5381  0.1312
24870W        W40944   0.063  16.467  12.562 -0.2768  0.1806  0.0617
24871W        W40945  14.583   4.275  14.465 -0.3078 -0.3177  0.1134
24872W        W40946  14.164  16.837   3.414 -0.2250 -0.1271  0.1702
24873W        W40947  11.595   1.440   0.418  0.2105  0.0703  0.0783
24874W        W40948  13.219   1.360   2.167 -0.0260  0.1308 -0.0197
24875W        W40949  11.400  17.025  15.851  0.0384 -0.2437 -0.0529
24876W        W40950   2.167   8.981   4.636 -0.1873 -0.0329  0.0334
24877W        W40951   7.655  12.125  12.994  0.3073  0.1449  0.1628
24878W        W40952  10.180  10.846   1.867 -0.2062  0.0743 -0.0952
24879W        W40953   3.217   3.148   2.639  0.0126 -0.0016 -0.2113
24880W        W40954  15.898   0.592  13.750  0.0001 -0.1160 -0.0921
24881W        W40955  10.282   6.352  16.648  0.1445  0.1851  0.1467
24882W        W40956   1.818   8.503   1.361  0.1032  0.0993 -0.1607
24883W        W40957   7.160  11.236  13.984  0.0433  0.0355 -0.3607
24884W        W40958  10.427  10.661   3.597 -0.2089 -0.0414 -0.0061
24885W        W40959  14.494   5.162  12.865 -0.1430 -0.1968 -0.2485
24886W        W40960   4.829   3.054   5.197 -0.2100 -0.1285 -0.0353
24887W        W40961  17.843   2.059  14.860 -0.0488  0.0792 -0.0380
24888W        W40962  16.027   0.672  14.701 -0.0851 -0.3723 -0.1344
24889W        W40963  12.583   1.481  15.546  0.0159  0.0083 -0.0620
24890W        W40964  13.596   1.075   1.797  0.1923 -0.1572 -0.4022
24891W        W40965  12.369   5.906   2.576  0.0679 -0.0572 -0.0190
24892W        W40966  13.729   1.283   2.223 -0.0468 -0.2260 -0.1969
24893W        W40967   5.001   7.954   3.051 -0.0139 -0.4000  0.0759
24894W        W40968   4.938   9.256  14.070 -0.1216 -0.3006 -0.2940
24895W        W40969  13.105  15.682   4.793  0.1352  0.0190  0.0563
24896W        W40970   3.678  12.839   0.592  0.0461  0.2036 -0.0782
24897W        W40971   0.109  14.720  11.767 -0.3867 -0.2349 -0.0169
24898W        W40972  10.298   7.426  16.403 -0.1268  0.2443  0.1689
24899W        W40973   5.561   9.203  12.870  0.1926 -0.2024  0.0625
24900W        W40974   2.723   1.825   0.266  0.0001 -0.1306 -0.1394
24901W        W40975   6.310   0.102   1.933 -0.0308  0.1398  0.2668
24902W        W40976   1.539   4.929   1.771 -0.0842  0.0962  0.2419
24903W        W40977  15.307   9.469  16.900 -0.2018 -0.1632  0.2094
24904W        W40978  11.424   8.806   5.072  0.0787 -0.2270  0.1791
24905W        W40979  13.881  16.326   2.643 -0.1992  0.0440  0.0451
24906W        W40980  11.064  15.024  13.598  0.1934 -0.1617 -0.0781
24907W        W40981   1.827  13.404   4.315 -0.0888 -0.0178 -0.1127
24908W        W40982   7.105  15.624  14.975 -0.1472  0.1304  0.0221
24909W        W40983   3.672  15.250   5.212 -0.2865  0.0443 -0.3293
24910W        W40984  12.789   5.347  15.984 -0.2776 -0.1533 -0.0542
24911W        W40985  15.122  16.846  13.085 -0.3558 -0.3172  0.0013
24912W        W40986   5.815  17.328   3.673  0.1220  0.1411  0.0603
24913W        W40987  12.612   7.890   5.890  0.0301  0.2202  0.0386
24914W        W40988  16.638  17.308   5.209  0.0137  0.0486 -0.0620
24915W        W40989  16.726   1.446   0.259  0.0224 -0.0353 -0.1660
24916W        W40990  13.269  10.295  14.088 -0.0756 -0.2243 -0.0610
24917W        W40991  13.420   1.342  12.704 -0.0562  0.0272  0.0508
24918W        W40992   1.073   6.862  13.394 -0.2929 -0.1955  0.0136
24919W        W40993   6.144   9.732  13.318  0.2648  0.1512  0.3662
24920W        W40994   6.925  11.593   4.532  0.2369 -0.0493  0.1492
24921W        W40995   4.224   6.215   4.813 -0.0206 -0.1404  0.0549
24922W        W40996  16.924   6.995   3.945 -0.0179  0.1665 -0.1134
24923W        W40997  15.704  13.330  11.645  0.0477 -0.0800  0.1141
24924W        W40998  15.787   6.520  15.445 -0.1104  0.0703  0.4852
24925W        W40999   0.666  16.476  14.404 -0.2241 -0.1059 -0.1007
24926W        W41000   0.546  14.100  15.117  0.0478 -0.0201 -0.2725
24927W        W41001   0.669   7.252  15.534 -0.0183 -0.1033 -0.0371
24928W        W41002   5.245  12.285   1.264  0.1928  0.1377  0.1537
24929W        W41003  14.607   4.108   1.295  0.0714 -0.0230 -0.0622
24930W        W41004   2.956  10.862   1.340 -0.0950 -0.1212  0.1238
24931W        W41005   2.179   0.286  14.112  0.0426  0.6562  0.1022
24932W        W41006   4.758  15.088   5.883 -0.0957  0.0448 -0.0145
24933W        W41007  14.676  17.388  14.247 -0.0394 -0.4268 -0.3594
24934W        W41008  16.612   9.285   5.309 -0.0783  0.0319  0.3182
24935W        W41009  12.317   2.053   0.606  0.0932  0.0991 -0.2523
24936W        W41010  16.898  10.512  12.159  0.2240  0.1836  0.0291
24937W        W41011  11.269   0.581   5.052 -0.3013  0.2276  0.1610
24938W        W41012   5.819   9.103  11.505 -0.1187  0.2423 -0.2224
24939W        W41013   3.986   8.074   3.730 -0.1071 -0.2088  0.3349
24940W        W41014   3.162  12.638  16.501 -0.2033 -0.2166 -0.2408
24941W        W41015  14.961  11.551   2.114 -0.3173  0.0579 -0.5510
24942W        W41016   5.174  14.967   3.562  0.1897  0.1711 -0.4698
24943W        W41017  16.780  16.484   5.969  0.0832 -0.2087 -0.1766
24944W        W41018   6.515  17.530   0.808 -0.1856 -0.2003  0.0448
24945W        W41019  14.457  13.867  12.433  0.1117 -0.3054  0.1379
24946W        W41020  17.585  15.282   3.707  0.1345  0.0551 -0.3366
24947W        W41021   5.744   1.228  16.264 -0.1036  0.3590  0.2538
24948W        W41022  13.579  13.216  11.639  0.4287 -0.0407  0.0851
24949W        W41023  10.929  16.803   5.025 -0.0128 -0.0236 -0.0415
24950W        W41024  12.772   7.163   2.820  0.2083  0.3004 -0.0759
24951W        W41025  11.041   0.700   3.551  0.1310 -0.1886  0.0928
24952W        W41026   2.187   9.757  15.033 -0.1055 -0.0224  0.0207
24953W        W41027  13.483  12.473   4.590 -0.0437  0.0382  0.1751
24954W        W41028   7.851  13.986  12.454 -0.1241 -0.0547 -0.0708
24955W        W41029   3.721  11.480  15.057 -0.0859  0.1564 -0.0114
24956W        W41030   2.225   3.289   0.538  0.0272 -0.0224  0.0855
24957W        W41031   3.808  16.408  15.694  0.1208 -0.1870 -0.0156
24958W        W41032   1.271   5.271  16.444  0.0752 -0.0991 -0.1438
24959W        W41033  15.727   3.916   0.326  0.2602 -0.1147 -0.0257
24960W        W41034   1.739  11.599   0.059 -0.0135 -0.0473  0.2102
24961W        W41035   9.464   2.292   1.848 -0.2078  0.0236 -0.0890
24962W        W41036   5.924  15.752   2.549  0.2245 -0.3712 -0.0833
24963W        W41037   0.234   0.900  15.499 -0.4938 -0.2089  0.0556
24964W        W41038   1.935  17.595   4.499 -0.2458 -0.0139  0.1733
24965W        W41039   2.954   9.178   0.613 -0.2100  0.4675  0.1122
24966W        W41040  13.035   0.467  13.539 -0.2523 -0.0779 -0.0665
24967W        W41041   8.675   4.752   1.746 -0.1983 -0.0179 -0.1075
24968W        W41042  16.195  12.158  13.704  0.1368 -0.1582 -0.2246
24969W        W41043   3.822  13.994   2.712  0.0660  0.2726 -0.1051
24970W        W41044  10.309   5.138   1.548 -0.2218  0.1639  0.0308
24971W        W41045  12.340   9.691  12.634 -0.0169 -0.0155 -0.0446
24972W        W41046   5.091  16.079   1.007  0.0134 -0.0421 -0.0623
24973W        W41047  11.500   7.339  14.964  0.2006  0.1018 -0.1873
24974W        W41048  10.224  14.111  15.307  0.1061  0.0205 -0.2962
24975W        W41049   3.835   3.796  14.760 -0.0159 -0.1285 -0.2498
24976W        W41050   2.097   4.329   6.245 -0.2697 -0.0500  0.0027
24977W        W41051   6.263   3.947  14.489  0.0259 -0.0252  0.1817
24978W        W41052   9.200  14.333   4.204 -0.2042  0.3567 -0.4669
24979W        W41053   0.388   8.468  12.628 -0.0395 -0.1745  0.0329
24980W        W41054  17.821  14.409  12.511 -0.2119 -0.1730  0.2406
24981W        W41055   9.651   3.828   3.494 -0.1217  0.0492  0.0825
24982W        W41056  13.727   4.962   1.052 -0.0114 -0.1840  0.1306
24983W        W41057   7.260   5.070  16.362  0.0899  0.2605 -0.0710
24984W        W41058   9.667   1.167  15.100 -0.0340  0.1958 -0.2699
24985W        W41059  11.003  13.819   1.438 -0.0104 -0.1084 -0.2077
24986W        W41060  13.738  14.758  16.239 -0.2714  0.0336 -0.0132
24987W        W41061   6.474  12.459  16.710 -0.4294  0.0029  0.0442
24988W        W41062   9.679  11.587  14.703 -0.0831  0.1740  0.1167
24989W        W41063  17.729   8.767   2.553 -0.2277 -0.0855  0.0913
24990W        W41064  12.692   5.693  16.355  0.0038  0.1223  0.1785
24991W        W41065   9.158   2.834  16.053  0.1796 -0.0224 -0.0533
24992W        W41066  14.701   9.743  11.252  0.1633  0.1402 -0.1755
24993W        W41067   6.052  12.459   5.466 -0.1709  0.0084  0.0001
24994W        W41068   8.042  17.718   6.584  0.1429 -0.2200  0.1158
24995W        W41069   6.531  10.958   5.621  0.0492  0.0738 -0.0831
24996W        W41070  17.525  16.366  14.127 -0.4954  0.1501  0.2989
24997W        W41071  15.646  15.791   5.108  0.3171  0.0190  0.1234
24998W        W41072  14.032   0.849  13.891 -0.2197  0.0527  0.2228
24999W        W41073   1.678   3.158  12.874  0.1439  0.2512  0.0050
25000W        W41074   2.125   6.297  14.428  0.2167  0.0732  0.1554
25001W        W41075  10.436   7.796  11.634 -0.0523  0.1616 -0.2114
25002W        W41076   1.935   0.574   3.882 -0.0694  0.1642 -0.2012
25003W        W41077   7.635   5.334  12.517  0.1837  0.2148 -0.1374
25004W        W41078   7.165  16.687   4.482  0.0950 -0.2269 -0.3233
25005W        W41079  12.100  15.577   1.472 -0.0381 -0.0607 -0.4311
25006W        W41080   4.078   6.916   5.975 -0.0168 -0.0479  0.1128
25007W        W41081   0.237   7.215   2.858  0.1615  0.0200  0.2244
25008W        W41082   2.157   6.228   5.549  0.2930 -0.2542  0.0145
25009W        W41083   0.611   8.256  14.565  0.0327 -0.1650 -0.0691
25010W        W41084  13.952   2.289   0.179 -0.1375 -0.1563 -0.0132
25011W        W41085  10.448  16.488  15.146  0.1444  0.0273  0.0473
25012W        W41086   0.268  10.414   5.121 -0.1184 -0.1809 -0.0646
25013W        W41087  17.691   7.792   2.175 -0.0213  0.2614 -0.1462
25014W        W41088  16.137  14.111   1.839  0.1591  0.0162 -0.0840
25015W        W41089  13.041  14.080   3.442 -0.1253  0.2126 -0.1920
25016W        W41090  12.158  16.102   0.770  0.1343 -0.2633 -0.0792
25017W        W41091   8.731   9.441  12.055 -0.2521 -0.2251  0.1214
25018W        W41092  14.057  11.569  14.715 -0.1425  0.2957  0.2098
25019W        W41093   0.282   3.925  11.936  0.0826  0.2094 -0.1366
25020W        W41094  14.287   4.174   3.753  0.0611  0.0234 -0.0577
25021W        W41095  10.768   5.716  13.351  0.0062  0.1665 -0.0047
25022W        W41096  17.382  17.837   2.755  0.2117 -0.0994 -0.2212
25023W        W41097  16.065  16.654   2.197 -0.1634  0.0247  0.0044
25024W        W41098  13.468   2.600  13.006 -0.0762 -0.1474  0.2546
25025W        W41099   5.117   7.302   3.612  0.2136  0.0174  0.2153
25026W        W41100   4.679   5.918   1.359  0.3931 -0.0492 -0.0756
25027W        W41101  15.469   0.945  15.366 -0.0881 -0.1516  0.0513
25028W        W41102   6.881  17.548  16.233  0.3366 -0.2916 -0.0904
25029W        W41103   0.518  17.109  15.512 -0.0382  0.1086  0.3223
25030W        W41104  14.341   3.824   1.033  0.2878 -0.1181  0.3260
25031W        W41105   5.099   2.668  12.379 -0.1102  0.2605 -0.1433
25032W        W41106  12.014   5.926   4.957  0.0215  0.0124 -0.0944
25033W        W41107   4.870   9.835   0.655 -0.0204  0.3064 -0.4026
25034W        W41108  16.351  14.315  12.957  0.1672 -0.0516 -0.1912
25035W        W41109   9.894  10.454  12.684  0.4775  0.1642  0.1403
25036W        W41110   5.646   5.165   1.606 -0.0559  0.1611  0.2013
25037W        W41111   3.484   8.234  14.459  0.2299 -0.1492 -0.1707
25038W        W41112   6.919   7.891   1.127  0.1714  0.2156  0.0180
25039W        W41113   5.494   4.688   2.374  0.0324  0.0159  0.2508
25040W        W41114   1.187   7.133  11.336 -0.1819  0.0746  0.0499
25041W        W41115   5.659   9.987  15.828  0.1545  0.0528 -0.2187
25042W        W41116   8.466   9.629  15.024  0.0737  0.0827 -0.1389
25043W        W41117  10.147   6.153   2.402 -0.1286  0.0172 -0.0054
25044W        W41118  10.162  14.114  16.935  0.0463 -0.1364  0.1181
25045W        W41119   0.388  13.610   2.726 -0.1116  0.1302 -0.1941
25046W        W41120  16.054  10.575  12.561  0.0410 -0.0256 -0.0156
25047W        W41121   9.769  11.769  16.107 -0.2952 -0.0674 -0.1025
25048W        W41122  15.241   8.154  14.131 -0.2630  0.1135 -0.0752
25049W        W41123   8.596   4.302   0.466 -0.1323  0.2611 -0.1267
25050W        W41124   5.435  13.474   1.101  0.0551 -0.0872  0.0045
25051W        W41125  10.205  14.429   5.201  0.1502  0.0388  0.0671
25052W        W41126   1.056   7.273   5.062  0.1775  0.1344 -0.0898
25053W        W41127  12.438  10.286  14.232 -0.1077 -0.1803  0.1608
25054W        W41128   4.945   0.647  13.439 -0.0182 -0.0898  0.0839
25055W        W41129  14.943   2.139   2.155 -0.3655  0.0681 -0.2255
25056W        W41130   1.744   5.617   3.001  0.0200 -0.0912  0.1428
25057W        W41131  15.665   3.217   1.596 -0.0193 -0.1241 -0.0967
25058W        W41132  15.797  13.312   0.541 -0.0334 -0.1896  0.4576
25059W        W41133  10.929   2.041   0.663  0.1681  0.1411  0.1240
25060W        W41134  12.449   8.567  15.032 -0.0031  0.1869  0.2449
25061W        W41135   3.765   4.314  14.198 -0.1090 -0.1876 -0.1445
25062W        W41136  12.479   9.123   2.669 -0.4272  0.0366 -0.1204
25063W        W41137   6.351   1.823   0.748  0.0647 -0.0314 -0.3187
25064W        W41138  14.019  17.002   0.694 -0.0074 -0.0666 -0.1407
25065W        W41139  17.533   7.641   4.442 -0.2461  0.3003 -0.0784
25066W        W41140  16.120   4.773  13.973  0.0812  0.2029 -0.0473
25067W        W41141   4.303   3.029  12.628  0.0734  0.4431 -0.0099
25068W        W41142   9.931   7.263  12.308  0.2549 -0.2159  0.0274
25069W        W41143  10.418   6.765   2.554  0.2363  0.3027  0.1448
25070W        W41144  10.288  10.455  13.411  0.0180 -0.1645 -0.0083
25071W        W41145  13.532   4.361  12.817 -0.0702 -0.2091 -0.1056
25072W        W41146   9.866  16.872  12.518  0.0179  0.0706 -0.4159
25073W        W41147   5.216   8.478   6.418  0.0065 -0.1609  0.0793
25074W        W41148  14.776   5.625  12.829  0.0868 -0.0849  0.1079
25075W        W41149   7.986   3.950  15.410  0.1001  0.1108  0.0377
25076W        W41150   9.046   7.888   0.634  0.0522 -0.3504 -0.4047
25077W        W41151   5.920  16.210  10.767  0.0332  0.0121  0.3418
25078W        W41152  14.589  16.254  13.781 -0.0395  0.1181 -0.0592
25079W        W41153   5.160  15.863   0.518  0.0435  0.0846 -0.0828
25080W        W41154   2.815   0.611   1.486 -0.0426 -0.0252  0.1362
25081W        W41155   5.206   0.242  13.257 -0.0696 -0.0061 -0.1584
25082W        W41156  15.405  12.295   1.241 -0.2485  0.0749 -0.0335
25083W        W41157   7.062   1.397   2.022  0.1421 -0.1189 -0.0807
25084W        W41158   0.751   4.619   0.221  0.2925 -0.1387 -0.0144
25085W        W41159  15.954   5.946  15.863  0.1052  0.1509  0.1630
25086W        W41160   7.701   8.295   3.330  0.0984 -0.0414  0.1282
25087W        W41161  16.143   5.303   0.533  0.0023  0.0187  0.1614
25088W        W41162   5.720  17.139   1.885 -0.1944 -0.0867  0.0452
25089W        W41163  16.116  12.289  11.773 -0.2263 -0.3861  0.0509
25090W        W41164  15.657   8.240  14.376 -0.0034  0.1950  0.0028
25091W        W41165   9.214  16.825   0.868 -0.1639 -0.2329  0.1809
25092W        W41166  10.906   5.713  11.602  0.1261 -0.3224 -0.1038
25093W        W41167   2.288  17.138   3.870 -0.0352  0.0251 -0.1374
25094W        W41168   7.595   0.648   1.209 -0.0721  0.0030 -0.0160
25095W        W41169   7.445  10.676  16.423 -0.5163  0.1226 -0.1510
25096W        W41170   0.716   7.268  13.491 -0.1155  0.2189 -0.0485
25097W        W41171  14.614   5.763  15.628  0.1793 -0.2564 -0.0441
25098W        W41172   4.245   6.376   1.673  0.2858  0.0664  0.1644
25099W        W41173   4.152   4.658   2.898 -0.0162  0.4001 -0.0540
25100W        W41174  13.173   9.148  12.400 -0.1872  0.0706  0.1046
25101W        W41175  15.889   2.635   3.177  0.1750  0.0978  0.3967
25102W        W41176  17.223   4.235   2.526  0.0441 -0.0098  0.1325
25103W        W41177  10.252  15.358  13.640  0.1328  0.0203  0.3842
25104W        W41178  17.819  11.340  16.091  0.1471  0.0047 -0.3018
25105W        W41179   0.521  14.364   2.958  0.0376 -0.3958 -0.0231
25106W        W41180   6.275  16.206  14.984 -0.1494 -0.1341 -0.0295
25107W        W41181   0.042  10.325  16.815  0.3102  0.2338  0.0012
25108W        W41182  15.978   9.039   0.108  0.2961  0.0133  0.1999
25109W        W41183  13.152   9.550  15.622  0.0160  0.0690  0.0872
25110W        W41184   4.369   1.596  15.715 -0.2410 -0.2571  0.0605
25111W        W41185   7.280  13.450  12.502 -0.1526  0.0573 -0.1641
25112W        W41186  17.292   5.437   2.918 -0.1763 -0.0017 -0.0504
25113W        W41187  17.465  11.260  16.959  0.0203 -0.2644 -0.0821
25114W        W41188   7.377  17.461  14.873  0.1635  0.2255 -0.1223
25115W        W41189   1.809   7.969  11.465 -0.3314 -0.1870  0.1798
25116W        W41190  13.102   4.998  11.306 -0.3923 -0.3481  0.0931
25117W        W41191   7.835   7.196   2.384 -0.2349  0.1438 -0.0509
25118W        W41192   6.730   0.904   4.055  0.0201 -0.0178 -0.0990
25119W        W41193  10.924   5.877   1.568  0.1288  0.0791  0.2057
25120W        W41194  15.660   5.140   1.820  0.0975  0.0429 -0.1971
25121W        W41195  16.255  13.522   5.184 -0.5547 -0.0356 -0.1292
25122W        W41196  12.623  16.565  16.579 -0.1315 -0.0257  0.1581
25123W        W41197  13.182   7.967   4.146 -0.1465 -0.0056 -0.2167
25124W        W41198  10.881  14.831   2.797 -0.0577 -0.1159  0.0879
25125W        W41199  13.615  15.032   1.450 -0.0516  0.5065 -0.1652
25126W        W41200   3.602  15.480   4.068 -0.1020  0.1494 -0.0782
25127W        W41201   6.335  12.921  14.961 -0.0637 -0.0012  0.2217
25128W        W41202  17.159   1.427   5.127 -0.1120 -0.0424  0.1335
25129W        W41203   6.961  16.471  16.846 -0.2475  0.1022 -0.1724
25130W        W41204   2.468  12.997  16.487  0.1275  0.0602  0.0617
25131W        W41205  16.141  11.836   1.760  0.0558 -0.0770 -0.1013
25132W        W41206   9.447   1.645  16.289 -0.0332 -0.3568 -0.1284
25133W        W41207   0.732   9.999  15.058  0.1592 -0.0848 -0.0453
25134W        W41208   0.628  16.150   3.109 -0.0628  0.0749 -0.0432
25135W        W41209   2.662  13.610   1.372  0.0264 -0.0872 -0.3304
25136W        W41210   3.048  10.404   1.184 -0.0850 -0.0244 -0.2029
25137W        W41211   0.500   2.400   0.097 -0.3062  0.1219 -0.0835
25138W        W41212  10.792   9.308   3.868 -0.1219 -0.0349  0.1018
25139W        W41213  12.252   1.782  14.776  0.0971 -0.0196  0.3902
25140W        W41214  16.102  12.621  13.942  0.0593  0.0332 -0.1175
25141W        W41215  13.245  14.792   4.391  0.1416 -0.2090 -0.0086
25142W        W41216  16.472  13.033  15.726  0.0474 -0.0356 -0.2457
25143W        W41217  16.982   1.682  15.730 -0.0758  0.0795  0.0559
25144W        W41218   4.160   5.392  16.926 -0.2720  0.1700  0.0802
25145W        W41219  17.209   8.555  13.379 -0.1988 -0.3413 -0.2983
25146W        W41220   7.449  12.032   0.990  0.1110 -0.0972  0.0384
25147W        W41221  15.351   0.989   5.078 -0.3774 -0.4075 -0.3049
25148W        W41222  12.681   3.362   0.696  0.3196 -0.1947 -0.1769
25149W        W41223   7.398  16.719   5.352 -0.4200  0.1588 -0.0356
25150W        W41224   2.391   7.580  12.059 -0.0800  0.0609 -0.1279
25151W        W41225  15.105  11.964   1.108 -0.0883 -0.3108  0.0628
25152W        W41226  11.867  15.055  11.392 -0.0765  0.2345 -0.1989
25153W        W41227  11.659   9.083  15.689 -0.1955  0.3012  0.0949
25154W        W41228   7.938  13.635  12.863  0.1754 -0.2211 -0.0417
25155W        W41229   8.032  11.227  13.574  0.0030 -0.3050 -0.0858
25156W        W41230   1.088   2.641   1.154 -0.1323 -0.0212 -0.1540
25157W        W41231   9.747   5.917   4.996  0.0210 -0.4359  0.2543
25158W        W41232   5.827   1.974  14.481 -0.2199  0.0349  0.0771
25159W        W41233  16.084  14.911  16.344  0.0772  0.3208  0.0554
25160W        W41234  11.853   5.896   0.267  0.0104  0.3160  0.1079
25161W        W41235  16.632   8.658   4.964  0.0652 -0.0653  0.1368
25162W        W41236   1.159  14.541  12.048  0.4209  0.0925 -0.2965
25163W        W41237  10.070  15.540  11.928  0.2821  0.1870  0.3802
25164W        W41238   7.717   5.326  16.458 -0.3315 -0.0332  0.0755
25165W        W41239   8.095  12.691   0.443 -0.2588  0.1769 -0.0867
25166W        W41240  12.263  10.568   2.610  0.0595 -0.2593 -0.0579
25167W        W41241  10.777   3.028   2.674  0.1463  0.3288  0.0459
25168W        W41242  15.015  10.672  14.921  0.2043 -0.0156  0.1317
25169W        W41243   9.594  17.116   3.865  0.0131  0.2067  0.0872
25170W        W41244  16.562   4.919   5.687  0.1749  0.0851  0.3165
25171W        W41245  12.687   9.845   3.182  0.2949 -0.0412  0.0543
25172W        W41246   4.092   2.908  15.751 -0.0903  0.0191 -0.1944
25173W        W41247   8.558   5.751  12.827 -0.3997  0.1541 -0.3735
25174W        W41248  11.978   0.250   5.763 -0.0533  0.2291  0.1113
25175W        W41249  14.866  17.704  13.847  0.2436  0.0141  0.0214
25176W        W41250  12.165   6.098  12.590 -0.0681 -0.0702 -0.0700
25177W        W41251   0.650   2.042   2.516  0.4793 -0.3315 -0.1662
25178W        W41252   0.180   6.487  14.318  0.3019 -0.2140  0.0264
25179W        W41253   9.550   9.638   1.423 -0.0815 -0.0025  0.2030
25180W        W41254   4.691   9.413   1.001 -0.0087 -0.0938 -0.0561
25181W        W41255   7.155   1.815   0.352 -0.1499 -0.0606  0.1855
25182W        W41256  11.456   1.858   0.169 -0.0060  0.1429 -0.1645
25183W        W41257  16.601  16.833   6.335 -0.0489 -0.1534 -0.0625
25184W        W41258   6.047  13.003   0.461  0.3780  0.1955  0.2636
25185W        W41259   3.314  13.142   1.363 -0.2212  0.1011 -0.1074
25186W        W41260   1.777  14.794   2.447 -0.0025 -0.2077 -0.0129
25187W        W41261   8.391   4.961   3.780 -0.1915 -0.1508  0.0182
25188W        W41262   6.303   6.634  13.394  0.1165 -0.2188  0.0749
25189W        W41263   7.583   5.336   2.573 -0.2894 -0.0381 -0.0059
25190W        W41264   3.336  16.401   3.858 -0.2879  0.1084  0.0209
25191W        W41265   5.417  11.439   5.014 -0.0523  0.1941  0.4197
25192W        W41266   7.346   4.126   0.166 -0.2065 -0.2559  0.0211
25193W        W41267  11.876  16.271  12.388 -0.1773  0.0291  0.0474
25194W        W41268   4.168   7.466   1.618 -0.1228 -0.1066  0.0532
25195W        W41269   2.035   5.683  14.009 -0.1249  0.0925 -0.0468
25196W        W41270   6.915   8.503  12.738 -0.3016  0.2492 -0.0429
25197W        W41271  16.002  14.113  12.382  0.2503 -0.3235 -0.3780
25198W        W41272   3.258   1.675   4.522  0.1461  0.3413  0.1956
25199W        W41273   9.679  16.939  16.180 -0.0949  0.3448  0.2599
25200W        W41274   7.982  11.299  15.861  0.3707  0.0288  0.2743
25201W        W41275   1.857   6.849  16.096 -0.2243 -0.1726 -0.1695
25202W        W41276   9.475   1.377   4.642 -0.1170  0.0478  0.0200
25203W        W41277   5.282  14.550  13.112  0.0006  0.0753 -0.0946
25204W        W41278  13.018   8.090  15.631  0.2202  0.1260  0.0996
25205W        W41279  11.470   9.830   0.093 -0.2498 -0.1264  0.0359
25206W        W41280   8.474  12.115   6.287  0.1595 -0.3518  0.0622
25207W        W41281   4.299  12.645  13.936 -0.0656 -0.0429 -0.1118
25208W        W41282   6.768  14.269  12.853  0.2969 -0.2203 -0.0104
25209W        W41283   0.830   8.678   2.380  0.2680 -0.2222  0.2621
25210W        W41284  11.592   5.367   4.144  0.3042 -0.2457  0.2433
25211W        W41285   7.557  10.941   4.836  0.2980 -0.0934 -0.2756
25212W        W41286   9.559   6.972   3.636  0.2816  0.1622  0.0703
25213W        W41287   9.681   3.711  13.232  0.1340  0.2807 -0.1295
25214W        W41288   5.166   4.913  16.068 -0.0951  0.1087 -0.0262
25215W        W41289   1.985   5.242  12.317 -0.1040  0.0165  0.1453
25216W        W41290  11.079   8.736  16.744  0.1685  0.2047 -0.1880
25217W        W41291  14.279   8.574  14.098  0.1492 -0.0589  0.0174
25218W        W41292  13.052   7.470   2.170 -0.0790 -0.0480 -0.0125
25219W        W41293   8.540   2.132  14.230  0.1369  0.0464  0.1474
25220W        W41294   0.333  12.320   2.329 -0.2393 -0.0111  0.1093
25221W        W41295   8.068  16.823   4.003 -0.0597  0.5659  0.2974
25222W        W41296  16.960   6.399   2.429  0.1195 -0.2481 -0.1119
25223W        W41297  15.763   8.658   3.729 -0.1961  0.1732  0.1608
25224W        W41298   3.717  15.814   5.185  0.1422  0.0852 -0.0021
25225W        W41299   0.167   0.240   0.301  0.1752 -0.0364  0.4982
25226W        W41300   6.844   2.680  13.044 -0.1035  0.0108  0.0311
25227W        W41301   4.216  10.057  12.624  0.0529 -0.1855  0.3286
25228W        W41302   5.323   3.242   5.260  0.2469 -0.0772 -0.1027
25229W        W41303   4.798   8.966   0.270  0.3978  0.0361 -0.2027
25230W        W41304  12.371   4.604   0.660  0.1371 -0.2779 -0.3236
25231W        W41305  13.376   5.952  12.513  0.0653  0.1303  0.2971
25232W        W41306  14.843  16.634   0.816  0.0809  0.0801  0.3319
25233W        W41307   5.197   9.837  16.042 -0.0649 -0.0481 -0.2672
25234W        W41308   5.400  16.656   1.931  0.4523  0.0462 -0.2590
25235W        W41309   5.872   3.387  15.664  0.1025 -0.0102  0.1658
25236W        W41310  11.590   4.178  13.240 -0.0559  0.2267 -0.2339
25237W        W41311   5.902  16.657  16.014  0.4850  0.1075  0.2990
25238W        W41312   3.921   3.785  14.293  0.2187 -0.1613 -0.0087
25239W        W41313   7.559   1.376   1.036  0.0269  0.1700 -0.2056
25240W        W41314  16.053  16.521   0.124  0.1152  0.1674  0.0177
25241W        W41315   6.427  16.520   0.222 -0.1426 -0.0545 -0.1382
25242W        W41316  17.817   7.139   5.231 -0.1870 -0.2700 -0.0382
25243W        W41317   3.035   2.763   5.441  0.2467 -0.3518 -0.1623
25244W        W41318  11.757   4.320  16.391 -0.1785  0.0510  0.0601
25245W        W41319   4.875   0.681   0.829 -0.1299 -0.2091  0.1808
25246W        W41320   2.318   7.609  13.977  0.0670  0.1320 -0.3084
25247W        W41321   9.830  11.412   3.824  0.1129 -0.2481 -0.0386
25248W        W41322   0.577   6.041  15.969 -0.0182 -0.1115  0.0760
25249W        W41323  17.489   6.508  13.103 -0.1081  0.1557  0.1555
25250W        W41324   1.086   8.166   2.407  0.1460  0.1509 -0.3867
25251W        W41325   7.166  10.243   3.309 -0.2232  0.1085  0.3045
25252W        W41326   0.512   9.202   0.993 -0.1665 -0.0462 -0.0454
25253W        W41327   3.011   9.252   0.095  0.0765 -0.0591  0.0644
25254W        W41328  10.402  16.219  12.874 -0.1088  0.0905 -0.0936
25255W        W41329   5.381   0.560   2.857 -0.0642 -0.0247  0.0118
25256W        W41330   0.314   7.407   4.614  0.0735 -0.2527 -0.0124
25257W        W41331  17.601   1.790   1.748  0.2039  0.0259 -0.0124
25258W        W41332   6.471   2.025   3.294 -0.0733  0.1141  0.3622
25259W        W41333   1.367   3.754  14.289 -0.0622 -0.1043  0.4922
25260W        W41334  16.517  11.035   3.871  0.0653 -0.1023 -0.1058
25261W        W41335  11.412   6.509  16.944  0.0454  0.0416  0.4341
25262W        W41336   0.458   9.888  16.055  0.0829 -0.0403  0.0335
25263W        W41337  17.459  11.283   5.143 -0.0855  0.0407 -0.2881
25264W        W41338   7.463  15.856   2.766 -0.1419 -0.1915  0.0243
25265W        W41339  10.355   3.212  12.568 -0.1711 -0.0241 -0.0954
25266W        W41340  11.375   6.449  12.055  0.1520  0.0407  0.1252
25267W        W41341   7.477   3.725  13.818 -0.1175 -0.1085  0.0830
25268W        W41342   1.750   4.445   5.477  0.0540  0.3038  0.1577
25269W        W41343  17.310  15.017  15.904 -0.0703 -0.4477 -0.1503
25270W        W41344   5.120  17.095   2.592 -0.1587  0.0410 -0.0578
25271W        W41345   3.452  16.719  12.107 -0.0976 -0.0255  0.0085
25272W        W41346  12.296  12.561   5.835  0.0915 -0.1442 -0.2588
25273W        W41347   7.143  16.032  14.657  0.2425  0.1814  0.0889
25274W        W41348   2.245  16.438   4.695 -0.0180  0.1505  0.1401
25275W        W41349  13.938  13.726   0.716 -0.0432 -0.0043  0.2091
25276W        W41350  17.822   4.994   3.024  0.1417 -0.4499  0.1472
25277W        W41351   6.083  17.709  16.656 -0.0860 -0.0641 -0.2761
25278W        W41352   2.674  16.863  16.385 -0.0953  0.1511  0.1319
25279W        W41353  11.026  15.580  11.892  0.0445  0.3097 -0.4129
25280W        W41354   8.330   9.332  14.229 -0.1254  0.0279  0.1483
25281W        W41355   7.533  13.026  16.455 -0.1769 -0.0253  0.0586
25282W        W41356  15.237  15.018  13.075 -0.0914 -0.0014  0.1041
25283W        W41357  14.943   0.233  12.276 -0.1566 -0.0966 -0.0491
25284W        W41358   2.354   8.152   0.861 -0.0226  0.1588  0.0231
25285W        W41359   0.934  12.970   2.731 -0.0039  0.0304  0.0113
25286W        W41360  16.590  12.486  13.019  0.1019  0.1623 -0.1954
25287W        W41361   9.648  14.535   5.320 -0.0240 -0.0832 -0.1161
25288W        W41362  15.851  14.004   4.247  0.0772  0.0677  0.0037
25289W        W41363   8.453  14.414  15.052 -0.1132  0.1631  0.1809
25290W        W41364   6.808  14.053   4.340 -0.0767  0.4883 -0.0131
25291W        W41365  17.820  10.068   3.082  0.0696  0.1460 -0.1523
25292W        W41366   0.419   0.765   2.450 -0.1921  0.1992 -0.0585
25293W        W41367   7.957  14.613  13.078  0.0531 -0.0234 -0.2036
25294W        W41368   4.303   0.760  12.535  0.1522  0.0354 -0.1434
25295W        W41369  17.807   4.986   6.463  0.0654  0.3268 -0.1454
25296W        W41370  11.101   8.324  15.784 -0.0672  0.2662  0.3557
25297W        W41371   4.186  14.307  11.443 -0.1346  0.1196  0.0314
25298W        W41372   9.589   8.755  14.341 -0.1191 -0.1045 -0.3134
25299W        W41373   1.434  11.774   1.156  0.1224 -0.2900  0.0822
25300W        W41374   2.745  15.975  12.701  0.1545 -0.0969 -0.0471
25301W        W41375   0.000   5.229   4.953  0.0292  0.0019  0.0755
25302W        W41376   5.440   6.428  12.884  0.1629  0.1189 -0.0430
25303W        W41377   7.718  14.243   2.615 -0.4408  0.1914 -0.1171
25304W        W41378  14.833   2.634  16.354  0.0594  0.0957 -0.0846
25305W        W41379   1.978   3.007   3.830  0.1885 -0.0768  0.0209
25306W        W41380  12.777   8.536  15.591  0.0239 -0.1131 -0.0150
25307W        W41381  16.956   8.001  13.334  0.1376  0.0988  0.2055
25308W        W41382   4.431   7.132  14.295  0.0248  0.0393 -0.1665
25309W        W41383  14.649  15.925  13.143  0.2254  0.0357  0.2223
25310W        W41384  17.432   3.475  14.539 -0.0243  0.0072 -0.0978
25311W        W41385   3.473   9.350   4.589 -0.2321 -0.4395 -0.1282
25312W        W41386  14.920   8.357   5.955 -0.1790 -0.2015 -0.1894
25313W        W41387   3.049   7.270   2.683 -0.1588  0.1203 -0.0543
25314W        W41388  17.519   5.256   3.362 -0.1238 -0.2002  0.2711
25315W        W41389  14.078   9.836   4.106 -0.2091  0.1893 -0.0474
25316W        W41390   3.243  10.024   1.409 -0.0723 -0.0369 -0.3127
25317W        W41391   7.077   2.515  14.561  0.3707  0.0782 -0.3222
25318W        W41392   2.850  17.769  13.653 -0.0430  0.3191  0.1760
25319W        W41393   5.361   3.608   0.783 -0.1775 -0.0932 -0.0184
25320W        W41394   3.101   3.002  15.821  0.3923  0.4234  0.0448
25321W        W41395  13.318   0.751  13.833 -0.1013  0.3444 -0.1093
25322W        W41396   4.426  16.910   5.219  0.0849 -0.1498 -0.0907
25323W        W41397   8.764   6.624   0.376 -0.0113  0.0427  0.1942
25324W        W41398   0.441  10.530  14.362  0.4856  0.0313  0.0278
25325W        W41399  11.555   8.168   3.329 -0.0387  0.1220  0.1971
25326W        W41400   3.293   2.085   2.644 -0.2728 -0.2077  0.1159
25327W        W41401  11.428  14.770  12.798 -0.0583  0.1112  0.0288
25328W        W41402   0.373   5.773  14.536 -0.0904 -0.0002 -0.1653
25329W        W41403   4.382   7.303  13.249  0.0002 -0.0778  0.0088
25330W        W41404   5.262  12.059  12.216 -0.0041  0.0774 -0.0489
25331W        W41405   6.793  11.582   2.896 -0.0910 -0.0941 -0.3405
25332W        W41406   6.657   1.923  15.495 -0.2599  0.2262  0.1233
25333W        W41407   1.726   4.097   6.518  0.0666  0.0368  0.1652
25334W        W41408  15.669  15.874   2.334 -0.0224  0.1354 -0.3119
25335W        W41409  17.553  12.237   2.853  0.1159  0.0036 -0.1542
25336W        W41410  14.463   6.383   5.042 -0.0812 -0.0785 -0.0687
25337W        W41411  10.714   5.185  12.183  0.0252 -0.0343  0.0505
25338W        W41412  11.673  17.649  12.325 -0.1005 -0.0874  0.3443
25339W        W41413  12.967  15.896  15.993  0.0260  0.0684  0.1216
25340W        W41414   1.052   7.926   4.365  0.2149 -0.0158  0.2101
25341W        W41415  16.390  12.569  15.601  0.1524  0.1435 -0.0452
25342W        W41416  13.034   3.529  15.472 -0.1443  0.0497  0.4970
25343W        W41417   8.263   4.552  12.010 -0.2876 -0.3190 -0.2390
25344W        W41418   0.132   1.209   0.610 -0.0394 -0.2840  0.1230
25345W        W41419   0.860  17.786  11.803  0.2309 -0.1358 -0.0180
25346W        W41420  17.384   4.895   1.116 -0.0061 -0.0076  0.1713
25347W        W41421   7.039  14.878   0.169 -0.0444  0.2543 -0.0654
25348W        W41422   0.483   3.823  14.966  0.1003  0.1184 -0.0366
25349W        W41423   6.606  15.167  16.222  0.1137 -0.2533 -0.3805
25350W        W41424   4.743   0.174  15.453 -0.1320 -0.0518  0.0116
25351W        W41425   7.286  16.175   0.196  0.3619 -0.2294  0.0618
25352W        W41426   9.219  14.358  13.499  0.1988 -0.1098 -0.1760
25353W        W41427   5.573   3.986   1.135 -0.2111  0.1078 -0.3666
25354W        W41428  13.891   5.609   3.314  0.2118 -0.0189  0.0727
25355W        W41429   1.739  16.624  15.279 -0.1676  0.2935 -0.2436
25356W        W41430   5.308  17.194   5.843  0.1195  0.1191  0.0677
25357W        W41431   8.400  12.842   5.620  0.0462  0.1984 -0.1162
25358W        W41432  16.898  16.019  15.356 -0.2043 -0.2596 -0.1047
25359W        W41433  12.063   8.544   4.265 -0.1649  0.0160 -0.2609
25360W        W41434  16.251  16.352  16.594  0.1664 -0.2414 -0.0845
25361W        W41435  12.431   2.800  12.664 -0.1309  0.1203  0.0419
25362W        W41436   7.846   6.564  15.612 -0.0832 -0.1094 -0.0142
25363W        W41437   0.830   3.768   2.058 -0.0627 -0.1362 -0.0983
25364W        W41438   3.453  15.965   4.049 -0.2110  0.2132 -0.2705
25365W        W41439   7.570   2.637   3.434  0.3210  0.0255  0.0872
25366W        W41440  10.939   4.806  14.190 -0.0039 -0.0334 -0.2034
25367W        W41441  16.682   1.019  13.196  0.2925  0.0509  0.1581
25368W        W41442  15.249   7.972   0.777  0.0776 -0.1121  0.3304
25369W        W41443   2.712   1.829   2.827  0.0056 -0.1988  0.2144
25370W        W41444   0.430  11.851  12.074  0.0361 -0.2215  0.1800
25371W        W41445  14.802  15.386  14.865  0.1344 -0.0842  0.0239
25372W        W41446   7.201   6.520   4.474  0.1860 -0.0347 -0.1579
25373W        W41447   5.588   3.954   3.640  0.2247  0.3189 -0.0890
25374W        W41448   6.808  16.788  14.316 -0.1195 -0.1879  0.3176
25375W        W41449  11.724   2.031  15.713 -0.0765  0.0123  0.0607
25376W        W41450  17.701   3.165   0.866 -0.0121  0.2029 -0.3055
25377W        W41451  17.039  13.080   3.973  0.3537 -0.0082 -0.1155
25378W        W41452   9.335   5.404   2.062 -0.0866  0.1543  0.1775
25379W        W41453  15.286   8.438   3.671 -0.0404 -0.0953 -0.1291
25380W        W41454   9.008  15.481   1.163 -0.0630  0.3411  0.1584
25381W        W41455   2.436   0.604   0.543  0.0076  0.2336  0.0378
25382W        W41456   1.920   9.106   0.735  0.0218 -0.1777  0.0620
25383W        W41457  11.947   6.714   2.860 -0.1020  0.0746 -0.0992
25384W        W41458  11.714   5.251   6.232  0.1019  0.2142  0.1131
25385W        W41459   3.115  15.775  11.926 -0.0654 -0.0326 -0.1938
25386W        W41460  13.203   9.454  14.360  0.2755  0.0295 -0.1137
25387W        W41461   8.985  16.681  13.660 -0.0303 -0.0385  0.2901
25388W        W41462   3.158   7.504  12.526 -0.0242 -0.0212  0.1017
25389W        W41463  10.033  16.753  16.838 -0.4671  0.0331  0.3129
25390W        W41464   8.448  16.187  13.184 -0.0848  0.0814  0.0125
25391W        W41465   0.110   3.782   1.568 -0.1620  0.0912 -0.0973
25392W        W41466   2.520  17.617  12.335 -0.0466  0.1082  0.1152
25393W        W41467  16.088   1.203  12.384 -0.1544  0.3202 -0.0872
25394W        W41468  15.503  14.335  15.687 -0.1041  0.0233 -0.2193
25395W        W41469   7.731  14.139   0.513 -0.1376  0.1729 -0.1834
25396W        W41470   7.830  17.152   5.992 -0.1921 -0.0749  0.0282
25397W        W41471  13.312   5.675   4.126 -0.0793  0.2321 -0.1142
25398W        W41472   7.841  12.942   1.441 -0.0758  0.1793 -0.0527
25399W        W41473   5.065   8.684  11.050 -0.2212 -0.1924  0.1397
25400W        W41474   5.712   3.945  15.750 -0.0400  0.1710  0.0452
25401W        W41475  14.277   5.858   4.872 -0.1307 -0.2333  0.0630
25402W        W41476   1.812   8.615   0.837  0.1754 -0.3703  0.2184
25403W        W41477  17.216   9.544   2.607  0.1286 -0.2549  0.3800
25404W        W41478   7.234  14.491   2.748 -0.0448  0.0345  0.1287
25405W        W41479  10.237   8.304   0.907 -0.1155 -0.1254 -0.1084
25406W        W41480  16.165  10.085  13.417  0.2392  0.3174  0.4344
25407W        W41481   7.738   8.475   4.578 -0.0879  0.1327 -0.1285
25408W        W41482   1.417   9.159  15.041 -0.1230  0.0407 -0.2042
25409W        W41483   9.215  17.213  16.252  0.1501 -0.3515 -0.2027
25410W        W41484  12.549  12.595   0.045  0.1434  0.0284 -0.0667
25411W        W41485   9.568   4.102  11.694 -0.0580  0.3133 -0.2359
25412W        W41486   3.147   2.996  11.922  0.3417  0.1545  0.2919
25413W        W41487  11.724   4.336  13.723  0.1694  0.1504 -0.2880
25414W        W41488  17.563  10.816   3.470  0.2164 -0.0357  0.2029
25415W        W41489  13.535  15.377  12.122 -0.0857  0.0247 -0.1222
25416W        W41490  14.454   4.944   0.169 -0.1814 -0.0007 -0.1482
25417W        W41491   5.272  13.031   6.136 -0.0056 -0.1767  0.0202
25418W        W41492  15.944   4.474  12.867  0.3080 -0.2135 -0.0898
25419W        W41493   0.115  14.559  13.058 -0.1190  0.0222 -0.2205
25420W        W41494  15.428  10.098  15.208 -0.1183 -0.0281 -0.0088
25421W        W41495   8.588   8.136  10.921 -0.0587 -0.1007 -0.0613
25422W        W41496  14.728  16.082   3.322 -0.2143 -0.2574 -0.0542
25423W        W41497   8.902   0.456   5.029  0.2764  0.0578 -0.1642
25424W        W41498   8.695  10.743  12.735  0.2705  0.0513  0.1555
25425W        W41499   0.694   5.091  15.696  0.2063 -0.1042  0.2944
25426W        W41500   1.229  15.495   1.802  0.0712  0.0508  0.0769
25427W        W41501  17.379   4.192   3.369  0.0562 -0.0264  0.1697
25428W        W41502  11.730   2.596   2.619  0.1528  0.2938  0.1388
25429W        W41503   4.101  16.766  15.991  0.1373 -0.4603  0.0615
25430W        W41504   9.145   2.210   5.315 -0.0543  0.1281  0.1148
25431W        W41505   7.320  12.874  11.893 -0.1004 -0.1430  0.1929
25432W        W41506   0.942   8.388   4.162  0.1428  0.1696  0.2800
25433W        W41507   3.772  14.220  14.822 -0.1900 -0.2195  0.0884
25434W        W41508   0.755  12.225   1.021  0.0356 -0.1038 -0.2512
25435W        W41509   1.886   9.672   1.576  0.1127 -0.0031  0.0908
25436W        W41510   4.292   2.298  14.044 -0.2151 -0.2385  0.4077
25437W        W41511  16.438   8.447  13.836 -0.0770 -0.2771 -0.1906
25438W        W41512  14.275   2.348   3.512  0.3104  0.0457 -0.1598
25439W        W41513  15.276   5.368  16.374  0.1200 -0.0418  0.0040
25440W        W41514   3.448  15.009  15.371  0.0924  0.0008  0.0512
25441W        W41515  13.070   4.365  12.103 -0.1202  0.1308  0.0468
25442W        W41516   7.031  10.127   5.278  0.0532  0.1270 -0.1896
25443W        W41517   9.214   8.306   1.112  0.0640 -0.3796  0.0650
25444W        W41518  12.592   7.938  13.611  0.1863  0.1176 -0.0396
25445W        W41519  11.449  12.715  13.466  0.1393  0.1149  0.0620
25446W        W41520   2.862  16.957   3.502 -0.3719  0.2112 -0.1137
25447W        W41521  12.335  13.794   2.161 -0.1981  0.0499 -0.0985
25448W        W41522  13.499  12.234  12.448  0.1358 -0.0400  0.1790
25449W        W41523   8.875   3.561  12.742 -0.1779 -0.1391 -0.2144
25450W        W41524   1.928  12.401   1.981 -0.0687  0.2423 -0.1353
25451W        W41525   5.369  14.396  11.788  0.2638  0.1367  0.3180
25452W        W41526   5.303  15.808   1.349  0.1310  0.3046  0.2695
25453W        W41527   3.243   2.219  13.767 -0.0262  0.0537 -0.3012
25454W        W41528   1.157   9.985  15.369 -0.2069 -0.0341 -0.0965
25455W        W41529   4.100   6.966  14.631 -0.1448 -0.0381  0.2897
25456W        W41530   8.602  14.431   0.896 -0.0345 -0.2953  0.0170
25457W        W41531   6.786   1.341   5.226  0.0468  0.2488 -0.0959
25458W        W41532   8.723  13.490  14.823  0.1543  0.0879 -0.2275
25459W        W41533  16.643  14.252   0.591  0.1822 -0.3085 -0.1697
25460W        W41534   3.611   0.188   3.211 -0.1512 -0.0191  0.1276
25461W        W41535  14.559  13.972  16.555 -0.0695 -0.1173  0.2205
25462W        W41536   6.897  12.614  15.785 -0.1738  0.1746  0.0269
25463W        W41537  14.214  14.881  16.161 -0.0045  0.0841 -0.0048
25464W        W41538   7.734  16.956  11.640  0.0128  0.1952  0.3271
25465W        W41539  16.210  10.225   5.696 -0.1906  0.1272 -0.1143
25466W        W41540   7.266   1.180  13.122 -0.1458 -0.1331 -0.2020
25467W        W41541  12.152   5.211   5.907  0.0497 -0.3846 -0.3072
25468W        W41542   0.417   0.438  13.845 -0.1078  0.0422  0.1729
25469W        W41543   6.236  14.213  16.141  0.1278  0.0914  0.0870
25470W        W41544  15.998   9.688  12.037  0.1726  0.0096  0.1065
25471W        W41545   9.598  11.685   1.830  0.0631  0.0000 -0.1819
25472W        W41546   5.571  16.299  15.819 -0.3120  0.1441  0.2626
25473W        W41547  10.063   1.710  12.818 -0.3975 -0.0557 -0.1791
25474W        W41548  15.524  16.537   2.891  0.1778  0.1000 -0.0360
25475W        W41549   3.745  11.809   5.792  0.1842  0.0033 -0.0941
25476W        W41550   0.492   7.990  16.293  0.4032  0.3179 -0.0612
25477W        W41551   9.766  11.750   3.451 -0.1924 -0.0064 -0.0263
25478W        W41552   1.382   4.560   3.641 -0.2209 -0.2837  0.1322
25479W        W41553  11.777  17.394   4.269  0.0031 -0.2784 -0.2488
25480W        W41554   3.028   9.862   6.284 -0.0589  0.0894 -0.1134
25481W        W41555   6.056  14.740  13.281  0.4019  0.0161 -0.2050
25482W        W41556   8.126   9.283  14.945  0.1185 -0.1497  0.1342
25483W        W41557   2.063   6.009  15.571 -0.1408 -0.1925  0.0293
25484W        W41558  15.544   7.882   3.763 -0.0128 -0.3011 -0.1213
25485W        W41559  13.026   4.669   5.666 -0.0847 -0.0833 -0.0541
25486W        W41560  15.194   9.998   1.576  0.2891  0.1366  0.4008
25487W        W41561  12.034  15.811  12.411  0.0840 -0.0728  0.2605
25488W        W41562   1.339   7.118   1.612 -0.2231  0.0073  0.2739
25489W        W41563   1.947   3.090   2.107  0.1616  0.1051 -0.2434
25490W        W41564   4.034   6.266  15.826  0.2702 -0.2199 -0.0608
25491W        W41565  11.776  17.167  12.248  0.0881 -0.3298  0.1326
25492W        W41566  11.126   2.159  14.837  0.0339 -0.2639 -0.0507
25493W        W41567  12.123   0.644   3.078  0.0294 -0.3109 -0.4551
25494W        W41568   8.970  16.271  15.192 -0.1700  0.2268  0.0940
25495W        W41569   0.413  17.437   2.735 -0.1748 -0.2468  0.1545
25496W        W41570   6.017  11.274  14.740  0.1897  0.1861  0.0963
25497W        W41571   5.371   8.643   0.074 -0.0903 -0.2284  0.0908
25498W        W41572   1.261  10.252  14.421 -0.0863 -0.1119 -0.0977
25499W        W41573   4.874   8.805  14.309 -0.0340  0.0100  0.1854
25500W        W41574   0.995   9.598   4.033 -0.2567  0.5281  0.1276
25501W        W41575   5.230  16.280  16.684  0.0207 -0.0491  0.0746
25502W        W41576  10.084  17.755  13.289 -0.0388  0.2155  0.2009
25503W        W41577   5.201   6.349   6.450  0.3662 -0.1390  0.1089
25504W        W41578  10.945   6.714  16.025  0.2788 -0.0022 -0.0692
25505W        W41579   5.194   0.968   1.038 -0.1904  0.1363 -0.2048
25506W        W41580  17.710   6.269   3.194 -0.1274 -0.0204 -0.0620
25507W        W41581   3.042   3.979   2.489  0.2612 -0.1201  0.0123
25508W        W41582  13.086   1.303   3.145 -0.1880  0.0050  0.1392
25509W        W41583   7.687   1.052   4.867  0.0021  0.0213 -0.3068
25510W        W41584  16.882   3.720  15.011  0.0791  0.2711  0.0558
25511W        W41585  11.762   7.891   3.829  0.2133 -0.4418  0.1212
25512W        W41586   1.464   6.583   0.983  0.2690 -0.1764  0.4374
25513W        W41587  12.600   0.161   2.655 -0.2469 -0.0932 -0.0854
25514W        W41588  16.583  14.287   3.109 -0.1180 -0.0883  0.1813
25515W        W41589   2.725   6.172   0.906 -0.1592 -0.1418 -0.0333
25516W        W41590  13.145   6.869   2.115  0.0613 -0.2444 -0.4792
25517W        W41591  10.091  11.649   5.278 -0.0559 -0.0519  0.0321
25518W        W41592  13.608  11.676  13.747 -0.2356 -0.1937  0.0175
25519W        W41593   2.120  10.619  12.758 -0.0121  0.0507 -0.1462
25520W        W41594   0.278   7.761   1.894 -0.3485  0.2442  0.1221
25521W        W41595   4.612   1.351   2.510 -0.1256  0.1050  0.3219
25522W        W41596  17.794   3.986   3.201 -0.1697  0.4606  0.0202
25523W        W41597  12.675   1.514  12.240  0.2049 -0.1964 -0.3497
25524W        W41598   9.988   7.854  16.645 -0.5529  0.1747  0.1843
25525W        W41599   5.942   8.453  16.401 -0.0093 -0.2213 -0.2238
25526W        W41600  11.966  15.829   3.083  0.2970  0.0036 -0.0881
25527W        W41601   2.802   5.453  14.560  0.2432  0.2497 -0.0624
25528W        W41602  17.530   4.723   1.892 -0.0785  0.0536 -0.2228
25529W        W41603  11.044   6.868  13.428  0.0831 -0.0542  0.2101
25530W        W41604  17.579  13.442  13.628  0.0997  0.0589 -0.1078
25531W        W41605  15.686   4.222  16.744  0.0560 -0.0651  0.1108
25532W        W41606   9.143  15.440   5.211 -0.0185 -0.0961 -0.1342
25533W        W41607  14.034   4.010   4.216  0.1450  0.1522  0.0505
25534W        W41608   5.219  14.332   5.610  0.5014 -0.0390  0.0049
25535W        W41609   8.926   9.716  14.112 -0.2260 -0.0926 -0.1056
25536W        W41610  11.072  11.021   3.171  0.0328 -0.1614  0.1743
25537W        W41611  13.837  14.793   4.990  0.1630 -0.1841  0.0100
25538W        W41612   7.459   4.222   4.949  0.1529 -0.1774 -0.1677
25539W        W41613   8.383  10.876  16.017 -0.2550  0.0114 -0.1284
25540W        W41614   0.939   6.761  15.689  0.0535 -0.2439 -0.1877
25541W        W41615   8.906   4.604   5.076  0.1353 -0.2745 -0.1433
25542W        W41616  16.951  11.291   4.000 -0.2290 -0.1428 -0.2461
25543W        W41617   9.720   7.550  14.382 -0.0814 -0.0863 -0.4756
25544W        W41618   4.006  13.681   0.076  0.1785  0.1693  0.2538
25545W        W41619  12.000   7.106  13.304 -0.2032 -0.0436  0.0890
25546W        W41620   5.356  16.206   1.700 -0.3753  0.1847  0.2004
25547W        W41621  12.074  13.614   3.427  0.0914  0.0353 -0.1186
25548W        W41622  15.720   2.380  12.522 -0.0455 -0.1146 -0.0717
25549W        W41623   8.737  11.603   4.452  0.1827  0.1459  0.2465
25550W        W41624  14.132   7.194  12.341  0.2134  0.1157  0.0056
25551W        W41625   9.976   8.439  13.628 -0.1513 -0.0904  0.0081
25552W        W41626   0.888   2.020   4.208  0.0186 -0.0182  0.2250
25553W        W41627   4.356   0.007  14.004 -0.0244 -0.1459 -0.2877
25554W        W41628   3.400   5.862   5.263  0.1042  0.0100  0.1023
25555W        W41629   7.268  10.085  15.636  0.1693  0.0845 -0.1424
25556W        W41630   5.993  10.374  11.928  0.1785  0.0105  0.2071
25557W        W41631   8.683   5.321   1.805 -0.1739  0.0479  0.2546
25558W        W41632  11.080   9.280  11.993  0.0273 -0.0201  0.1877
25559W        W41633  12.408   8.896  14.464  0.2541 -0.4415  0.0422
25560W        W41634  16.771   6.933   1.016 -0.0751 -0.0684 -0.1657
25561W        W41635   0.541  11.536  15.270 -0.1857  0.0630 -0.1610
25562W        W41636  14.254   4.946   1.843  0.0271 -0.2668  0.3104
25563W        W41637   7.108   8.965  13.799  0.4623 -0.0408 -0.0465
25564W        W41638  12.543   2.946   0.534  0.1233  0.0645  0.0731
25565W        W41639  14.217   5.007  14.124 -0.2443  0.0029 -0.0084
25566W        W41640   4.570   4.215   2.804  0.3910  0.0611 -0.2181
25567W        W41641  16.712   3.867  15.479 -0.0569 -0.0278 -0.1337
25568W        W41642  17.383  15.005   0.814  0.0780 -0.2551 -0.2126
25569W        W41643   5.383   8.570  14.948  0.1819  0.0899  0.2456
25570W        W41644  12.150   8.504   3.347 -0.1956  0.3787 -0.1404
25571W        W41645  12.151  12.383  16.372 -0.1843  0.1440  0.1471
25572W        W41646   7.871   5.880  15.544  0.3398  0.0458 -0.1439
25573W        W41647  11.881   9.891   2.530  0.3554  0.3282 -0.1463
25574W        W41648   0.235  13.414  13.690 -0.1949  0.0370  0.2894
25575W        W41649  14.396   2.692  10.777  0.0462 -0.2127  0.2076
25576W        W41650  10.643  12.316   5.020  0.1871  0.0331 -0.4868
25577W        W41651  12.181  13.283  16.678 -0.1550 -0.1144 -0.0973
25578W        W41652   2.974   6.542   2.643  0.1294  0.0767 -0.1182
25579W        W41653  14.351   4.700   3.630  0.1509 -0.1537  0.0217
25580W        W41654   4.099  15.464   5.001  0.1018  0.1108 -0.0435
25581W        W41655   1.689   1.738   4.314 -0.0683 -0.3606  0.1359
25582W        W41656   4.236   0.481  16.131 -0.0324  0.1673  0.0183
25583W        W41657   7.070   7.961  16.136 -0.0190  0.0561  0.1251
25584W        W41658   8.202   0.945  14.885 -0.2968  0.1879  0.0712
25585W        W41659   6.438  12.835   4.290 -0.1331  0.1259  0.0227
25586W        W41660  12.981   6.128  16.356 -0.0503  0.1253  0.1009
25587W        W41661  16.569   5.351  14.665 -0.0104 -0.0432 -0.0400
25588W        W41662   0.960  17.281  16.556 -0.1909  0.0622  0.2059
25589W        W41663   4.749   8.792  12.350 -0.3479 -0.0862  0.1181
25590W        W41664  12.977   1.204  16.768  0.0475  0.2335  0.1026
25591W        W41665  12.206   1.406  14.356 -0.0352  0.3751 -0.0717
25592W        W41666  10.855  16.231   3.903 -0.1075 -0.1156 -0.4262
25593W        W41667  16.601   0.187   2.153  0.0905 -0.0379 -0.2733
25594W        W41668   9.392  12.974   1.960 -0.3107 -0.0193  0.1047
25595W        W41669  10.165  10.797   6.651 -0.1457  0.0045 -0.0147
25596W        W41670   6.000   6.967   2.296 -0.2096  0.0266  0.2231
25597W        W41671   3.228   8.187  12.323 -0.1872 -0.2423  0.3013
25598W        W41672   8.577  11.709   2.782 -0.1688  0.0410  0.0348
25599W        W41673   7.074   5.457  11.381 -0.1144  0.2267  0.3424
25600W        W41674   9.596   0.596   0.287 -0.2313  0.0364  0.3612
25601W        W41675   3.100  17.377   4.125  0.1216  0.0956  0.1816
25602W        W41676  13.825  10.472  15.797 -0.0147 -0.2029  0.0801
25603W        W41677   3.576   5.294  16.089  0.2518 -0.0619  0.0096
25604W        W41678   5.599  10.186  14.001 -0.0273  0.1042 -0.0436
25605W        W41679  13.473  17.455  12.861  0.0284 -0.0807 -0.0056
25606W        W41680   9.038  14.235  15.537 -0.0799  0.0049  0.0035
25607W        W41681   2.252   5.080  13.332  0.2870 -0.0148 -0.2438
25608W        W41682   8.333   2.299   3.240  0.0681 -0.1065  0.0377
25609W        W41683   4.754  11.907  12.921  0.2450  0.3048 -0.0114
25610W        W41684   5.091   6.960  14.933  0.1187  0.1264  0.3455
25611W        W41685  13.596   9.489  13.436  0.0104 -0.2395 -0.0525
25612W        W41686  16.040  15.370  15.236  0.2022  0.0578  0.3049
25613W        W41687  17.692   0.682  14.186  0.0696  0.0014 -0.1344
25614W        W41688   5.272   0.464  15.357  0.0850  0.1748  0.0694
25615W        W41689  17.690   5.388   4.208  0.2215 -0.2342 -0.2139
25616W        W41690  11.122   7.606  14.543 -0.1777 -0.0450 -0.2651
25617W        W41691  12.935   1.847   1.346  0.1159 -0.0704 -0.0881
25618W        W41692   1.819   5.560  15.763 -0.4052  0.1133  0.2042
25619W        W41693  17.339  10.819   0.731  0.0383  0.0354 -0.0221
25620W        W41694  16.052  12.956   0.898 -0.3018 -0.0256  0.0376
25621W        W41695  12.840  16.431   5.840  0.3558 -0.0877  0.0310
25622W        W41696   4.640   6.715  14.037  0.3554  0.0359 -0.3741
25623W        W41697   9.600   7.370  14.925  0.2333  0.2371  0.6736
25624W        W41698   2.647   1.967  14.997 -0.2580 -0.0275 -0.0677
25625W        W41699   1.292  16.543   3.642 -0.1842 -0.0633  0.0735
25626W        W41700   5.599   5.105  14.621  0.4204  0.0338  0.1924
25627W        W41701   2.063   0.031   1.735 -0.2676 -0.1813 -0.0419
25628W        W41702   3.463   8.386  12.713 -0.0264  0.0421  0.1445
25629W        W41703  12.919  11.601  13.199 -0.0647 -0.0974  0.0070
25630W        W41704  11.861   6.535   2.204  0.1382 -0.3611  0.0187
25631W        W41705  11.641  17.354   3.283  0.0356 -0.0695  0.2893
25632W        W41706   5.205   1.482  14.497 -0.0850 -0.0311  0.1584
25633W        W41707  17.627  11.277   3.901  0.0968  0.2027  0.3236
25634W        W41708  12.475   4.263   5.046  0.2008  0.1913 -0.0981
25635W        W41709  14.732   2.780   2.430 -0.1780  0.3865 -0.1444
25636W        W41710  10.816  13.213  13.254 -0.1437  0.1784 -0.1620
25637W        W41711   2.854  11.067  16.165 -0.3649  0.1440 -0.1670
25638W        W41712   5.089  13.159   0.465  0.0169 -0.1407 -0.0609
25639W        W41713   5.732  16.459   5.846 -0.2880  0.2688  0.2014
25640W        W41714   8.874  11.366  14.202  0.0452  0.1437  0.1936
25641W        W41715   6.154  14.490   3.789 -0.1799  0.1545  0.4561
25642W        W41716  16.328   5.316  16.960  0.0747  0.2516 -0.2853
25643W        W41717   9.751  10.604  13.106  0.1277  0.1861 -0.0276
25644W        W41718  13.633  11.315   1.141  0.1561 -0.1518 -0.2743
25645W        W41719   7.915  10.773  13.307  0.1602 -0.2099 -0.2374
25646W        W41720   1.145  14.967  11.844 -0.0242  0.1715 -0.2775
25647W        W41721   4.728  10.608   5.819  0.2704 -0.1374 -0.2320
25648W        W41722   8.866  10.455  14.639 -0.1345  0.0397  0.0188
25649W        W41723  17.663  12.258   4.318 -0.0578  0.3066 -0.3450
25650W        W41724   8.074  12.633  16.769 -0.0195 -0.0215 -0.2175
25651W        W41725   8.627   3.667   4.583  0.4197  0.0868 -0.1373
25652W        W41726  10.958   3.856   2.512 -0.0328  0.0339  0.2334
25653W        W41727  15.833   4.277   4.490 -0.0309 -0.0192  0.1128
25654W        W41728  12.175  10.406  16.863  0.3032  0.1470  0.2637
25655W        W41729  17.525   5.638   6.195  0.0212  0.1510 -0.0663
25656W        W41730   5.982  16.355   0.362  0.0047 -0.2223  0.0229
25657W        W41731  12.670  15.199   4.625  0.4243 -0.0427  0.1231
25658W        W41732   4.693   6.185  15.417 -0.1269 -0.1780  0.0632
25659W        W41733  14.280  11.750   5.369 -0.1689 -0.1618 -0.1306
25660W        W41734  14.197   5.964  12.195 -0.0612  0.4365  0.2286
25661W        W41735   8.062   3.842   0.462 -0.0896 -0.0595 -0.0394
25662W        W41736   3.280   4.766   5.568 -0.3385 -0.4574  0.1558
25663W        W41737   4.257   3.465  14.985  0.0330  0.2073 -0.0862
25664W        W41738   5.987   9.185   3.190  0.0111 -0.1084  0.2710
25665W        W41739   8.369   4.000   4.961 -0.0576 -0.2240  0.1486
25666W        W41740   8.204   2.918  10.407 -0.2257 -0.3257 -0.2610
25667W        W41741   7.778   4.695  12.228 -0.2374 -0.3645 -0.1756
25668W        W41742  14.930   5.202   0.284  0.3055  0.0639  0.3993
25669W        W41743   8.604   3.194  16.277  0.2388 -0.2338 -0.0132
25670W        W41744   6.669   4.451   4.511  0.2676 -0.0054 -0.0881
25671W        W41745   2.461   5.798   4.322  0.1088 -0.0457  0.0343
25672W        W41746   7.338  13.288   2.166 -0.1986  0.1067  0.1444
25673W        W41747   0.744   4.865  12.980  0.0141 -0.0859  0.0122
25674W        W41748  12.533  10.074   1.519 -0.1164  0.0937 -0.1897
25675W        W41749   6.239   3.064   5.380  0.0173  0.0569  0.1187
25676W        W41750   2.144  13.342   3.326  0.0318 -0.3059 -0.1696
25677W        W41751   8.734  14.367  15.986 -0.1081  0.0950  0.3352
25678W        W41752  12.121   9.590  13.742  0.1263  0.1133  0.1886
25679W        W41753   9.839   1.845   2.437 -0.0494 -0.0869 -0.0202
25680W        W41754   3.270   8.273   4.063 -0.3233 -0.3218  0.0681
25681W        W41755   2.794  14.074  16.675 -0.2114 -0.0853  0.0249
25682W        W41756   2.908  17.365  16.148  0.1176  0.4588  0.0103
25683W        W41757   7.876   6.629   4.210 -0.1447  0.0610  0.0706
25684W        W41758   8.494   3.717   0.317 -0.1302 -0.0528 -0.1790
25685W        W41759   9.564  17.751  14.548 -0.0777  0.1778  0.1534
25686W        W41760  14.051  13.293   2.460  0.2579  0.0608  0.0051
25687W        W41761  12.795  10.586  14.220 -0.0117  0.1349  0.0584
25688W        W41762   2.569   8.060  12.364  0.1354 -0.0938 -0.1951
25689W        W41763   9.620   6.346  15.551  0.2144  0.0511  0.1378
25690W        W41764   9.153   0.636  16.892  0.1436  0.2483 -0.2119
25691W        W41765  16.848  10.333  14.312  0.2242 -0.1073  0.1129
25692W        W41766  10.933   7.492  16.345 -0.1068  0.0970  0.0317
25693W        W41767  10.244   6.395   0.910 -0.1181 -0.4107  0.0298
25694W        W41768  15.063   3.685   4.033  0.0866  0.5100  0.0882
25695W        W41769   6.860  15.169   4.296  0.2769  0.1047 -0.3212
25696W        W41770   0.349  14.611  15.814  0.0536 -0.0863 -0.0773
25697W        W41771  16.816   9.438  13.931 -0.1165 -0.0422 -0.0091
25698W        W41772  16.471  10.245  13.834 -0.0504  0.0145  0.2733
25699W        W41773  15.260  13.018   5.028 -0.1104 -0.0357  0.1302
25700W        W41774   6.170  16.617   4.290  0.2733 -0.1486 -0.4437
25701W        W41775   9.452  11.602   5.718  0.0219 -0.2427  0.1045
25702W        W41776  14.824   1.328  16.928  0.0244 -0.0833 -0.1223
25703W        W41777   5.765   3.858   4.130 -0.1732  0.2464  0.1179
25704W        W41778   3.079   3.311   6.468  0.0667 -0.1566 -0.0017
25705W        W41779  12.981   7.879   4.601 -0.2044  0.2209  0.0227
25706W        W41780   3.956   8.168  12.614  0.0501  0.1646 -0.0177
25707W        W41781  11.870  12.772  11.971 -0.0867 -0.1327 -0.3466
25708W        W41782   6.398  11.550  12.541  0.2537 -0.3027  0.1532
25709W        W41783  17.487   4.516   1.432  0.1315  0.0559 -0.0712
25710W        W41784   6.684  12.291   0.713 -0.1841  0.6594 -0.1925
25711W        W41785   0.830  11.929  13.021  0.1248 -0.0424 -0.3152
25712W        W41786   8.614  16.472  14.903  0.1220  0.1553  0.4059
25713W        W41787  13.013  13.481   1.368 -0.0108 -0.1388  0.1366
25714W        W41788  13.472  13.523   0.824 -0.1947 -0.1395  0.1527
25715W        W41789   4.450  16.517  12.118  0.0731 -0.0351  0.0456
25716W        W41790   8.379  13.748   1.351  0.0025 -0.0010  0.0386
25717W        W41791   8.843   9.088   1.802  0.2067  0.0391  0.0525
25718W        W41792   1.898   9.275  16.301  0.1656  0.4533 -0.0145
25719W        W41793   7.192   9.390   1.999  0.1669 -0.2258 -0.0418
25720W        W41794   9.323   4.180   0.174  0.1349 -0.5258 -0.2624
25721W        W41795  15.651   9.885   1.785  0.0099  0.1031  0.1520
25722W        W41796  13.878   5.582  12.308 -0.0922  0.0579  0.0481
25723W        W41797   1.717  14.148  16.387 -0.1361 -0.1253 -0.2018
25724W        W41798   9.683   8.809   0.771  0.1592  0.1971 -0.0874
25725W        W41799   9.495  14.238   2.388  0.1146 -0.1873 -0.2568
25726W        W41800   3.669  11.011   4.327  0.2144  0.1367 -0.0407
25727W        W41801   2.685   4.522  16.430 -0.1559  0.1527  0.0016
25728W        W41802   4.497   5.256   3.691 -0.2584  0.3096 -0.1991
25729W        W41803   0.651   1.491   6.685  0.2686  0.0913 -0.1420
25730W        W41804  13.315   8.151   0.846  0.1315 -0.0058 -0.1579
25731W        W41805   8.109   7.781   5.194 -0.2052  0.1548 -0.0383
25732W        W41806   0.424   9.790  12.630 -0.0322  0.1677 -0.1580
25733W        W41807   9.543  15.608   2.647 -0.0050  0.2554  0.0996
25734W        W41808  14.544   3.774   2.077 -0.1978  0.0257  0.0487
25735W        W41809  17.302  10.187  16.093  0.2131 -0.1085 -0.1761
25736W        W41810  12.971  12.576  11.794  0.0992  0.0317  0.1482
25737W        W41811  12.385  11.778   2.236  0.0145  0.3025 -0.0307
25738W        W41812   5.461  14.659  14.952 -0.3294 -0.0474  0.2224
25739W        W41813  13.232   6.981   3.149  0.3526 -0.1357 -0.0463
25740W        W41814   5.959  15.381  12.485 -0.4302 -0.3289 -0.2879
25741W        W41815   5.157  14.864   2.292 -0.1377  0.0705 -0.0126
25742W        W41816   3.407   3.644   3.961 -0.0492  0.1417 -0.0681
25743W        W41817  15.817   3.115   3.948 -0.3135 -0.0364  0.0147
25744W        W41818   0.901  14.462  12.443  0.0416 -0.0064 -0.0538
25745W        W41819   0.411  10.430  15.053  0.0693  0.0070  0.1027
25746W        W41820  15.603   0.491   3.426 -0.3728 -0.0521 -0.1892
25747W        W41821  16.829  17.122   1.945 -0.1826  0.1231 -0.0112
25748W        W41822   4.475  16.718  13.427  0.1676  0.0993 -0.2085
25749W        W41823  11.166  13.896  13.983 -0.1384  0.2593  0.0038
25750W        W41824  11.653   7.042   5.686 -0.1619 -0.0097 -0.0677
25751W        W41825   2.056  14.167  13.966 -0.0412 -0.1152  0.2187
25752W        W41826  15.349  16.955   1.066  0.2000  0.0021 -0.1502
25753W        W41827   6.212   6.014  12.118  0.0477  0.2647  0.1995
25754W        W41828  11.622  16.176  15.577  0.1539 -0.0248  0.2142
25755W        W41829   1.895   4.751   4.189  0.0128 -0.0470  0.2071
25756W        W41830  14.158  12.742  12.470  0.1314  0.0942 -0.1468
25757W        W41831   9.298   1.665   3.628 -0.1647  0.1344  0.0510
25758W        W41832   5.713  15.943  11.734  0.2980  0.0979 -0.0801
25759W        W41833  12.672   1.595   2.980  0.4207  0.4113  0.2214
25760W        W41834   7.590  14.076  13.840  0.3009 -0.3217  0.3312
25761W        W41835   1.233   8.770   3.245 -0.0831  0.1433  0.1341
25762W        W41836   2.274  11.221  13.072  0.1475  0.2848  0.0009
25763W        W41837  13.831  15.529  15.501 -0.0524  0.2229 -0.0732
25764W        W41838  16.705   6.055   3.967 -0.0236 -0.3611  0.1470
25765W        W41839   7.504  17.270  16.531  0.0973 -0.4319 -0.1738
25766W        W41840  11.842   8.112  11.620 -0.1598  0.2052  0.0951
25767W        W41841   3.691   6.171  11.264 -0.0725  0.1303  0.1821
25768W        W41842   5.033  12.157  14.054 -0.1292 -0.3244  0.0891
25769W        W41843  14.275   5.722   5.829  0.0524 -0.2329  0.1614
25770W        W41844   2.405   9.575  15.413 -0.0528 -0.0457  0.2291
25771W        W41845  14.563   7.681  14.252 -0.0272 -0.0315 -0.0411
25772W        W41846  15.988   3.895   0.838 -0.2895 -0.0469  0.1985
25773W        W41847  12.699  13.605  16.183 -0.2049  0.1610  0.1279
25774W        W41848  10.259   2.683   0.297  0.0024  0.2020 -0.1242
25775W        W41849   7.694   2.687   2.262 -0.1545 -0.0199  0.1175
25776W        W41850   7.951  15.587  14.501 -0.0573 -0.0308 -0.0902
25777W        W41851  10.508  16.798  15.658 -0.0446 -0.0418  0.2071
25778W        W41852   7.000   4.006  15.263  0.2306  0.0498  0.2489
25779W        W41853   3.798   2.230   4.741 -0.0477  0.0819  0.1264
25780W        W41854   5.318   0.258  12.194 -0.2837  0.0549  0.0384
25781W        W41855   7.296  12.532   4.152  0.4360  0.1824 -0.1778
25782W        W41856  10.506   1.056  12.989  0.0905 -0.0364 -0.0605
25783W        W41857   8.771  10.805  16.304 -0.1996  0.2474 -0.2671
25784W        W41858  13.199  12.336  13.719 -0.0810 -0.0191 -0.1841
25785W        W41859  12.514  13.907   5.311  0.1761  0.1382  0.2881
25786W        W41860  13.637  11.921   4.765 -0.1836  0.1153  0.0877
25787W        W41861  13.028   9.398   4.742 -0.0742 -0.3570  0.1535
25788W        W41862   1.843  12.378  16.245  0.0682  0.1752  0.1764
25789W        W41863   9.221  14.475  14.859  0.2921 -0.0469  0.0149
25790W        W41864   5.918   3.731  14.125  0.2893  0.4346 -0.0518
25791W        W41865  12.107   4.365  13.064 -0.1505 -0.1096  0.0744
25792W        W41866   1.812   0.121  14.430  0.1350 -0.1124 -0.2117
25793W        W41867   3.400   2.397   3.042  0.0763 -0.2498 -0.1407
25794W        W41868   1.468   8.589  11.943 -0.1288  0.0706 -0.0333
25795W        W41869   2.886   8.168  16.441 -0.1133  0.2202 -0.0907
25796W        W41870   1.359  14.868   0.453  0.0939  0.0485  0.0821
25797W        W41871  13.050   3.073  14.587  0.0351  0.1372 -0.3049
25798W        W41872   0.779  17.289   3.063  0.0358  0.5357  0.1367
25799W        W41873   0.969   1.137   5.819 -0.0565  0.0673  0.0046
25800W        W41874  17.745   2.819   0.049 -0.0249  0.2725  0.2457
25801W        W41875  15.144   2.197  14.085 -0.0956 -0.1616  0.1061
25802W        W41876  17.397  15.599  15.154  0.1809  0.0213  0.4021
25803W        W41877   0.483   3.205   4.840 -0.0631  0.0301  0.0963
25804W        W41878   1.499   3.976   4.897  0.2053 -0.1966 -0.0914
25805W        W41879  13.632   5.067   0.522 -0.1655 -0.4316  0.0117
25806W        W41880   6.009   3.581   3.755  0.3304  0.2305 -0.0192
25807W        W41881  10.809  11.777   4.747  0.0505 -0.3214  0.2708
25808W        W41882  15.156   9.194   5.695 -0.0164 -0.0407 -0.1953
25809W        W41883   7.058  16.315  14.133 -0.2441 -0.2821 -0.2577
25810W        W41884   8.390   6.009  13.262 -0.1039 -0.1819 -0.0048
25811W        W41885  15.131  12.572  13.212  0.4823 -0.2759  0.0510
25812W        W41886  11.950   3.654   0.489  0.1355 -0.1167  0.2322
25813W        W41887  15.454   5.612   2.224 -0.0966  0.1732  0.0693
25814W        W41888  13.475   9.931  12.639 -0.1195  0.1391  0.0028
25815W        W41889   5.903   6.446  14.181 -0.6577  0.0568  0.1073
25816W        W41890   6.582   4.373  16.807  0.2000 -0.1817  0.0039
25817W        W41891  17.297  16.971   4.453 -0.1087  0.0724 -0.1874
25818W        W41892   3.277  14.241  15.533 -0.1460  0.2481 -0.1184
25819W        W41893   2.254  17.843  12.700 -0.1741  0.0252 -0.1109
25820W        W41894  10.711   7.041  12.952 -0.0002  0.2431  0.0627
25821W        W41895  15.019  13.083   4.050 -0.0717 -0.3471  0.2038
25822W        W41896  16.343   9.159   5.698  0.1633  0.0258 -0.0781
25823W        W41897  11.798  12.023  16.225  0.1095 -0.0596 -0.0100
25824W        W41898   5.598   1.633  14.222 -0.1527 -0.0404 -0.2023
25825W        W41899   2.788   4.821   3.277  0.5333  0.0213  0.1287
25826W        W41900  13.587  17.047   5.553 -0.1685 -0.1209  0.2348
25827W        W41901  10.365  11.119  12.732  0.0068  0.0048  0.0538
25828W        W41902  12.968  11.943   3.325 -0.2242 -0.2596 -0.3445
25829W        W41903  14.307   6.983   3.332 -0.1684  0.2678 -0.1862
25830W        W41904   6.071  13.370   1.902  0.1840 -0.0142  0.1038
25831W        W41905   1.089  11.724   2.097  0.2207  0.1547 -0.2235
25832W        W41906  17.108  12.425  15.351 -0.2651  0.1979  0.0185
25833W        W41907  10.388  13.639  15.482  0.0299 -0.1109  0.1418
25834W        W41908  12.336   6.706   3.548 -0.3246 -0.0311 -0.0887
25835W        W41909   3.640  11.190   3.770 -0.0126  0.0861  0.0967
25836W        W41910  12.468  12.234  16.691 -0.2602  0.2380 -0.1384
25837W        W41911   9.034  13.320  12.132 -0.1489 -0.0776 -0.1027
25838W        W41912   4.171  15.050  14.662 -0.2933 -0.0337 -0.1977
25839W        W41913  16.591   6.093   0.691 -0.1782 -0.1599 -0.0519
25840W        W41914   7.249  15.560  14.454  0.0006  0.1618 -0.1234
25841W        W41915   5.513  11.818   3.423 -0.1935  0.1258 -0.3845
25842W        W41916  12.107  14.027   4.270 -0.2252 -0.0338 -0.0399
25843W        W41917   8.941  12.679  13.243  0.0717 -0.1226  0.0288
25844W        W41918  17.416  11.011  15.901  0.1576 -0.1020 -0.1112
25845W        W41919   1.606   3.598  13.168  0.0538 -0.0442  0.1018
25846W        W41920   0.177   2.188  12.334 -0.0788 -0.3331 -0.0033
25847W        W41921   4.310   1.266  15.104 -0.1687  0.0339  0.0510
25848W        W41922  13.675  13.419   3.755  0.0632  0.0830 -0.1455
25849W        W41923  14.442   0.201   1.531 -0.0326  0.1107  0.0860
25850W        W41924   5.056   4.040  15.450  0.0596 -0.0233  0.1022
25851W        W41925  11.505  13.893   0.904  0.1610  0.3615  0.1112
25852W        W41926   0.036   8.820   4.656  0.2018  0.2713 -0.1408
25853W        W41927  14.297   5.750  10.715 -0.1236 -0.0509  0.0953
25854W        W41928  13.502  16.063   1.178 -0.3344  0.0670 -0.0433
25855W        W41929   6.778  13.405  12.135 -0.1231 -0.0838 -0.0288
25856W        W41930  10.721  11.084   2.686 -0.2207 -0.0698  0.1031
25857W        W41931   2.600   1.220   1.944 -0.1102 -0.0613 -0.0569
25858W        W41932   6.365  16.013   4.203  0.0766  0.0763  0.1813
25859W        W41933  10.622  14.607   5.468 -0.2890  0.1709 -0.5258
25860W        W41934   2.683   4.953  13.077  0.0860 -0.0045  0.2274
25861W        W41935   3.196   5.134   0.036  0.0253  0.2481 -0.1281
25862W        W41936  14.216   4.125   2.316 -0.2741 -0.1459 -0.0152
25863W        W41937  10.989   2.929   1.483  0.0176 -0.2390 -0.0750
25864W        W41938  15.884   2.172  13.513 -0.1082 -0.0230  0.1396
25865W        W41939  14.178   1.283  13.061 -0.4384 -0.1149 -0.3069
25866W        W41940   6.360   4.946   5.634 -0.1089 -0.1225 -0.1700
25867W        W41941   1.692  13.408  14.341 -0.0602  0.1142 -0.0431
25868W        W41942   2.806   8.057  15.914  0.0354 -0.2909 -0.1507
25869W        W41943   3.080   1.405  16.098  0.1031  0.2744  0.0783
25870W        W41944  12.955   3.620   3.533 -0.0431 -0.0566 -0.3400
25871W        W41945   8.927  16.729  12.749  0.1933 -0.0496 -0.1706
25872W        W41946   7.137   2.960  13.388  0.0740 -0.1882  0.1096
25873W        W41947  11.261   5.881   1.919  0.2849  0.2652  0.1267
25874W        W41948   4.844   3.433  14.717  0.1363 -0.3471 -0.3718
25875W        W41949   0.759   9.136   2.203 -0.2521  0.0101  0.2633
25876W        W41950   8.064   0.913   3.021  0.0323  0.0822  0.3288
25877W        W41951  11.063   9.162   4.224  0.3647  0.2461 -0.0328
25878W        W41952   9.607  14.508   5.866  0.3439 -0.1870 -0.1318
25879W        W41953   2.813   5.311   4.970  0.2001 -0.0039  0.0878
25880W        W41954   1.210   9.623   2.201 -0.1438 -0.1865 -0.3017
25881W        W41955  15.484   4.637  11.538  0.0282 -0.0449  0.0860
25882W        W41956   8.920   8.458  16.778  0.1440  0.0782 -0.0906
25883W        W41957  13.606   2.991  15.737  0.0212 -0.2724 -0.0173
25884W        W41958   5.665   3.433  14.431  0.1862 -0.3038 -0.0678
25885W        W41959   4.415   9.239  12.158  0.0781  0.1915 -0.0285
25886W        W41960   4.509  10.409   2.423 -0.0823 -0.1524 -0.1384
25887W        W41961  11.959   6.560  12.456  0.2212 -0.0151 -0.1206
25888W        W41962   4.875  16.531  13.226 -0.0971  0.0996  0.2406
25889W        W41963   8.366   3.588   3.497 -0.0230  0.2444  0.0793
25890W        W41964  15.407  11.791   2.473  0.1897  0.1718 -0.3899
25891W        W41965   8.404  12.900  12.947 -0.1064 -0.0732 -0.1444
25892W        W41966   7.896   0.154   0.048  0.1330 -0.0493  0.0810
25893W        W41967   7.253   2.402   3.768  0.0743  0.1389  0.0553
25894W        W41968   2.772  13.885   3.594 -0.0656  0.1424 -0.0894
25895W        W41969   1.817   1.456   0.832 -0.1911  0.1358 -0.0553
25896W        W41970   9.664  17.650   4.220  0.2970 -0.2547  0.4028
25897W        W41971  15.130  11.751   3.912  0.0119 -0.1229 -0.0520
25898W        W41972   5.818   3.852  14.634 -0.0130  0.1048 -0.1237
25899W        W41973  15.809   8.785   0.551  0.0302 -0.2180  0.0901
25900W        W41974   2.188  12.399   1.007 -0.1682  0.0940 -0.0528
25901W        W41975   9.553   7.994  11.073 -0.1672  0.2332 -0.0744
25902W        W41976  10.585  10.296   0.110  0.0596 -0.3069 -0.3789
25903W        W41977  10.310  17.318   1.936  0.0849  0.1821  0.0838
25904W        W41978  13.386   4.523  15.169  0.3514 -0.1450  0.0926
25905W        W41979   9.199   0.411   0.609 -0.0513 -0.0052 -0.0895
25906W        W41980  10.789   6.618   2.207 -0.1017  0.0303  0.0628
25907W        W41981  16.836   4.676  13.378 -0.0357 -0.0753 -0.0839
25908W        W41982   8.405  15.407   1.801  0.1071 -0.2326 -0.1938
25909W        W41983  15.922   3.246   2.005 -0.1087 -0.0176 -0.2308
25910W        W41984  13.931  17.396  13.141 -0.1566 -0.0853 -0.1425
25911W        W41985   8.721   9.494   0.931 -0.0281  0.1690  0.1238
25912W        W41986  12.672  15.798   3.432  0.1018  0.1404 -0.0215
25913W        W41987   6.747  13.227  16.339  0.2051  0.1007  0.1740
25914W        W41988   0.398  12.253  12.775 -0.0827  0.4112 -0.0751
25915W        W41989   2.871   0.169   3.896 -0.0215 -0.0370 -0.0026
25916W        W41990   6.199   5.177   4.798 -0.2105 -0.1600  0.0618
25917W        W41991  14.391   0.914  15.558  0.0223 -0.2115  0.2236
25918W        W41992   5.047  11.550  12.763  0.2513 -0.1502 -0.2335
25919W        W41993  16.155  15.791   2.560  0.0831 -0.1184 -0.0354
25920W        W41994  13.045   0.698   0.133  0.0660  0.4789  0.0391
25921W        W41995   4.256   9.619   6.485 -0.0329 -0.1187 -0.0478
25922W        W41996   5.561  15.478  13.768  0.2669 -0.0895 -0.0467
25923W        W41997  17.636  11.366  14.595 -0.0860 -0.0766  0.0690
25924W        W41998   4.048   3.552   4.978 -0.4075 -0.2456  0.0336
25925W        W41999   6.744   4.617   1.542 -0.5113 -0.0089  0.1292
25926W        W42000   9.318  14.977  14.051 -0.0615 -0.0224  0.1676
25927W        W42001   7.690   0.365  14.295  0.1103 -0.1014 -0.0092
25928W        W42002  14.074   9.235  16.540 -0.0052 -0.0006  0.1566
25929W        W42003  10.426   2.944  15.315 -0.1369 -0.2090 -0.1575
25930W        W42004  12.470  16.783   3.599 -0.3403 -0.0530 -0.1353
25931W        W42005   3.928   2.174  16.469 -0.2607 -0.2478  0.0178
25932W        W42006   9.761   3.018   5.971 -0.1335 -0.0495  0.2588
25933W        W42007  16.469   8.844   2.742 -0.0932  0.0382  0.1520
25934W        W42008  16.752   6.580   4.775 -0.0704  0.2772 -0.1265
25935W        W42009   9.105  11.666   2.593 -0.1162  0.2302 -0.1251
25936W        W42010  10.843   3.451   4.620 -0.2714 -0.1112 -0.4020
25937W        W42011   9.889   2.992  12.772 -0.2543 -0.1889 -0.0345
25938W        W42012  14.993  15.489  12.308 -0.4528  0.2692  0.0459
25939W        W42013   9.782   8.090   3.029  0.1160 -0.0824  0.2636
25940W        W42014   4.150   2.863   4.504  0.0726  0.2043  0.1029
25941W        W42015  15.735   0.803  14.120  0.0096  0.3161  0.0036
25942W        W42016  10.919   5.045   3.899 -0.1681 -0.1572 -0.2335
25943W        W42017   0.653   7.238  12.600  0.0469 -0.0833 -0.2707
25944W        W42018  14.793   8.327  14.763 -0.2421 -0.1249  0.3273
25945W        W42019   9.970   1.990   1.955 -0.1778 -0.0594  0.0874
25946W        W42020  14.105   3.362   0.988 -0.1479 -0.1134 -0.0201
25947W        W42021   7.809   7.158  13.977 -0.0151  0.3249 -0.0160
25948W        W42022   5.111   0.953  14.414  0.1423  0.1066 -0.3767
25949W        W42023   6.423   2.222   2.398 -0.2377 -0.3522  0.1377
25950W        W42024   2.191  17.626   3.726  0.1083  0.3239 -0.0586
25951W        W42025   5.821   5.610  14.512  0.0738  0.4571  0.0356
25952W        W42026   9.971   8.160   6.695  0.1311 -0.0720  0.1159
25953W        W42027  17.039   6.198   6.490 -0.0139 -0.2725 -0.0130
25954W        W42028  15.363   2.822  16.844 -0.2652  0.3421 -0.1325
25955W        W42029   0.235   9.475   2.243 -0.1179  0.1269  0.0390
25956W        W42030   4.040   9.155  12.848  0.0753  0.0035 -0.1330
25957W        W42031   7.009  16.420   2.169  0.0251 -0.0022 -0.2366
25958W        W42032   8.356  17.378  13.889  0.0843 -0.1754 -0.0471
25959W        W42033   9.078  14.181   4.678  0.2840 -0.2616  0.1098
25960W        W42034   1.152   1.540   1.894 -0.1779 -0.1935  0.1368
25961W        W42035   8.627  15.782  16.077  0.1243 -0.0265  0.2974
25962W        W42036   2.679   8.695   2.901  0.3234 -0.1345  0.3332
25963W        W42037   4.556  10.723  16.289  0.0171  0.2409 -0.1856
25964W        W42038   3.092   8.938  15.533  0.3231  0.2412 -0.2214
25965W        W42039   6.168   1.658   5.902  0.2254 -0.3769 -0.1295
25966W        W42040   9.667   9.199   1.097  0.1108  0.1516 -0.0427
25967W        W42041  11.906  12.245   5.587 -0.3238 -0.3546  0.0235
25968W        W42042   7.813  14.522  15.989 -0.2201  0.2201 -0.1741
25969W        W42043   5.505   7.174   4.076  0.0135  0.1233 -0.2363
25970W        W42044   5.579   2.068   3.858 -0.0755  0.2320 -0.0088
25971W        W42045   5.922   7.285   4.353 -0.0536  0.1401  0.2374
25972W        W42046   9.063  15.578   4.157  0.0810 -0.3582 -0.0200
25973W        W42047   2.620  11.832   0.351  0.0517 -0.0599  0.0131
25974W        W42048  13.421  16.364  13.589 -0.1285 -0.1697 -0.0720
25975W        W42049  13.016   9.496  15.137 -0.1363 -0.1584  0.0315
25976W        W42050   5.492  17.561   1.999 -0.0690 -0.0850 -0.0275
25977W        W42051  14.214  13.703  11.657 -0.4027 -0.2596  0.1367
25978W        W42052   0.686   4.414   3.018  0.1138 -0.3120 -0.1084
25979W        W42053   8.176   7.748  12.080  0.0801 -0.0308  0.1874
25980W        W42054   2.110   1.812   1.007 -0.1234  0.0698 -0.2421
25981W        W42055  11.718   8.564  15.776  0.0091 -0.0277 -0.1697
25982W        W42056   7.650   9.715   0.053 -0.0659  0.2821 -0.0989
25983W        W42057   0.624  16.624   4.443 -0.0706  0.1348  0.0458
25984W        W42058   6.236   5.335  12.983  0.0150 -0.0829 -0.1215
25985W        W42059  14.444  13.182  11.118 -0.1643  0.1228  0.0300
25986W        W42060   6.896   9.133   2.380  0.0931  0.1646 -0.1791
25987W        W42061   4.989  14.443  12.645 -0.2223 -0.3035  0.0815
25988W        W42062  15.582   4.843   3.418 -0.3774  0.0396  0.0056
25989W        W42063  14.457  10.600  14.892 -0.1244  0.1181  0.0567
25990W        W42064   1.959  14.826  11.592 -0.0480 -0.0234 -0.1972
25991W        W42065   5.920   3.555  13.635  0.0109  0.2427  0.1411
25992W        W42066   0.354  16.921  14.359  0.2740  0.3537 -0.1158
25993W        W42067   1.202   7.266  13.167  0.1022  0.0117  0.0427
25994W        W42068  12.930  17.020  13.927  0.1513 -0.0515  0.1860
25995W        W42069  12.562  13.399   3.697 -0.1533  0.2163  0.0906
25996W        W42070   8.883   4.538  14.180  0.0851 -0.2305 -0.0491
25997W        W42071   0.738  11.977   2.224 -0.2647 -0.0706 -0.3216
25998W        W42072   2.527   1.977  15.445 -0.1390 -0.1107  0.1414
25999W        W42073   7.789   6.819  14.904 -0.3535  0.2213 -0.1810
26000W        W42074  11.941   6.437   0.085 -0.0441  0.0097 -0.1646
26001W        W42075   5.685   5.019  13.710 -0.3163  0.1330  0.0210
26002W        W42076  17.128   9.157  12.654 -0.1399  0.0413  0.1563
26003W        W42077  10.272   8.019  14.712  0.1561 -0.0913  0.1365
26004W        W42078   1.802  12.342   3.357  0.3381  0.2396  0.1530
26005W        W42079  15.834  10.472   2.095  0.0268 -0.0735 -0.1975
26006W        W42080  15.592   0.785   0.547 -0.1777  0.2548 -0.1693
26007W        W42081  13.605  11.215  14.840 -0.3710  0.0546  0.2192
26008W        W42082  13.164  13.973  16.926  0.3382 -0.1324  0.1391
26009W        W42083   9.882   0.135   3.009  0.2028  0.1733  0.1650
26010W        W42084  11.647  14.226  11.751 -0.0958 -0.1652  0.1060
26011W        W42085   7.194   2.494   2.552 -0.0177 -0.0651 -0.1807
26012W        W42086   3.634   8.139  14.020 -0.0527 -0.2401  0.0982
26013W        W42087   4.155  14.448   5.447 -0.1075  0.2101 -0.1407
26014W        W42088   5.361   6.817   4.376  0.1060  0.1510  0.0717
26015W        W42089   1.604   1.889   1.085 -0.0612  0.0844 -0.0498
26016W        W42090   1.539  10.504   1.788  0.0192  0.2364  0.0156
26017W        W42091   6.740   0.267   3.780 -0.0594 -0.2445 -0.2676
26018W        W42092   4.709  14.241  16.566 -0.0266  0.4082  0.0046
26019W        W42093   9.732  15.213  13.901  0.0452 -0.1396 -0.1485
26020W        W42094   6.790  15.211   2.695 -0.0156 -0.1047  0.1380
26021W        W42095  12.520  15.319   3.580 -0.2247  0.1725  0.4247
26022W        W42096   1.643   9.424   6.050  0.1166  0.0495  0.0865
26023W        W42097  13.587   2.531   4.129  0.0512 -0.2776  0.0263
26024W        W42098  12.116   0.131   1.805  0.0327  0.0946 -0.0973
26025W        W42099   6.749  15.625  16.125 -0.0379  0.0738 -0.1239
26026W        W42100  14.338   3.476   0.520 -0.0046 -0.5225 -0.2243
26027W        W42101   1.902   2.006   3.809 -0.0950  0.0558  0.2557
26028W        W42102  11.179   4.908   1.721  0.0592  0.0234 -0.6746
26029W        W42103   9.523  17.521  15.845 -0.1326  0.1730 -0.2052
26030W        W42104   8.529   7.335   4.570 -0.1260 -0.0772 -0.1480
26031W        W42105  14.327   3.355  12.041  0.4195  0.0096  0.1113
26032W        W42106   5.704   8.338   6.432 -0.0089  0.0948  0.2120
26033W        W42107  14.291  11.567   2.991 -0.0008  0.2078 -0.1413
26034W        W42108   1.788  12.190  12.253  0.1465  0.3124 -0.0051
26035W        W42109  10.099  12.003  15.745  0.0876  0.2775 -0.0803
26036W        W42110   4.519   7.490  12.178 -0.0163 -0.1432 -0.0061
26037W        W42111  11.593   4.516  11.850 -0.0797 -0.0034  0.2039
26038W        W42112  12.854  15.331  12.713 -0.3013  0.1953 -0.1856
26039W        W42113  11.371  16.367   0.174 -0.1158  0.1452  0.2256
26040W        W42114   0.147  15.105  16.593  0.0917  0.3863 -0.1251
26041W        W42115  11.232   4.972  14.672  0.0939  0.1292 -0.2181
26042W        W42116   7.239  12.996   1.194 -0.0901 -0.2377 -0.1761
26043W        W42117   9.012   9.484   3.060 -0.1380  0.5328  0.4571
26044W        W42118   9.066   6.537  14.792  0.2261 -0.2102  0.4134
26045W        W42119  15.643   4.440   1.385  0.0150 -0.1576  0.2095
26046W        W42120   2.537   1.311  12.170  0.2221 -0.0013  0.0199
26047W        W42121   6.384  14.695   0.911 -0.2527  0.1075 -0.0801
26048W        W42122   3.778   9.712  15.371 -0.1539  0.1006 -0.1507
26049W        W42123  17.329  14.307   1.743  0.3729 -0.2782 -0.5021
26050W        W42124   7.668  16.781  15.369  0.1556  0.1075  0.0720
26051W        W42125   5.933  11.530   3.644  0.1102  0.2398 -0.0180
26052W        W42126  13.758   0.692   4.273  0.2316  0.0891 -0.0401
26053W        W42127   9.226   2.476  11.825 -0.1258 -0.4431  0.1684
26054W        W42128   0.729   2.784   5.823 -0.2568  0.0417  0.1493
26055W        W42129   9.276   9.038  14.087  0.0056  0.3430  0.4135
26056W        W42130   3.176  13.116  16.265  0.2071 -0.1259 -0.0775
26057W        W42131   7.678   8.531  11.110  0.2667 -0.0612  0.1103
26058W        W42132   0.878   9.069   4.255 -0.1248  0.1325 -0.0556
26059W        W42133   0.663  10.047  12.978  0.0636 -0.1286 -0.0928
26060W        W42134  10.855  14.559  14.252  0.0769  0.1170 -0.1564
26061W        W42135   8.189  14.329   1.873  0.2332  0.0690 -0.0575
26062W        W42136  12.163   8.617   2.544  0.0684  0.0461  0.1160
26063W        W42137  15.394   2.532  13.347  0.1674 -0.0435  0.0036
26064W        W42138   0.713   2.617  13.110 -0.3222 -0.1601  0.2537
26065W        W42139  10.452  10.488   5.416  0.1269  0.0088  0.2231
26066W        W42140   9.324   4.557   2.816 -0.0861  0.2983  0.4195
26067W        W42141  15.106   5.524   4.646 -0.1270 -0.2643 -0.0399
26068W        W42142  11.536   4.523   3.414 -0.1708 -0.1832 -0.0074
26069W        W42143   1.313   1.181   1.618  0.1999 -0.2742 -0.0157
26070W        W42144  17.081   6.164   0.827  0.0447 -0.0118  0.3964
26071W        W42145   0.671  15.223  13.669  0.1338 -0.0317 -0.0766
26072W        W42146   7.097  14.871   1.618  0.0117 -0.1076 -0.0683
26073W        W42147   8.958   8.111  15.269  0.0373  0.2250  0.1223
26074W        W42148   2.238   9.282   4.154  0.0725 -0.2219  0.1078
26075W        W42149  17.665   5.440   0.069 -0.4862  0.1746 -0.0829
26076W        W42150  17.737   5.657  13.314 -0.1149  0.0615  0.1628
26077W        W42151  12.165   7.050  15.323 -0.0409  0.2468  0.1405
26078W        W42152   7.866  15.505  12.925 -0.0403 -0.3239  0.1740
26079W        W42153   2.215   4.837   3.101  0.1115 -0.0018 -0.0043
26080W        W42154  11.903   5.668   4.555  0.3328  0.0822  0.2858
26081W        W42155  10.293  16.055   3.784 -0.1982 -0.1292  0.2247
26082W        W42156  17.730   0.790   2.502  0.0865 -0.2317 -0.0111
26083W        W42157  12.692   5.068  11.629  0.0350 -0.0997 -0.1942
26084W        W42158   2.570   6.712  15.190  0.0559  0.1195 -0.0189
26085W        W42159  14.626  11.315  16.457 -0.1361  0.1867  0.1275
26086W        W42160  10.671  16.875   0.161 -0.0312 -0.1260 -0.0212
26087W        W42161  14.350   0.828   5.056 -0.1584  0.0066  0.1356
26088W        W42162   6.002   5.419  15.874  0.2132 -0.0874 -0.1928
26089W        W42163  14.337  14.294  12.718  0.1909  0.1466 -0.1476
26090W        W42164  10.533   3.581  13.938 -0.1669  0.0429 -0.0926
26091W        W42165   3.560   9.778   1.060 -0.0248 -0.0938 -0.0938
26092W        W42166  17.604   6.647   5.208 -0.0090  0.0571 -0.1480
26093W        W42167  13.630  15.546   5.474 -0.0761 -0.2415  0.1184
26094W        W42168   6.702   0.916  13.760  0.1166 -0.2231 -0.2641
26095W        W42169  16.022   4.316   5.387  0.3503  0.2830 -0.0112
26096W        W42170   7.047   3.397  10.798 -0.1743  0.0526  0.0870
26097W        W42171  13.470  11.043   2.597  0.2196  0.0058  0.0369
26098W        W42172  10.399  17.228  16.924  0.0292  0.0200  0.0707
26099W        W42173  16.857  11.864   3.397  0.0996 -0.0079 -0.0676
26100W        W42174   3.297  12.013  12.201 -0.0828 -0.2515  0.1065
26101W        W42175  16.747  17.807  14.750  0.3428 -0.1165  0.0762
26102W        W42176  17.596   3.247  15.330 -0.0088  0.0903  0.2007
26103W        W42177   9.822  14.813  16.533  0.2501 -0.3301 -0.2089
26104W        W42178   4.788  17.391  14.830  0.0472  0.0132  0.3002
26105W        W42179  16.633   5.046   1.389  0.1661  0.0040  0.1617
26106W        W42180   3.815   6.138   3.108  0.0444  0.2960 -0.0683
26107W        W42181   7.682   9.421   4.817  0.0753  0.2972  0.2025
26108W        W42182  15.066   6.641   6.435  0.1794  0.3647 -0.4900
26109W        W42183  11.878   5.013   0.135  0.1023  0.1624 -0.1755
26110W        W42184   8.688   0.519  12.046 -0.2542  0.0815  0.0245
26111W        W42185  11.529   4.855  14.197 -0.2116  0.2169  0.1273
26112W        W42186  13.544   2.363   5.210 -0.1375  0.0250  0.2391
26113W        W42187  11.392   6.013  13.993  0.1387  0.0112 -0.1532
26114W        W42188  16.049   0.035   1.657  0.0146  0.1047  0.2197
26115W        W42189  16.539   2.396  10.896  0.0381  0.1926  0.4039
26116W        W42190   7.023   9.423   2.776  0.1924  0.0205 -0.1239
26117W        W42191   9.215  11.413  15.542  0.0226 -0.1340 -0.2224
26118W        W42192   1.481   2.731   2.080 -0.0198 -0.0976 -0.3172
26119W        W42193   5.311   7.967   4.738  0.1554  0.0096 -0.0152
26120W        W42194  15.962   9.746   1.339 -0.3667 -0.1212 -0.2451
26121W        W42195   7.827  10.485   0.149  0.0814  0.2874 -0.0512
26122W        W42196   8.511   9.978  13.153 -0.0767  0.1194  0.1670
26123W        W42197   3.447   3.265   3.608 -0.0660  0.0053 -0.1733
26124W        W42198  13.042  12.672   1.259 -0.0467  0.0854  0.2101
26125W        W42199  15.938  15.129  11.948  0.0508  0.0653  0.1282
26126W        W42200  17.032  11.043  14.817 -0.3041  0.1088  0.2298
26127W        W42201   0.481  17.326  14.085 -0.3636  0.0347  0.2818
26128W        W42202  14.533  17.514   5.413 -0.2174 -0.1340  0.0726
26129W        W42203   3.100   3.650  13.988 -0.2819  0.1322 -0.2583
26130W        W42204  11.824   7.583  13.368 -0.0605  0.1107  0.0641
26131W        W42205   9.966  11.498   0.101 -0.0810  0.0244  0.0734
26132W        W42206   3.580  13.602   5.240  0.2081  0.2667  0.3192
26133W        W42207   1.792   3.581   3.004  0.1100 -0.0971  0.1274
26134W        W42208  17.352  16.130   1.180 -0.1610 -0.1334  0.3401
26135W        W42209   8.349  11.022  16.528 -0.3607  0.0739 -0.1166
26136W        W42210   8.396  15.175   0.805 -0.2077  0.6004 -0.2857
26137W        W42211   4.870  15.023   1.751 -0.1780  0.1303 -0.3534
26138W        W42212  10.526  11.438   0.548 -0.1277  0.0463  0.1259
26139W        W42213   7.379  17.286  12.342 -0.0028 -0.1936  0.1682
26140W        W42214   8.115   4.475  15.257 -0.3135  0.0001  0.0540
26141W        W42215  12.264   5.180   1.946 -0.0114  0.1501 -0.1326
26142W        W42216  13.375  11.261   5.080 -0.1665 -0.0942 -0.4670
26143W        W42217   4.492  13.038   4.792 -0.1761 -0.2903  0.2825
26144W        W42218  16.780   4.299   2.226  0.2289  0.1540 -0.1353
26145W        W42219   1.535   0.774   5.122 -0.0853  0.3646 -0.1600
26146W        W42220  14.282   3.496   2.543  0.0956  0.0129  0.4929
26147W        W42221  15.464   9.642   2.236  0.0221  0.1609 -0.0160
26148W        W42222  14.556   9.773   2.452 -0.0156  0.0073 -0.0099
26149W        W42223  16.986   0.733   2.905  0.0803  0.0488  0.2174
26150W        W42224   2.864   8.311   6.638  0.0193 -0.0364 -0.0486
26151W        W42225   7.491  13.834  12.172 -0.1544 -0.3929  0.1428
26152W        W42226  11.613   4.688  15.774 -0.1246 -0.1947 -0.1175
26153W        W42227   4.491  12.991   2.805  0.1221 -0.3471 -0.1095
26154W        W42228   6.828   1.127  14.761  0.1983  0.1531  0.2122
26155W        W42229  12.779  17.507  15.562  0.0850  0.2594 -0.0324
26156W        W42230  14.588  13.337  15.077 -0.0931 -0.0055 -0.1796
26157W        W42231  14.658   9.263   0.698  0.0431  0.1841 -0.0245
26158W        W42232  10.074  17.380  15.938 -0.0980  0.0224  0.2696
26159W        W42233   7.972  14.609   1.483  0.1051  0.1374  0.0756
26160W        W42234   5.307   4.472  12.005 -0.2759  0.1885 -0.2825
26161W        W42235  10.990  17.563  15.154  0.0047 -0.0940 -0.0631
26162W        W42236   9.285   4.680  16.440 -0.0043 -0.1683 -0.2094
26163W        W42237   5.874   4.492   2.617 -0.1937  0.3540  0.0106
26164W        W42238   1.421  11.829  15.580  0.0272 -0.1633 -0.1810
26165W        W42239   3.142   0.126  11.717  0.2134 -0.0072 -0.0015
26166W        W42240  17.403   5.884   4.609 -0.0149 -0.1316  0.0107
26167W        W42241  13.157   6.066  11.922  0.1038  0.1048 -0.0056
26168W        W42242  14.106   6.725  14.045  0.0959 -0.0398  0.1618
26169W        W42243   9.880   6.576   3.847  0.2652  0.0998 -0.0522
26170W        W42244   8.388   7.392  15.607 -0.0007  0.0060 -0.0289
26171W        W42245   2.812   2.359   5.612  0.1150 -0.0802 -0.1063
26172W        W42246   4.569   5.370   3.198  0.0752  0.0062 -0.0211
26173W        W42247   7.082   5.413   4.381 -0.0697  0.2523  0.1844
26174W        W42248   6.837  14.456   0.736 -0.1740  0.0532  0.3524
26175W        W42249   9.363  14.595  15.374 -0.2127  0.3475 -0.0556
26176W        W42250  11.463  10.135   4.463  0.2703 -0.2440 -0.0460
26177W        W42251  10.175   8.087  16.232  0.1563  0.2450  0.1356
26178W        W42252  14.892  11.232  13.721  0.0714 -0.2547  0.1913
26179W        W42253  15.605   5.692  16.628 -0.0856 -0.1114  0.0099
26180W        W42254   1.109  17.774   5.565 -0.0707 -0.0825 -0.1770
26181W        W42255   2.172   5.438  15.362 -0.2366 -0.0802  0.1055
26182W        W42256   1.093   0.739   1.858 -0.3317 -0.3688 -0.2033
26183W        W42257  15.373  15.056   3.727  0.3413  0.1547 -0.2102
26184W        W42258   2.208   6.627   4.559 -0.2085  0.1904 -0.2021
26185W        W42259   1.441   3.177  13.342  0.0565 -0.0269 -0.0367
26186W        W42260   8.280   5.143   4.229  0.0810  0.0134 -0.0040
26187W        W42261   4.657   5.806   2.302 -0.2862  0.3235  0.0479
26188W        W42262   7.676  15.405   1.200  0.1188  0.0582  0.3269
26189W        W42263   7.634  17.807   5.723  0.0731 -0.0619 -0.0321
26190W        W42264  12.450  11.855   0.984  0.0318  0.0610  0.0772
26191W        W42265  11.008   0.322  14.895 -0.1400  0.2348  0.0725
26192W        W42266  10.005  10.236   5.394 -0.0849 -0.0544  0.1288
26193W        W42267   5.596  17.449   6.154 -0.0518 -0.0812 -0.2478
26194W        W42268   6.527   0.845   1.700  0.6112 -0.2347  0.3161
26195W        W42269  10.699   1.925   4.048 -0.0514  0.1008  0.0452
26196W        W42270   8.583   0.987   2.693 -0.0376  0.2200  0.0942
26197W        W42271   6.426  14.074  13.466 -0.1507 -0.1773 -0.3072
26198W        W42272  16.977  16.414  14.626  0.2140 -0.3789  0.0066
26199W        W42273   1.381  13.340   1.083  0.1924  0.0433 -0.2223
26200W        W42274  12.004   0.955   1.658  0.1173 -0.4558 -0.1034
26201W        W42275  11.948  15.816   2.572  0.1314 -0.2120 -0.0475
26202W        W42276   2.024   3.932   2.670  0.0047 -0.3176  0.0366
26203W        W42277  14.915  17.584   0.884 -0.1539 -0.3419 -0.1550
26204W        W42278  16.562   5.647   5.302 -0.0314 -0.1140 -0.0656
26205W        W42279   0.886   2.452   1.622 -0.0476 -0.1950  0.0750
26206W        W42280  13.387  10.209   5.036 -0.1380  0.3894 -0.0754
26207W        W42281  11.389   1.640  15.035  0.3798  0.0736 -0.0415
26208W        W42282  10.055  15.626  16.240  0.3007 -0.0296  0.3636
26209W        W42283  13.540   0.229  16.065 -0.0739  0.1941 -0.0239
26210W        W42284  17.014  16.262   2.062 -0.2791  0.0041 -0.1245
26211W        W42285   2.356   5.083   2.228  0.2922 -0.0375 -0.1139
26212W        W42286   7.458   0.129  14.809 -0.0721 -0.2138 -0.2363
26213W        W42287   5.984  11.183   5.662  0.3284 -0.2606  0.3817
26214W        W42288   4.550  16.281   1.153 -0.3695  0.0968 -0.0943
26215W        W42289   5.167  12.484  16.934 -0.3344 -0.0807  0.1784
26216W        W42290  12.138   1.323  15.398 -0.1635  0.0763  0.0149
26217W        W42291  15.507  16.153  15.323  0.1267  0.1219  0.1287
26218W        W42292  16.322   2.946  16.456  0.0478 -0.0128 -0.1417
26219W        W42293   7.776   9.412   4.274  0.0470 -0.1311 -0.2602
26220W        W42294  14.561  15.400   4.029 -0.1058 -0.2512 -0.1668
26221W        W42295  14.773   7.817   0.608  0.0270 -0.0863  0.2276
26222W        W42296   3.332   8.318   4.638  0.0141 -0.0445 -0.4666
26223W        W42297  10.047  11.677   5.803  0.2177 -0.1050 -0.2441
26224W        W42298   8.112  16.034   0.370  0.1501 -0.0537  0.1975
26225W        W42299  11.736   7.287  11.958  0.4909 -0.1024  0.0237
26226W        W42300  10.260   1.183   1.560  0.0087  0.0024  0.3671
26227W        W42301   1.831   6.156   4.983 -0.3056 -0.2818 -0.0212
26228W        W42302   8.588  14.912   3.236 -0.1652  0.1106 -0.0079
26229W        W42303   1.388  13.653  16.461  0.2342 -0.0088 -0.2757
26230W        W42304   0.183  14.449   1.207  0.0481 -0.1105  0.0829
26231W        W42305  13.847   1.926  14.687 -0.1627 -0.0674 -0.0948
26232W        W42306   5.001   5.698  12.864  0.0096  0.3005 -0.1781
26233W        W42307   9.710  17.779   1.283 -0.0166 -0.2031  0.2946
26234W        W42308   6.642   7.758   5.561 -0.0148 -0.1351  0.0867
26235W        W42309  15.227   2.027   2.876  0.1007  0.1457  0.0142
26236W        W42310   4.310   4.882  16.787  0.3290 -0.0064 -0.1528
26237W        W42311  15.123  11.281  15.385 -0.0541 -0.0792  0.2486
26238W        W42312   9.688   4.449  14.497  0.2019  0.0916  0.4508
26239W        W42313  10.109   3.170   5.592 -0.3411 -0.3139 -0.1889
26240W        W42314   2.723  17.320   1.358  0.1001  0.0316  0.0639
26241W        W42315  10.994   1.865   5.791  0.2240  0.1446  0.2616
26242W        W42316   9.851   4.145   4.406 -0.0382 -0.0179  0.0197
26243W        W42317  11.660  10.412  14.655  0.0560  0.0402 -0.2753
26244W        W42318   9.296   8.343  11.894 -0.1691  0.1100  0.0751
26245W        W42319   5.078   8.361   3.374 -0.2515 -0.1139 -0.2068
26246W        W42320   6.908   9.434   0.569 -0.0873  0.1813 -0.0991
26247W        W42321   5.070  10.962   0.847  0.0262 -0.0867  0.0152
26248W        W42322   7.092  10.884   5.765  0.0504  0.0892  0.1697
26249W        W42323  12.367   1.361   4.785  0.0216  0.1388 -0.1654
26250W        W42324  13.136  14.141   2.074  0.2094  0.1620 -0.2548
26251W        W42325  16.153   2.243   0.207 -0.1913 -0.0109 -0.2419
26252W        W42326   5.263   4.361  13.508  0.0406 -0.0967 -0.0706
26253W        W42327   2.528  15.688  12.335  0.3712 -0.0412  0.2147
26254W        W42328  17.699   5.988   1.098  0.0855  0.1944 -0.2901
26255W        W42329  16.197  10.785   5.666 -0.0552 -0.0728 -0.2761
26256W        W42330  12.682   5.138  16.471 -0.3058 -0.1984  0.0420
26257W        W42331  12.741  16.317  12.376  0.1218 -0.0088 -0.0332
26258W        W42332   8.592   0.830   0.005  0.3517 -0.2178 -0.0474
26259W        W42333   4.511  12.088  16.231  0.0772  0.1038 -0.0156
26260W        W42334  13.792  14.196  13.616  0.0260  0.2486  0.1539
26261W        W42335  15.007   8.065   4.667  0.1851 -0.1023 -0.0528
26262W        W42336  15.085   5.127  14.171  0.0730  0.0769  0.0004
26263W        W42337   2.622  10.485  15.273 -0.0480 -0.1685 -0.0900
26264W        W42338   1.211   4.487  13.534  0.4283 -0.1371  0.1272
26265W        W42339  15.442  13.551   2.409  0.1435 -0.1534 -0.2323
26266W        W42340  12.671   7.052  13.892  0.3788  0.0781 -0.1625
26267W        W42341   5.430   4.173   0.703 -0.0385 -0.1561  0.1067
26268W        W42342  13.753  12.501   1.702 -0.2276  0.1692  0.0249
26269W        W42343   2.287   3.603   4.488 -0.0215 -0.0979  0.1711
26270W        W42344   2.697  15.687  11.600 -0.2385 -0.2588 -0.0822
26271W        W42345   6.417   4.476  16.257 -0.0815 -0.1998  0.0892
26272W        W42346  10.184  16.683  12.884 -0.4326  0.2446  0.0059
26273W        W42347   4.883  14.189   0.944 -0.1587 -0.1137  0.1383
26274W        W42348   8.644  12.393   3.329 -0.2517 -0.1799 -0.2283
26275W        W42349   7.580   2.505   5.480 -0.2624 -0.2144  0.0707
26276W        W42350   9.502  15.356   4.903 -0.0167  0.0309  0.6188
26277W        W42351  13.474  13.061   0.111  0.2401  0.1793  0.0600
26278W        W42352  14.863  10.672   0.557  0.1168  0.1095 -0.2323
26279W        W42353  13.752   4.721   2.391  0.0544 -0.1559 -0.0264
26280W        W42354  11.181  13.155   2.130 -0.0832 -0.2675 -0.0809
26281W        W42355  14.075   0.313  16.774 -0.1148  0.0219  0.1231
26282W        W42356  12.817  10.571   6.192 -0.0679  0.0066 -0.3466
26283W        W42357   5.014   2.820   4.377 -0.0805  0.0482 -0.0445
26284W        W42358   6.500  15.086  14.960  0.0066 -0.0250 -0.2080
26285W        W42359  10.037   4.784   0.467  0.3263  0.0008 -0.0959
26286W        W42360   2.536  11.164   4.905  0.0772 -0.0499 -0.1338
26287W        W42361   6.222   9.368   3.983 -0.3028 -0.0713  0.1484
26288W        W42362  17.009  11.429   3.137  0.2107 -0.0226 -0.0723
26289W        W42363   1.500  16.258  16.032  0.1421 -0.2749 -0.0247
26290W        W42364  15.809  15.250   3.441  0.1257 -0.0926  0.0217
26291W        W42365   1.767  15.587   3.730 -0.1862  0.1796 -0.0664
26292W        W42366   1.719   7.606  16.823  0.0479  0.1440 -0.2472
26293W        W42367  15.056   8.331   4.185 -0.0120  0.1102 -0.1378
26294W        W42368   0.980   1.362  15.406 -0.1770 -0.3664  0.0262
26295W        W42369   7.005  11.675   1.942 -0.0485  0.3286 -0.2868
26296W        W42370  13.707  14.153   0.598  0.1285  0.0259  0.2035
26297W        W42371  13.259  17.762  12.381  0.0931 -0.2176  0.0300
26298W        W42372   7.003   2.669  11.842 -0.0579 -0.2152 -0.1805
26299W        W42373   7.523   7.672   2.582  0.2488  0.1043 -0.1274
26300W        W42374  11.941  15.782  13.310  0.1385  0.1970  0.0719
26301W        W42375   8.903   5.643   4.901 -0.4834 -0.0482 -0.0188
26302W        W42376   9.216   7.593  11.577  0.0140  0.1800  0.1899
26303W        W42377  15.061   3.524  11.482  0.0986 -0.2166  0.0971
26304W        W42378   9.825   8.997   1.574 -0.2898  0.0659 -0.0044
26305W        W42379   8.409   7.472  14.815 -0.0506  0.1343 -0.0626
26306W        W42380  10.164  11.207  13.574  0.1740  0.0447 -0.1291
26307W        W42381   5.627   9.105   4.280  0.2118  0.0613  0.1229
26308W        W42382   2.721   9.819   1.385 -0.3319  0.2481  0.0320
26309W        W42383  16.095  16.776   3.966  0.0844  0.1185  0.1478
26310W        W42384  17.145   8.894  15.876 -0.0559 -0.2376  0.1483
26311W        W42385  12.867   3.953  15.285 -0.0152  0.0418 -0.0058
26312W        W42386   1.426   8.154  15.938 -0.0159  0.0381 -0.0198
26313W        W42387   4.161  11.454  13.457 -0.2516  0.1221  0.0691
26314W        W42388   3.842  14.117   1.243  0.1276  0.2897 -0.0194
26315W        W42389   2.957  17.488   4.903  0.2353  0.0450 -0.0383
26316W        W42390   6.769   2.726  13.629  0.0122  0.1757 -0.1228
26317W        W42391   5.153   9.481   3.156 -0.2565 -0.0290 -0.0406
26318W        W42392   8.864   1.778  12.908  0.3169  0.0630 -0.3675
26319W        W42393   5.921   5.111  12.465  0.2242  0.2636  0.1157
26320W        W42394  12.692  16.488  13.131 -0.0352  0.0594 -0.1653
26321W        W42395   3.570   0.142  14.201  0.0251 -0.1768 -0.0082
26322W        W42396  17.138   7.708  12.042  0.0520  0.0388  0.0491
26323W        W42397   5.444  11.062   1.218 -0.0932  0.1168 -0.1782
26324W        W42398  12.472   2.514  14.791 -0.1008  0.0183  0.0113
26325W        W42399   0.123  10.848   3.194  0.2765 -0.1644 -0.1212
26326W        W42400  11.997   0.893   5.655 -0.1323  0.2388  0.0200
26327W        W42401  12.602  10.172  11.786  0.0531 -0.0309  0.3217
26328W        W42402  10.867   3.877  12.766 -0.1994  0.3856 -0.2141
26329W        W42403  12.185  16.214   2.294  0.2599  0.2246  0.2103
26330W        W42404  15.470   4.218  15.366 -0.1681  0.1500  0.0013
26331W        W42405   4.426   3.056  14.699 -0.3161 -0.2483 -0.3819
26332W        W42406  15.977   6.611   0.166 -0.0973  0.1304  0.0799
26333W        W42407   6.979  17.596   2.791 -0.0569  0.1619  0.0830
26334W        W42408  15.809  15.116  12.684 -0.0096 -0.0796 -0.0188
26335W        W42409   0.772   0.654   5.946 -0.0202 -0.1401  0.0203
26336W        W42410   1.719  14.737   4.489  0.3383 -0.0890 -0.0499
26337W        W42411  10.145  15.049  15.085 -0.0717  0.1181  0.0560
26338W        W42412  16.213   6.906  16.624  0.1198 -0.1887  0.0403
26339W        W42413   3.460  16.553  16.765  0.2033 -0.0066 -0.0007
26340W        W42414  17.240   1.655   3.931  0.0309  0.0286  0.3005
26341W        W42415   4.970  13.772  14.333  0.0185 -0.2171  0.0358
26342W        W42416  12.818  13.802   0.261 -0.1485 -0.0479  0.1606
26343W        W42417   5.751   8.671  11.815  0.0409 -0.2748  0.0637
26344W        W42418   9.295   6.528   2.799  0.4618  0.0567 -0.1198
26345W        W42419  12.509  14.775   1.409 -0.2710  0.1324 -0.1158
26346W        W42420   6.494   8.999   3.303  0.4158 -0.0468 -0.1343
26347W        W42421  14.150  11.064   3.636 -0.3807 -0.2950  0.3332
26348W        W42422  11.961   0.340  13.814  0.0762 -0.4094 -0.0314
26349W        W42423   8.645  16.844   0.812  0.0801  0.2346  0.0660
26350W        W42424   1.826   3.568   5.777 -0.3347  0.2867  0.0514
26351W        W42425   7.589   5.631  13.257 -0.2524 -0.1837  0.2575
26352W        W42426   7.766   8.610  14.426  0.2773  0.1976  0.0710
26353W        W42427   5.249  16.527  15.393  0.1434  0.2389  0.3910
26354W        W42428   8.573   8.577  10.672  0.2403 -0.2831  0.0527
26355W        W42429  10.086  13.340   2.692  0.0303  0.0415  0.3334
26356W        W42430  12.400  17.348   5.611 -0.1520 -0.1955 -0.0761
26357W        W42431  13.140   8.048   5.050 -0.2840  0.0385  0.0616
26358W        W42432  13.243   3.188   5.498 -0.1554 -0.0227  0.1698
26359W        W42433  16.738  11.591  12.060 -0.1963  0.2246 -0.1543
26360W        W42434   4.222  15.934   0.112  0.0707 -0.1037  0.0516
26361W        W42435  10.327   9.266  14.230 -0.2411 -0.0563  0.2435
26362W        W42436   4.361  11.215  16.230 -0.1523 -0.1224 -0.2374
26363W        W42437   9.323   4.436   4.394  0.0049  0.0558  0.0930
26364W        W42438  15.806   7.262  12.670  0.0686 -0.2215 -0.0278
26365W        W42439   0.351   0.643  16.354 -0.2576  0.1693  0.0867
26366W        W42440   5.355   0.405  13.754 -0.2359 -0.2437  0.4064
26367W        W42441   2.770   4.771   4.684  0.3192 -0.5203 -0.0492
26368W        W42442  16.177  11.835   3.847 -0.1183 -0.1328 -0.0401
26369W        W42443   9.409   4.823   6.031 -0.1120  0.0396 -0.1203
26370W        W42444  13.571  14.491  14.939 -0.0379 -0.1901 -0.0834
26371W        W42445   9.083  15.949   4.527  0.3519  0.1808 -0.1246
26372W        W42446  14.188   7.589   1.269  0.1755 -0.0920  0.0623
26373W        W42447   6.553   8.279  12.485 -0.0280  0.1347 -0.2996
26374W        W42448   2.123  14.501   1.231  0.1678  0.1617  0.1580
26375W        W42449   8.982  14.656  12.226  0.2478  0.1920 -0.2863
26376W        W42450   0.903  11.593  11.584 -0.2735  0.1565 -0.0131
26377W        W42451   8.654  17.638   2.305 -0.0164 -0.1289 -0.1606
26378W        W42452  16.518   7.810   0.765 -0.0341 -0.2119  0.0991
26379W        W42453   8.927   2.626   5.523 -0.0505 -0.0105  0.1535
26380W        W42454   0.304   0.899  14.028 -0.0436 -0.0362  0.3843
26381W        W42455  15.064   4.108   0.840  0.0520 -0.2035 -0.0544
26382W        W42456   2.267  10.271   5.812  0.0035  0.0005 -0.3410
26383W        W42457  10.029  17.632   3.334  0.1414 -0.2434  0.2006
26384W        W42458   6.393   7.198   4.031 -0.0676  0.0659 -0.0934
26385W        W42459   5.074   7.288  16.937  0.0436 -0.0393 -0.0669
26386W        W42460   3.916   3.853   2.355 -0.0173 -0.2516 -0.1047
26387W        W42461   3.059   5.828  14.425 -0.1215 -0.0389  0.1360
26388W        W42462  13.180   9.017   3.958 -0.2851 -0.2744 -0.0997
26389W        W42463  11.345   4.586  12.749 -0.2209 -0.1126 -0.0145
26390W        W42464   8.996  14.950  15.296 -0.0342  0.1635  0.0429
26391W        W42465  14.883   5.076   4.705  0.1788 -0.2085  0.3281
26392W        W42466  13.794   9.663  11.869 -0.1047  0.1665 -0.0170
26393W        W42467  12.444  13.639   0.756  0.0585 -0.0208 -0.1665
26394W        W42468   0.361  13.778   0.086 -0.1889 -0.3205  0.0011
26395W        W42469   7.295  15.338   3.617 -0.1460  0.1111 -0.1355
26396W        W42470  10.797  17.321   0.403 -0.0930 -0.0164  0.0766
26397W        W42471   4.514   2.921   1.122  0.2865  0.2227  0.0495
26398W        W42472   6.729  15.298   3.764  0.1353  0.1175  0.1848
26399W        W42473  13.372   6.550  12.540  0.0050  0.0961 -0.0499
26400W        W42474  17.608  10.144  15.504  0.2196  0.1175  0.2630
26401W        W42475   6.890   2.219  13.599  0.1513 -0.1271  0.0157
26402W        W42476  16.151   7.115   2.699 -0.1563 -0.1920  0.1630
26403W        W42477  10.457  13.493   5.301 -0.1554  0.1248  0.0692
26404W        W42478  13.058   9.845   5.005  0.2079  0.0994  0.2335
26405W        W42479   1.700  15.631   1.601  0.0008  0.0369 -0.0225
26406W        W42480  15.892   8.206   3.541  0.0727  0.0191 -0.5026
26407W        W42481  15.665  10.311   0.763  0.3083  0.0137  0.0056
26408W        W42482   4.532   0.487   5.346 -0.1380 -0.0771 -0.1249
26409W        W42483   9.982   4.357  12.922  0.1025  0.1370  0.0915
26410W        W42484  11.010  17.590   4.536 -0.0297  0.1025 -0.2176
26411W        W42485   7.691  10.845  12.792 -0.0522  0.1214 -0.0815
26412W        W42486  10.176   2.004  14.306 -0.1276  0.2170  0.1039
26413W        W42487  15.355   9.555   4.841  0.0660  0.2055  0.3228
26414W        W42488  16.713   9.573   2.534 -0.0125  0.0901 -0.1791
26415W        W42489   6.371  17.778  12.702 -0.0720  0.1682  0.1950
26416W        W42490   7.480  13.185   3.537  0.0937 -0.0352 -0.0996
26417W        W42491   9.974   4.877  12.670 -0.1958  0.0974  0.0123
26418W        W42492   6.234  10.783   0.779 -0.1403 -0.2002  0.1838
26419W        W42493   1.354  16.868   2.588  0.1661  0.3665  0.0664
26420W        W42494   4.706  11.204  12.203  0.1897 -0.1670  0.0868
26421W        W42495   7.269  15.455  12.110  0.2333  0.0931  0.4906
26422W        W42496   0.936   1.356  11.753  0.1360 -0.1545  0.2848
26423W        W42497   4.494  15.643  16.366 -0.1503  0.2214  0.0445
26424W        W42498   9.072  15.323   2.274 -0.1601  0.1671  0.2442
26425W        W42499  13.528   4.264   1.938  0.0174 -0.1954  0.1426
26426W        W42500  17.031   9.567  13.421  0.1792  0.2577 -0.0241
26427W        W42501   8.817   6.071   4.614  0.2620  0.0619  0.1722
26428W        W42502  10.138  16.289   5.464  0.4301 -0.2073  0.1119
26429W        W42503  12.756  14.975   2.414 -0.2230  0.2752  0.1756
26430W        W42504  11.436   4.756   0.177  0.1313  0.1014 -0.0433
26431W        W42505   3.604  16.756  16.089  0.0610 -0.1525 -0.0511
26432W        W42506  17.228   0.003   4.056 -0.1403  0.1555  0.1109
26433W        W42507  16.338  12.584  15.050  0.1284  0.0655 -0.1053
26434W        W42508  11.637   4.491   5.426  0.1007  0.0638 -0.0411
26435W        W42509  11.331  12.990  15.389  0.1723  0.1565 -0.0192
26436W        W42510   3.419  11.619   5.491  0.2409 -0.1471 -0.2444
26437W        W42511  11.489  16.724  13.320 -0.0376  0.0161  0.1926
26438W        W42512   8.504   0.427   1.125  0.2262 -0.2772  0.1160
26439W        W42513  12.485  16.404   5.388 -0.2096  0.0278  0.2606
26440W        W42514   1.980   1.714   3.419  0.1636 -0.1123  0.2145
26441W        W42515   9.247   4.815  14.581 -0.1548  0.3181 -0.1439
26442W        W42516   3.823  14.539   2.778 -0.2979  0.1213  0.1746
26443W        W42517   5.525  12.925  13.820  0.0050 -0.0207 -0.2075
26444W        W42518   8.789   1.514  13.677 -0.1481  0.1288  0.0752
26445W        W42519  10.130   0.439  13.368 -0.2603 -0.2474  0.0878
26446W        W42520   5.556   4.013  13.777 -0.0825  0.0058  0.1759
26447W        W42521   8.178  15.159  13.139 -0.0549  0.0766 -0.1467
26448W        W42522  13.914  12.264   4.245 -0.0679  0.2448 -0.2194
26449W        W42523   4.419   1.425  16.423 -0.0330  0.0885 -0.2395
26450W        W42524  16.789  14.730  15.928 -0.2754  0.2676 -0.1991
26451W        W42525  17.278  17.619  16.081 -0.4128  0.0888  0.2015
26452W        W42526  13.186  16.872   5.814 -0.0771 -0.4245  0.0692
26453W        W42527  15.792  14.549   1.781 -0.1833 -0.2067  0.2847
26454W        W42528   0.177   1.064   2.887 -0.3590 -0.0042  0.1142
26455W        W42529   2.777  13.210   5.272  0.1314  0.0869  0.0956
26456W        W42530  17.375  10.677   1.911  0.0366 -0.1448 -0.1896
26457W        W42531   0.633  15.568   2.201  0.1492 -0.1286 -0.2665
26458W        W42532  15.345   0.351   5.235  0.0641 -0.1010  0.1171
26459W        W42533  13.656   0.563  14.083  0.1387 -0.0032  0.0588
26460W        W42534  16.840   3.807  16.724  0.2722 -0.0524 -0.1275
26461W        W42535  11.933  16.715   2.572 -0.0329  0.2491 -0.0423
26462W        W42536   9.591  11.716  13.293 -0.3545  0.2676  0.0296
26463W        W42537  14.533  16.278   0.213  0.0304  0.2282 -0.0240
26464W        W42538   6.606  11.177  14.296  0.0514  0.0953 -0.2007
26465W        W42539   3.395   5.279   5.497 -0.1047  0.0628 -0.2172
26466W        W42540  12.937   5.051   1.397  0.2513 -0.0705 -0.1892
26467W        W42541   5.131  11.588  14.897  0.0288  0.0866  0.0566
26468W        W42542  17.209   0.176  14.631  0.0107  0.0633  0.1494
26469W        W42543   2.882  13.082  14.901  0.0130 -0.0643  0.1424
26470W        W42544  13.511   0.081  14.972  0.1134  0.0142  0.0757
26471W        W42545   6.200  15.138   4.966  0.2458 -0.3469 -0.1323
26472W        W42546   8.023  14.632  15.010  0.4951 -0.1778  0.1027
26473W        W42547  11.473  13.905  16.334 -0.0529  0.0154 -0.1454
26474W        W42548   4.552   9.166   3.043  0.1483 -0.4278 -0.1196
26475W        W42549   4.880   2.357   4.527  0.1619 -0.4156  0.1840
26476W        W42550   0.264  14.273  13.993 -0.0892 -0.1523  0.3380
26477W        W42551   7.083   0.770  16.102 -0.1037  0.0386 -0.3851
26478W        W42552   7.273  11.343   5.315  0.0366 -0.1373  0.0529
26479W        W42553   9.216   3.823   3.545  0.1921 -0.0550 -0.1642
26480W        W42554   8.565   4.102  11.363 -0.2799  0.1543  0.2261
26481W        W42555   0.229   2.850  14.548  0.1162 -0.1626  0.0659
26482W        W42556  15.456   0.627  14.869 -0.3365 -0.1365 -0.1601
26483W        W42557   3.010  11.572  11.995 -0.0152  0.2933  0.1409
26484W        W42558  12.178   6.099  12.106  0.0524  0.2393 -0.0140
26485W        W42559  13.199  11.877  15.650 -0.3890  0.0504  0.2476
26486W        W42560  16.240  17.443  10.957  0.1935 -0.3426 -0.1672
26487W        W42561   8.587  15.289   4.730  0.0552  0.1573 -0.1964
26488W        W42562  10.366   6.137  16.190 -0.2136 -0.0850 -0.1772
26489W        W42563  17.608  13.822  13.297  0.4069 -0.2669  0.0399
26490W        W42564   2.277   7.073   5.917 -0.0295  0.0655 -0.0441
26491W        W42565   0.716   3.721   4.262 -0.4419  0.1839  0.1322
26492W        W42566   5.239  14.253   1.513  0.4381 -0.0072 -0.1863
26493W        W42567   5.944   0.603  13.334  0.0350  0.0658  0.1471
26494W        W42568   1.582   7.525  13.417  0.0136  0.2017  0.0536
26495W        W42569  14.418   3.513   3.079  0.0018 -0.2083  0.0750
26496W        W42570  17.092   5.879   3.679 -0.1273 -0.2546 -0.2209
26497W        W42571  14.245   6.617   0.373 -0.0291  0.0330 -0.0493
26498W        W42572  11.090   1.495  13.636  0.2109 -0.2081 -0.2564
26499W        W42573   1.160   7.974   1.161  0.2837  0.0874 -0.2879
26500W        W42574  11.404   5.618  15.869  0.1012 -0.2074 -0.0638
26501W        W42575  15.926   0.281   4.698  0.1073  0.0021  0.0404
26502W        W42576  14.126  10.440  11.197  0.0805  0.0607  0.0865
26503W        W42577   4.267  16.263  15.127 -0.2384 -0.3251 -0.0821
26504W        W42578   7.967   0.466  13.252  0.1762  0.0562 -0.3399
26505W        W42579  11.698   5.607  16.661 -0.0572 -0.0571  0.3482
26506W        W42580   6.219  15.754  15.692 -0.2127  0.1457  0.2153
26507W        W42581   4.893  13.212   5.756  0.1300 -0.0745 -0.1256
26508W        W42582   0.708  11.041  15.310 -0.0733 -0.3657  0.2107
26509W        W42583   0.057  15.188  15.223 -0.1758  0.1440  0.1467
26510W        W42584   6.667   5.743   1.543 -0.1769  0.1583  0.1908
26511W        W42585  13.150   7.376  12.248  0.1175  0.0088  0.1199
26512W        W42586  13.513  11.782   3.377  0.4250  0.2122 -0.0102
26513W        W42587   4.373   3.759   1.924  0.1411  0.0393  0.2306
26514W        W42588   9.246  10.113   4.928  0.2713  0.0053 -0.1309
26515W        W42589   2.604  16.338  16.891 -0.2300  0.0968 -0.1092
26516W        W42590  10.913   1.763  11.742  0.2506  0.1264  0.1450
26517W        W42591   4.386   7.965  15.442  0.1693 -0.0004  0.0201
26518W        W42592   3.796   2.765   3.129 -0.2362 -0.1582 -0.3248
26519W        W42593  11.082   9.998  12.530 -0.0466  0.0873  0.0095
26520W        W42594   1.019  10.315  16.497 -0.1834 -0.0156 -0.2018
26521W        W42595   9.882   8.532   0.404  0.4407 -0.2510 -0.3470
26522W        W42596  12.959   9.262   5.843 -0.0131 -0.0807 -0.1579
26523W        W42597   5.845   1.892   5.298 -0.4419 -0.4057  0.0946
26524W        W42598   9.423  11.624   4.764 -0.0626 -0.1015  0.0476
26525W        W42599  17.781  13.060   1.112  0.1012 -0.2881  0.2219
26526W        W42600  15.072  14.671  14.396  0.0100 -0.1152  0.1806
26527W        W42601   4.805  13.492  13.873 -0.0041 -0.1522 -0.0065
26528W        W42602   3.533  10.012   0.583  0.0363  0.2288  0.0557
26529W        W42603  11.577  12.182   0.118  0.0597  0.1473 -0.0892
26530W        W42604  14.223   9.382  14.106  0.0566  0.1805  0.2408
26531W        W42605  10.953  15.106  16.155  0.0950 -0.1823  0.4285
26532W        W42606   7.528  14.615   2.322 -0.1549 -0.1634  0.0019
26533W        W42607  16.744   7.697   3.542  0.2258 -0.1509 -0.0521
26534W        W42608   2.007   7.279  15.933 -0.1958  0.0559 -0.0671
26535W        W42609   5.581  15.265   0.405 -0.3496 -0.2772 -0.0296
26536W        W42610   5.117   5.288   1.439 -0.1459 -0.0892 -0.0077
26537W        W42611  15.529   7.204   5.455  0.0616 -0.1965 -0.2131
26538W        W42612   6.662  17.180   3.030 -0.1017 -0.2113 -0.2281
26539W        W42613  11.524   0.569  13.571 -0.0041  0.3412  0.0036
26540W        W42614   5.924   8.238  11.615 -0.2748 -0.1464 -0.1638
26541W        W42615   3.563   9.644  16.078  0.2475 -0.3149 -0.1900
26542W        W42616  15.338   7.079  12.678  0.3127 -0.0751  0.1265
26543W        W42617   7.872   4.382  14.449 -0.1615  0.5460 -0.1558
26544W        W42618  17.256   6.024  14.337  0.0801 -0.0584 -0.0131
26545W        W42619  10.033   5.414   1.821 -0.0036 -0.1192  0.0929
26546W        W42620  14.892   4.706   0.098  0.5053  0.3906  0.0365
26547W        W42621   6.405  15.991  13.491 -0.0545 -0.0676 -0.1098
26548W        W42622  11.957   5.643   2.282  0.2437 -0.1576  0.0547
26549W        W42623   8.438   3.822  13.905 -0.0476  0.0388 -0.2161
26550W        W42624  12.433   8.418  14.490  0.2094  0.0011  0.0610
26551W        W42625   5.045   9.896   4.610 -0.2881 -0.0296 -0.0866
26552W        W42626   9.078   8.729   1.493  0.0023 -0.0993  0.2730
26553W        W42627  10.344  12.701  11.952 -0.1207 -0.1607 -0.1407
26554W        W42628  13.608   1.505   4.021 -0.0108  0.0998  0.0394
26555W        W42629   5.389   1.976   5.436 -0.1463  0.3505  0.2111
26556W        W42630   6.412   8.738  15.138  0.1863  0.1584 -0.0171
26557W        W42631  17.345  13.066  16.137  0.1473 -0.0015 -0.1407
26558W        W42632   6.536   9.324   6.563  0.1454  0.3843 -0.0238
26559W        W42633  10.964   4.854   2.682  0.0262  0.1557 -0.0467
26560W        W42634  11.450  16.544   2.735 -0.1833  0.2125 -0.0222
26561W        W42635  13.008  15.339   0.109  0.1009 -0.0775 -0.0145
26562W        W42636  16.330   7.045   0.662  0.2583  0.0530 -0.1477
26563W        W42637   1.182   2.042   6.135 -0.0784  0.0108 -0.1451
26564W        W42638   6.504   1.871   2.734 -0.0046 -0.0973 -0.0230
26565W        W42639   3.409   7.678  14.951 -0.1976  0.0178 -0.0035
26566W        W42640   5.284  17.783  15.685 -0.1921  0.1665  0.0568
26567W        W42641  11.978   9.747   1.307 -0.0507  0.2780 -0.0321
26568W        W42642   9.607   5.693  12.551 -0.2652 -0.1591  0.1897
26569W        W42643  13.812   9.564   4.459 -0.0238 -0.4517  0.2037
26570W        W42644   5.341   7.516  16.080 -0.0118  0.1811 -0.1059
26571W        W42645   8.345   7.354   1.545  0.2095 -0.1664 -0.2152
26572W        W42646  11.754   2.234  14.667  0.1181  0.0813  0.0912
26573W        W42647  16.864  16.209   5.391  0.1581  0.0640  0.1083
26574W        W42648   8.475   2.176  16.341 -0.1811 -0.0037 -0.1420
26575W        W42649  16.175   6.728  12.265  0.1843  0.0983  0.2347
26576W        W42650  14.522   6.932  15.272 -0.1706 -0.1675 -0.0335
26577W        W42651  14.690   1.130   2.205 -0.2737 -0.2589 -0.1824
26578W        W42652   8.651  13.276   1.387 -0.0963  0.0550 -0.0005
26579W        W42653   7.349   2.896   0.007 -0.1371 -0.0478 -0.2748
26580W        W42654   5.995   4.141  16.070  0.0111  0.0261 -0.1416
26581W        W42655  11.607  17.219   5.320 -0.1418  0.0092  0.1332
26582W        W42656  17.539   9.010   5.073 -0.2713 -0.2783 -0.2633
26583W        W42657   6.213   5.671   4.075  0.0547  0.1211 -0.0201
26584W        W42658   1.012  13.847   5.027  0.0315 -0.2293  0.2469
26585W        W42659   3.706   0.056  13.087  0.1534 -0.0045 -0.0015
26586W        W42660   2.230  15.243  12.533 -0.0909  0.2177 -0.0733
26587W        W42661  16.101   7.362   2.175  0.4008 -0.3561 -0.2681
26588W        W42662   7.194  15.140   5.700  0.1352  0.0576 -0.0918
26589W        W42663  10.483  14.430   4.484  0.0276 -0.1119 -0.1026
26590W        W42664  11.148   0.303   2.103 -0.0940 -0.0050 -0.1173
26591W        W42665   6.296   6.117  14.279  0.1340  0.2854  0.0492
26592W        W42666   7.454   7.506  13.100 -0.0052  0.1126 -0.2991
26593W        W42667  14.976  16.713   1.798 -0.0736  0.0080 -0.2225
26594W        W42668  12.975  12.500   4.871  0.0254  0.2196  0.1113
26595W        W42669  13.263   9.540   1.381 -0.0159  0.2166  0.0246
26596W        W42670   3.695  15.215  14.487 -0.0239  0.0559  0.2864
26597W        W42671   2.466   0.752  15.136  0.0541 -0.0422  0.3381
26598W        W42672   4.327  11.539  11.777 -0.6299 -0.1373  0.2770
26599W        W42673  10.480   7.116  14.569 -0.1809 -0.0684  0.0418
26600W        W42674   0.084   8.647  16.458 -0.0778  0.2696  0.2598
26601W        W42675  17.450  11.716   2.082  0.1483 -0.1438  0.4082
26602W        W42676   8.087   2.444  15.201  0.0752 -0.1781  0.0559
26603W        W42677  12.282  13.640   0.283  0.0388  0.0244 -0.0264
26604W        W42678   4.151  15.438  12.847 -0.3423  0.3068  0.2085
26605W        W42679   7.822   0.171  15.600 -0.0504 -0.2848 -0.0421
26606W        W42680  14.135  14.670   0.552 -0.1539 -0.2763 -0.3624
26607W        W42681  11.666  12.912  14.979 -0.3244 -0.2744 -0.0781
26608W        W42682   7.121  12.673  16.660  0.0566  0.1649 -0.0994
26609W        W42683   5.810   5.987   4.327 -0.2104 -0.0511  0.0518
26610W        W42684   6.582   4.519   2.058  0.0196 -0.2059  0.1922
26611W        W42685  16.281   7.553   6.431 -0.0969  0.3514  0.1774
26612W        W42686  12.930  14.030  14.531 -0.2282  0.1911 -0.0764
26613W        W42687  16.795  12.411  16.435 -0.1826  0.1943  0.1002
26614W        W42688   3.844   1.068  14.954 -0.3771  0.0220  0.0507
26615W        W42689  14.552   7.652   2.175  0.2545 -0.1205 -0.0608
26616W        W42690   8.583  12.207   0.495 -0.0415 -0.0088  0.1771
26617W        W42691   5.746   6.216   6.444  0.0347  0.3249  0.0673
26618W        W42692   7.621  15.459  15.224 -0.2322 -0.1938  0.3370
26619W        W42693   6.320   7.498  15.961 -0.1503  0.0724  0.3624
26620W        W42694   4.141  14.386  14.556 -0.2764  0.0003  0.0632
26621W        W42695   3.094   0.064  13.061 -0.0143 -0.2477  0.0129
26622W        W42696   8.544  11.078  11.764 -0.0806 -0.1050 -0.3005
26623W        W42697  13.927  16.646  13.162  0.0974  0.4688 -0.0368
26624W        W42698  15.921   5.505  12.086  0.2669  0.3026  0.1104
26625W        W42699   4.467   6.759   6.333  0.0387  0.2602 -0.1469
26626W        W42700   0.538  12.032  15.350  0.0421 -0.1656  0.2779
26627W        W42701  15.185   5.108  13.585  0.1741 -0.0343 -0.1032
26628W        W42702   9.628   6.608   0.385  0.0446  0.2012  0.0470
26629W        W42703   4.662  12.825  15.150  0.1257 -0.0203 -0.3707
26630W        W42704  13.840  11.647   1.554 -0.3076 -0.2765 -0.2419
26631W        W42705  12.588  11.280  14.228  0.2819 -0.1908  0.0509
26632W        W42706  14.854  15.890   6.021 -0.2655 -0.0093 -0.1108
26633W        W42707  11.877   1.131  15.781  0.1220  0.3605  0.2617
26634W        W42708  14.170   9.312  12.038  0.2822  0.0374  0.0053
26635W        W42709   0.876   4.109  14.940  0.0055 -0.2306  0.1309
26636W        W42710  10.459  14.932  12.429  0.1447 -0.0921  0.2111
26637W        W42711  14.314   2.207  13.939  0.1652  0.1069 -0.0393
26638W        W42712  10.956  13.024   3.880  0.1191  0.0867 -0.2715
26639W        W42713   3.975   2.182  13.572  0.0334 -0.1645  0.1102
26640W        W42714  11.447  16.623   1.883  0.1120 -0.0036  0.3630
26641W        W42715  10.362  15.922   6.217  0.1468  0.2381  0.0264
26642W        W42716   5.863   6.634  16.004 -0.1130  0.0797  0.4375
26643W        W42717  15.161  14.836  16.471 -0.0435  0.0838  0.0958
26644W        W42718  14.237   5.816   3.582  0.1411 -0.3852  0.0166
26645W        W42719   1.949   0.667   2.300  0.1673  0.2744 -0.1356
26646W        W42720   1.468  11.244   0.282 -0.1307 -0.0156 -0.0724
26647W        W42721  14.853   5.110  16.736 -0.2904  0.0244  0.0292
26648W        W42722  11.149   0.217   0.736 -0.1458  0.1996  0.2205
26649W        W42723  16.525   8.127  16.035 -0.0441 -0.4105  0.0608
26650W        W42724   2.223   5.864   5.159  0.2301 -0.0351 -0.0709
26651W        W42725   8.661  15.071   6.000  0.0210 -0.1931  0.0557
26652W        W42726   1.569  13.789   1.397 -0.1030 -0.0284 -0.0555
26653W        W42727  14.992   9.346  12.274  0.1091  0.0661 -0.0587
26654W        W42728   5.907  14.320  12.659  0.0693 -0.1522  0.1222
26655W        W42729   8.471   8.408  12.274 -0.0804 -0.2327  0.1370
26656W        W42730  16.106   6.395  13.739 -0.0124 -0.4734 -0.0084
26657W        W42731  16.695  15.141   2.541 -0.3254  0.1843 -0.2540
26658W        W42732   1.786   9.609   4.942 -0.1996 -0.1254  0.0723
26659W        W42733   0.156  11.323   0.206 -0.4042 -0.0296 -0.2749
26660W        W42734   8.426   9.352   5.145  0.0739 -0.0008  0.0009
26661W        W42735   2.326  12.922   0.297 -0.1654 -0.0304 -0.0747
26662W        W42736  15.162   4.697  13.847 -0.0881  0.3056 -0.3815
26663W        W42737  10.409   7.567   2.119 -0.0601  0.0717 -0.0270
26664W        W42738   5.592  15.985  13.643 -0.1706  0.1255 -0.0221
26665W        W42739  17.813   9.614  12.385 -0.3970 -0.0144  0.1144
26666W        W42740   0.603   0.444  15.558  0.2655  0.0026 -0.0324
26667W        W42741   1.010   2.057  13.923 -0.1278  0.3243 -0.2095
26668W        W42742   5.310  12.670  13.461  0.0171 -0.0803 -0.2891
26669W        W42743   7.187  10.698   4.235  0.0987 -0.2909 -0.0997
26670W        W42744   8.353   6.535   4.013 -0.1111  0.1377  0.0289
26671W        W42745  13.609   2.516  13.486  0.3602  0.1741 -0.0618
26672W        W42746   7.891   1.434  15.248  0.0325  0.0142  0.0684
26673W        W42747  15.669   8.292  16.675  0.0789  0.2051  0.1832
26674W        W42748   1.540  10.173   2.939  0.1687  0.0583  0.1202
26675W        W42749  16.484  10.900  14.869 -0.0299 -0.1400 -0.0278
26676W        W42750  15.752   5.355   3.597 -0.1593  0.1305  0.1448
26677W        W42751  11.751   2.695  14.385  0.1608  0.0087 -0.0450
26678W        W42752   3.677  15.722  11.295  0.0200  0.0376  0.2283
26679W        W42753   7.399   6.658   3.954  0.1575 -0.1019 -0.1523
26680W        W42754  17.039   8.447  16.770 -0.0244 -0.2458  0.1512
26681W        W42755   9.511  16.671  11.620 -0.1350  0.1213 -0.2881
26682W        W42756   1.482  11.836  12.407  0.0672 -0.1356  0.0885
26683W        W42757   8.981   6.954   2.800  0.1790 -0.2552  0.0628
26684W        W42758   4.088  11.758  16.960 -0.2342 -0.0879 -0.3999
26685W        W42759  11.808  13.718  15.208  0.3636 -0.0245 -0.0310
26686W        W42760  12.913  13.685  13.742  0.1377  0.0653 -0.0299
26687W        W42761  17.112  16.933   6.333 -0.3021  0.0197 -0.3854
26688W        W42762  15.290  16.954   1.548 -0.0654 -0.0755  0.0933
26689W        W42763  12.215   4.296  14.535  0.2692  0.0698 -0.0699
26690W        W42764  12.491   9.861   6.330  0.0576 -0.0234  0.1448
26691W        W42765  10.537  16.804  14.662  0.0312  0.2886  0.2578
26692W        W42766   4.068  15.362   3.911  0.0163 -0.0365  0.1198
26693W        W42767   1.804   6.912   2.898  0.0408  0.0816  0.2488
26694W        W42768   6.932  16.115   1.735 -0.1332  0.0059 -0.3648
26695W        W42769  17.387   8.618   1.637  0.1421  0.0638 -0.0832
26696W        W42770   6.436  12.781   1.419  0.2865 -0.2526 -0.0721
26697W        W42771   6.664   8.992  11.956 -0.0983  0.0894 -0.0991
26698W        W42772  15.294  16.415  12.992 -0.1564  0.1352  0.1104
26699W        W42773   7.027   5.625  13.238 -0.2683  0.0666 -0.3453
26700W        W42774   5.168   9.555   1.011 -0.2564  0.2043 -0.1909
26701W        W42775   7.956  13.121  14.037 -0.1278 -0.2237 -0.0305
26702W        W42776   3.412   4.547   0.593  0.1567 -0.4068  0.2971
26703W        W42777   7.661  11.024  15.574 -0.0603  0.0410  0.2178
26704W        W42778   5.457  14.663  12.587  0.1162  0.0283  0.1061
26705W        W42779   8.561   0.864  12.350 -0.3837 -0.1847 -0.2462
26706W        W42780   9.091  12.539  16.721  0.0445 -0.1419  0.1485
26707W        W42781  15.637   0.023   1.443  0.1292 -0.1247  0.0350
26708W        W42782   6.982   3.257  16.718  0.1921 -0.2579  0.1779
26709W        W42783   9.315  12.631   3.771  0.0991  0.0368 -0.1761
26710W        W42784   1.809   4.125   2.037  0.1680 -0.2618 -0.0822
26711W        W42785   3.154  15.933   1.572 -0.2933  0.1107  0.0291
26712W        W42786  11.135   7.679  14.027  0.1022 -0.1140 -0.2273
26713W        W42787   7.904  12.311   0.820  0.3221  0.2628  0.0631
26714W        W42788   9.331  12.061   0.360  0.2002 -0.1229 -0.2203
26715W        W42789   1.721  12.002  16.743  0.0429  0.0280  0.0440
26716W        W42790   8.772   6.735  13.707  0.0253  0.4407  0.1285
26717W        W42791   1.726  10.783  13.757 -0.1444 -0.0277 -0.2206
26718W        W42792   1.129   4.490  16.326 -0.2546 -0.0257 -0.2361
26719W        W42793  17.164   3.479   5.080  0.0867  0.2171 -0.0079
26720W        W42794  10.064   8.073   1.358 -0.2283 -0.0220 -0.2044
26721W        W42795  14.423  17.788  16.548  0.4052 -0.0475  0.0905
26722W        W42796   0.449   3.894  16.517 -0.2408 -0.2114  0.0455
26723W        W42797   7.912   5.881   1.788 -0.0839  0.1569  0.0397
26724W        W42798  12.751   0.724   3.870  0.0658  0.1476  0.0984
26725W        W42799   3.340  11.622   5.046 -0.1719 -0.0340 -0.0758
26726W        W42800   4.897  16.045   1.636  0.2520 -0.0770  0.1241
26727W        W42801   5.064   8.224   0.050 -0.2999  0.0192  0.2152
26728W        W42802   2.874  13.538   3.972 -0.2922 -0.3509 -0.1619
26729W        W42803   3.956   0.160   2.744  0.2467 -0.1091  0.0185
26730W        W42804   6.387   5.443   3.629  0.2440  0.1305  0.1518
26731W        W42805   0.006   3.545   2.919 -0.0142  0.0554  0.1037
26732W        W42806  17.158  16.474   5.092 -0.0180  0.0982 -0.1555
26733W        W42807  16.390   3.402   2.442  0.0253 -0.1307 -0.1700
26734W        W42808   0.245   1.872   5.359  0.1198  0.1021  0.2200
26735W        W42809   6.818   9.303  12.597 -0.2611  0.1150 -0.0749
26736W        W42810  12.264  15.985   1.717  0.0700  0.0320 -0.2512
26737W        W42811  15.802  13.744   0.145 -0.0570  0.0303  0.2956
26738W        W42812   4.775   4.851  10.757 -0.0469 -0.2782  0.5284
26739W        W42813   1.912   9.643   6.397  0.5202  0.0657 -0.2459
26740W        W42814   0.351  16.252  12.112  0.3436 -0.1123 -0.0667
26741W        W42815   6.313   7.424   3.513  0.1020  0.1497  0.0656
26742W        W42816   6.092   1.586  14.680 -0.0649  0.1250  0.1355
26743W        W42817  11.814   4.064   0.173  0.2193 -0.1072 -0.4408
26744W        W42818   0.713  15.929   3.859  0.0281 -0.2140  0.0889
26745W        W42819  15.743   3.618  15.139 -0.1716 -0.3064  0.0586
26746W        W42820   1.138   6.125   0.297 -0.2324 -0.0672  0.0245
26747W        W42821   0.226  12.531  13.672 -0.2085  0.1732 -0.0007
26748W        W42822   7.143   8.925   0.758 -0.1603 -0.1925  0.2431
26749W        W42823   1.765   2.519  15.692  0.1116 -0.0438  0.0104
26750W        W42824  17.179   3.454   1.999  0.0208 -0.1546  0.0499
26751W        W42825  16.824  17.641   0.646 -0.2246  0.0192  0.1460
26752W        W42826   9.513  16.950  12.829 -0.0770  0.1192 -0.2554
26753W        W42827   0.904  10.681  16.854  0.2898 -0.1699  0.0780
26754W        W42828  13.991  14.042  12.035  0.0846 -0.1550 -0.1893
26755W        W42829  14.131  14.346  16.033 -0.3898  0.0051  0.0343
26756W        W42830   1.886   8.438  14.693  0.2148 -0.2839 -0.2290
26757W        W42831  15.443  11.508   4.194  0.0844 -0.1576  0.1782
26758W        W42832   6.782   9.625  15.166 -0.2622 -0.0110  0.2833
26759W        W42833  10.580   4.701  12.456 -0.1135 -0.0158  0.0928
26760W        W42834  10.396   0.977  14.171  0.3296 -0.0038  0.3335
26761W        W42835  16.123  16.427  12.154  0.1621  0.1190  0.1053
26762W        W42836   4.197   9.152   3.902  0.0273 -0.2489  0.0365
26763W        W42837   4.616  11.007  13.538  0.0204 -0.0371  0.4756
26764W        W42838  10.833   4.670  16.450  0.4207 -0.1650  0.1702
26765W        W42839   0.705   1.683  14.196 -0.2872 -0.1244  0.1664
26766W        W42840  17.849  11.382  16.648 -0.4005  0.3791 -0.0109
26767W        W42841   0.860   9.584   5.797 -0.0338 -0.1357  0.1927
26768W        W42842   5.341   3.805  12.885  0.0774 -0.4804  0.0173
26769W        W42843   9.260  10.853  16.348 -0.1276  0.2840  0.0512
26770W        W42844   2.905   6.997  14.430  0.5589 -0.0431  0.3165
26771W        W42845   5.771   2.307   4.203  0.0267  0.0633 -0.0333
26772W        W42846  13.004   7.460   3.150  0.2604  0.0496  0.0728
26773W        W42847   8.759   6.200  12.938  0.0893  0.2909  0.1262
26774W        W42848  15.065  15.308   0.067 -0.0646 -0.0394 -0.0164
26775W        W42849  17.399   6.259  12.696 -0.1174  0.2607  0.0561
26776W        W42850   5.140  11.890   0.850 -0.1556 -0.1598  0.1384
26777W        W42851   8.005   5.909   0.494  0.0516  0.1408 -0.1064
26778W        W42852  15.961   3.361  12.852  0.1009  0.1493 -0.0229
26779W        W42853  12.243   8.460   4.723 -0.0148 -0.1048 -0.0314
26780W        W42854  16.610   7.520  14.570  0.2516  0.1092  0.1600
26781W        W42855  12.426   4.251   1.023 -0.3211 -0.1163 -0.0880
26782W        W42856  16.570  13.756   5.475  0.3148 -0.3774 -0.0068
26783W        W42857  10.867  14.093  12.140 -0.1263 -0.0451 -0.3291
26784W        W42858   1.096  17.356   3.921  0.2324 -0.3885 -0.0857
26785W        W42859  14.393  12.048  11.735  0.1331 -0.1239  0.0594
26786W        W42860  15.721   6.799   2.652 -0.1138 -0.3445 -0.1878
26787W        W42861   9.947   0.388   1.228 -0.0031 -0.1083  0.2860
26788W        W42862   7.469   3.431   1.455 -0.1745  0.2309  0.2188
26789W        W42863  12.058  17.769  15.357 -0.0704  0.0424 -0.0100
26790W        W42864   0.975   7.572  14.768  0.2302 -0.3118 -0.1245
26791W        W42865   9.706  10.032   1.697 -0.0117 -0.1573  0.2922
26792W        W42866   1.544  15.186   2.086  0.4476 -0.1918  0.4302
26793W        W42867  10.476  12.675   3.134  0.1696  0.1969 -0.0525
26794W        W42868   6.078   9.045  10.681 -0.3465  0.1354 -0.0138
26795W        W42869  12.085  17.662   2.146 -0.3711 -0.2480  0.2293
26796W        W42870   5.551  14.229  15.896 -0.2564  0.1931 -0.1362
26797W        W42871   2.339   8.142  16.838 -0.2340 -0.1963  0.2007
26798W        W42872   6.221   6.019  15.453 -0.0155  0.2347 -0.0820
26799W        W42873  16.452   3.676   1.510  0.3604 -0.1354  0.0690
26800W        W42874   4.019   6.316  12.127  0.0527  0.3219  0.0351
26801W        W42875   1.955  17.112  15.274 -0.1185 -0.1523  0.0331
26802W        W42876   4.064  17.423   1.696  0.3009 -0.0289  0.0949
26803W        W42877  10.465   1.683   1.865  0.0111  0.4666  0.0964
26804W        W42878   6.719   9.585  16.836 -0.1116  0.1980  0.0573
26805W        W42879   1.541   7.940   2.676 -0.2425 -0.2658  0.1435
26806W        W42880  12.194   9.251   5.822  0.2333 -0.3111  0.2999
26807W        W42881  11.264   8.773   6.709  0.4048  0.2302  0.0321
26808W        W42882  15.142  16.796   3.660  0.3484 -0.0374  0.0975
26809W        W42883   9.312   2.226   2.671 -0.1043  0.1964 -0.0372
26810W        W42884  17.707  10.659   2.819 -0.1992  0.2454 -0.2441
26811W        W42885   0.324   4.690  13.211  0.0159 -0.0790  0.0046
26812W        W42886   5.710   9.005  15.063 -0.0705 -0.2002 -0.1474
26813W        W42887   6.689   8.642  14.205  0.0200  0.2310  0.1546
26814W        W42888  17.153   6.689  14.626 -0.2181 -0.2246 -0.1832
26815W        W42889  14.506   1.329  13.699 -0.2281 -0.0827 -0.2379
26816W        W42890   9.497  13.454  15.295 -0.0649 -0.0022  0.0982
26817W        W42891  13.539   7.516  14.236 -0.2137  0.2919 -0.0230
26818W        W42892  13.554  17.210   4.177  0.1018  0.1708  0.0838
26819W        W42893   3.423   2.524  15.836  0.0328  0.2304  0.1076
26820W        W42894   0.555  14.075   5.148 -0.2210  0.1225  0.0247
26821W        W42895  15.681  14.717   5.159 -0.0548  0.1477  0.0697
26822W        W42896   2.324   7.615  14.818  0.0972 -0.0491  0.0104
26823W        W42897  15.486  17.700   3.535  0.3188  0.0107 -0.2326
26824W        W42898   2.211  17.841   5.312  0.1248  0.2800 -0.1176
26825W        W42899   4.336  13.860  12.663  0.0483  0.0294  0.2991
26826W        W42900  13.517   5.242   3.609  0.1418  0.0966  0.0885
26827W        W42901   4.208  17.702  16.917  0.0630 -0.2150 -0.2819
26828W        W42902   5.445   1.658  13.723  0.3966 -0.1901 -0.1155
26829W        W42903  16.861  13.249  12.950  0.0849 -0.0037  0.0235
26830W        W42904   5.703  12.571   1.137 -0.0167 -0.1183  0.0326
26831W        W42905  10.088  16.972  14.335 -0.2372  0.0822  0.1215
26832W        W42906   6.578   4.800  11.916 -0.3720  0.0166  0.1446
26833W        W42907  13.311   3.758  14.087  0.1066  0.3219 -0.2012
26834W        W42908  15.905  16.205  13.559 -0.3892 -0.1648 -0.0548
26835W        W42909  11.923   3.629  13.798  0.0822  0.0353 -0.3837
26836W        W42910  12.706  12.157  14.545  0.0502 -0.1138  0.0160
26837W        W42911   8.272   8.209   2.558 -0.1668  0.0189 -0.1916
26838W        W42912  16.385  12.233   3.416  0.1908  0.0755  0.2443
26839W        W42913   6.117   6.069  15.921 -0.2253  0.2998  0.0113
26840W        W42914   1.501   3.816  10.823  0.0659  0.1876 -0.0200
26841W        W42915   0.662   9.578  13.063 -0.1058  0.0610 -0.0415
26842W        W42916  15.266   7.366  12.231 -0.2171 -0.2648 -0.1141
26843W        W42917  12.986  14.043   1.090  0.1981 -0.0227 -0.0057
26844W        W42918  14.027   9.832  13.947  0.0972  0.0587 -0.2461
26845W        W42919  11.742   4.365  14.191 -0.0807 -0.3267  0.2155
26846W        W42920   3.380   5.067   5.958  0.1317  0.0837  0.0046
26847W        W42921   4.900  10.187  15.155 -0.2872  0.4325  0.1249
26848W        W42922   3.093   3.244  15.236  0.1930  0.1981 -0.0868
26849W        W42923   7.445   4.428   0.944 -0.0513 -0.0725 -0.0544
26850W        W42924   0.817   3.899   2.899  0.0484  0.0334 -0.1953
26851W        W42925   7.677   7.165   0.959  0.2549 -0.2401 -0.2803
26852W        W42926  14.679  15.653   2.515 -0.0179  0.0609  0.0181
26853W        W42927  17.171   3.915   2.977 -0.0313 -0.1741 -0.0172
26854W        W42928  16.505   4.483   5.428  0.2556 -0.4356 -0.0072
26855W        W42929   0.608  14.073   4.206 -0.2261  0.0288  0.0438
26856W        W42930  15.315   5.050   0.905 -0.1946  0.0202  0.4120
26857W        W42931  10.353   9.497   0.383 -0.1117 -0.0124  0.0285
26858W        W42932   5.085   1.078  13.098  0.0670 -0.1680  0.0666
26859W        W42933   4.884   1.852   4.466 -0.2174  0.1216  0.0736
26860W        W42934  11.415  12.266  14.604 -0.0866 -0.1263  0.1777
26861W        W42935   7.760   4.174   1.241 -0.0306  0.3290  0.0765
26862W        W42936  15.682  12.332  12.678  0.0268 -0.2680 -0.3770
26863W        W42937  12.646   8.347  12.695  0.5168 -0.0365  0.2868
26864W        W42938   3.119  12.345   2.412  0.0704  0.2857 -0.2767
26865W        W42939  14.684   8.161  11.954  0.0321 -0.4163  0.1032
26866W        W42940  14.240  12.132   2.936  0.2109 -0.1927 -0.0416
26867W        W42941  16.766  12.928  12.106  0.2397 -0.0191 -0.0743
26868W        W42942  14.872   3.236   0.548  0.1599 -0.0845  0.1505
26869W        W42943   0.052  17.471   1.530  0.1004 -0.1051  0.1352
26870W        W42944   9.314   5.305  10.746 -0.2275 -0.0177  0.0908
26871W        W42945   7.239  10.162  14.084  0.2095  0.4393 -0.0392
26872W        W42946  17.836   8.592  15.213 -0.0619  0.1196  0.4875
26873W        W42947   1.027   0.763   5.425 -0.1094  0.3027 -0.3865
26874W        W42948   5.239   3.861   4.056 -0.1556  0.0651 -0.0745
26875W        W42949  11.296  15.136  15.773  0.0802  0.1009 -0.1583
26876W        W42950   9.984   6.269  15.892 -0.2790  0.1588 -0.2571
26877W        W42951  13.012   3.264   3.812  0.1203 -0.1189 -0.2456
26878W        W42952   1.214  14.966   5.768  0.0908 -0.3036  0.3477
26879W        W42953   5.690   2.026   2.946  0.0645  0.4989 -0.1214
26880W        W42954   1.915  14.497   0.712 -0.0695 -0.1762  0.1770
26881W        W42955   1.715   2.274  13.995 -0.0291  0.1725 -0.3366
26882W        W42956  10.029   1.325   1.162  0.1163  0.2742 -0.0736
26883W        W42957   8.554   8.941  12.340  0.1236 -0.0153  0.0734
26884W        W42958  11.829   1.522  14.712  0.4703 -0.2566  0.1482
26885W        W42959   3.641   4.503  16.675  0.0499  0.0100  0.0808
26886W        W42960  16.268  10.575  15.227 -0.0096  0.0246 -0.0808
26887W        W42961   5.943  11.230   2.580  0.0433  0.4882  0.3182
26888W        W42962  14.928   9.438  15.548  0.1099 -0.1994  0.1660
26889W        W42963   4.210  14.803  16.345 -0.0918 -0.2436  0.4117
26890W        W42964   3.144   2.542   0.143  0.0019 -0.2251  0.0945
26891W        W42965   4.670  11.890  16.969 -0.1706 -0.0314 -0.1350
26892W        W42966  12.026   2.661  11.784  0.2500 -0.2386 -0.0544
26893W        W42967   8.672   0.055  11.653 -0.0948 -0.1823  0.3060
26894W        W42968   1.532   5.170  15.955  0.1174 -0.4008  0.0753
26895W        W42969  17.011   3.410  11.124 -0.0457  0.0389 -0.0159
26896W        W42970  15.052   0.579   0.664  0.0033 -0.0516 -0.1271
26897W        W42971   7.573  14.471  13.373 -0.0717  0.0088 -0.1723
26898W        W42972   8.956  14.731  16.768  0.3052 -0.3111 -0.3239
26899W        W42973  13.425  15.835   1.616 -0.0165 -0.0083 -0.3516
26900W        W42974   8.732   6.615   5.265  0.0529 -0.0959  0.4452
26901W        W42975  16.274   6.560  11.771 -0.3438 -0.1624 -0.1539
26902W        W42976  16.961   5.544  11.852  0.0013 -0.0165  0.1070
26903W        W42977  11.810  15.410  15.116 -0.3422 -0.0331  0.0927
26904W        W42978   4.358  10.394   2.907 -0.3837  0.1607 -0.1428
26905W        W42979  15.437   9.126  12.308 -0.2597  0.1676  0.2059
26906W        W42980  13.649   9.336   3.846 -0.2300 -0.0634 -0.0746
26907W        W42981  15.332   3.189  15.756 -0.1770 -0.3475 -0.0367
26908W        W42982  12.915   3.865  15.812  0.1923 -0.0687  0.0001
26909W        W42983   5.795   1.794   3.463 -0.0289 -0.1058 -0.0606
26910W        W42984  12.007  11.622  12.457  0.0860  0.4087  0.0199
26911W        W42985   7.383   3.079  15.654  0.1931  0.0909  0.3002
26912W        W42986   5.992   3.447  16.162  0.1768 -0.0744  0.0215
26913W        W42987  16.062   5.191   4.856 -0.3325  0.0159  0.0012
26914W        W42988   0.321  13.736   2.218  0.2976 -0.1360 -0.0102
26915W        W42989   2.115   8.664   4.189 -0.1450  0.2982  0.0827
26916W        W42990   5.649   2.978  16.213  0.0065  0.0372  0.0135
26917W        W42991   6.186   4.438   5.280 -0.0747  0.0899  0.0006
26918W        W42992  16.686  13.271   5.295 -0.3679 -0.0521  0.1153
26919W        W42993  12.537  11.539   4.621 -0.0654 -0.0012  0.3063
26920W        W42994  10.468  14.115   6.090  0.0062 -0.2229  0.1596
26921W        W42995  15.476  10.597  13.375  0.0055  0.1439 -0.0283
26922W        W42996   2.405  17.660   5.743 -0.0235  0.1184 -0.1136
26923W        W42997   0.454  11.846  16.719 -0.1522 -0.2432  0.2252
26924W        W42998   9.745   5.744   5.888  0.0569  0.1779 -0.1957
26925W        W42999   8.737  11.224  13.005  0.4067  0.0908 -0.0556
26926W        W43000   2.064  14.908   4.833  0.5795 -0.2643 -0.0254
26927W        W43001   0.569  16.722  11.949 -0.0971 -0.0310  0.0516
26928W        W43002   8.782   7.865  12.768  0.2609  0.6474  0.1429
26929W        W43003   5.470  16.698   3.558  0.1986 -0.2299  0.0749
26930W        W43004   3.392   8.796  12.959  0.1114 -0.1202  0.0523
26931W        W43005   2.194   3.133  11.864  0.0686  0.2860 -0.1501
26932W        W43006  12.429  10.759   3.663  0.0815  0.0343 -0.3137
26933W        W43007   8.707  16.725   5.813  0.1281 -0.1652  0.1108
26934W        W43008   1.600  15.762   4.164 -0.1693 -0.1791 -0.0046
26935W        W43009  15.032  16.090  11.753  0.0504  0.1916  0.2440
26936W        W43010  16.088  11.590   4.660 -0.1735  0.1555  0.1236
26937W        W43011   6.817   5.022   5.931  0.0488  0.0957 -0.1917
26938W        W43012  10.772  13.032   4.364 -0.0477  0.0874 -0.0125
26939W        W43013   9.078  13.792  11.897 -0.1014  0.1991  0.1668
26940W        W43014  10.841   8.005  13.068 -0.2261 -0.2034 -0.0749
26941W        W43015   1.701   4.464   5.013 -0.1253 -0.1252  0.1842
26942W        W43016   5.656   9.368   0.079 -0.2213  0.2504  0.0163
26943W        W43017   7.067  17.693   5.672 -0.0528 -0.0268 -0.2507
26944W        W43018   2.651  16.830   1.670  0.0166 -0.2585 -0.1603
26945W        W43019   6.848   0.478   0.020  0.0147 -0.0320 -0.2502
26946W        W43020   7.460   2.055   3.257  0.2330  0.2173  0.0825
26947W        W43021   2.927  15.168   4.738 -0.0611  0.0929  0.1450
26948W        W43022  10.128   4.181  14.311 -0.0908 -0.0585  0.0753
26949W        W43023  15.494  13.535  16.291 -0.1123 -0.2799 -0.1927
26950W        W43024   7.030   6.377  15.503 -0.1650  0.1340 -0.1799
26951W        W43025  17.840   4.794   4.073  0.0955  0.1297  0.0595
26952W        W43026  14.281  16.981  13.110  0.2392 -0.2430  0.0189
26953W        W43027  15.820   9.623  12.692 -0.1449 -0.0366  0.3779
26954W        W43028  17.380   1.706  16.408 -0.3273 -0.1857 -0.0962
26955W        W43029   0.445   2.266   2.960 -0.2878 -0.1374  0.0130
26956W        W43030  11.748   3.409  16.430  0.1618 -0.1698  0.0249
26957W        W43031   8.869  15.389  13.392  0.4918 -0.2130 -0.0802
26958W        W43032   3.749  11.813   4.904 -0.1333 -0.1576 -0.0400
26959W        W43033  17.463   6.434   5.666  0.1695  0.0411 -0.3156
26960W        W43034  11.217   1.811  15.705  0.1930  0.1887 -0.1984
26961W        W43035   4.083   9.420  13.324  0.2630 -0.3871 -0.1386
26962W        W43036   9.630   8.192   6.184 -0.0855  0.0810  0.2726
26963W        W43037  14.271  13.474   2.884  0.0986  0.0825 -0.0047
26964W        W43038  16.106   9.881  14.705  0.3499 -0.0829 -0.2032
26965W        W43039   2.038   1.041   5.093 -0.1323  0.1890  0.1419
26966W        W43040  17.389  13.271   5.416 -0.0344 -0.1723  0.2065
26967W        W43041  17.658   0.863  14.960 -0.1875 -0.1582 -0.3260
26968W        W43042   2.386  15.557  11.258  0.1075  0.1028  0.0161
26969W        W43043   6.908   4.149   1.235 -0.3039  0.1787 -0.2747
26970W        W43044  14.737   3.460   2.660  0.2360 -0.0698 -0.0536
26971W        W43045   1.603   9.504   0.719  0.0878  0.1844  0.0330
26972W        W43046   9.908  10.099  12.026  0.0017 -0.0236 -0.0378
26973W        W43047   9.200   3.322  16.125  0.0067  0.2418  0.1440
26974W        W43048   6.597   5.700   0.758  0.0378  0.0448  0.2179
26975W        W43049  11.736   8.655   0.870 -0.5842  0.2623 -0.0956
26976W        W43050   0.967   9.809   1.596  0.3220 -0.1074  0.0632
26977W        W43051  14.357  12.660  13.794 -0.1441 -0.0370 -0.0601
26978W        W43052   1.441   1.232   4.215 -0.0103  0.2171  0.2133
26979W        W43053   4.167   0.419   2.305 -0.0006  0.2477 -0.2863
26980W        W43054   3.150   4.741   3.818  0.3130  0.2951  0.1310
26981W        W43055   5.578   8.146  11.996  0.0621  0.0590  0.0959
26982W        W43056   7.757  15.971  12.729 -0.1906 -0.0682  0.2632
26983W        W43057   7.184  12.114   1.508  0.1459  0.0566  0.3435
26984W        W43058  10.955   1.694   4.457 -0.0467  0.0626 -0.3267
26985W        W43059   9.481   3.118  14.694  0.1250 -0.0186  0.1763
26986W        W43060  14.151   9.953  12.050 -0.2539 -0.2957  0.0601
26987W        W43061  12.622  16.643  13.727  0.3327  0.3328 -0.2940
26988W        W43062   8.737   8.115   0.956 -0.2893 -0.0843  0.1603
26989W        W43063  11.458  17.138  15.111  0.0559 -0.1696  0.0604
26990W        W43064  11.081  17.067   5.884  0.1442 -0.0630 -0.1604
26991W        W43065  13.713   5.238   4.102  0.2457  0.1838 -0.0562
26992W        W43066   1.215   4.215  10.955  0.0603 -0.0042 -0.1124
26993W        W43067   4.917   1.645  12.171  0.3006  0.0550  0.0936
26994W        W43068   7.159  15.778   4.601 -0.1535 -0.1633  0.1990
26995W        W43069  14.286   7.855  16.816 -0.1029  0.2176 -0.0128
26996W        W43070   7.316  15.267   5.165 -0.0248  0.0543 -0.3347
26997W        W43071  16.838  11.785  14.878  0.2190  0.0963  0.3849
26998W        W43072  17.031   6.433   3.782 -0.1500 -0.0950 -0.1684
26999W        W43073  12.432   8.764  13.944 -0.0439  0.0036  0.0924
27000W        W43074  15.426   1.668   5.688  0.3062  0.1281 -0.0853
27001W        W43075  11.849  17.011  15.472  0.3040 -0.0260 -0.1581
27002W        W43076  11.930  11.844   0.098 -0.1711 -0.0557  0.0611
27003W        W43077   5.731  10.371   2.523  0.3969 -0.0522 -0.1487
27004W        W43078   5.891   8.055   1.887  0.0256 -0.1147  0.0906
27005W        W43079   2.547   2.792  16.732  0.0200  0.0088 -0.2798
27006W        W43080  16.256  17.799   0.280 -0.3462 -0.2330 -0.2865
27007W        W43081   0.937  12.101  12.505 -0.1994  0.0028  0.2503
27008W        W43082   3.528   3.969   3.574 -0.0369  0.0663  0.0390
27009W        W43083   9.406   7.281  15.451  0.1768  0.2367 -0.0248
27010W        W43084  16.368   3.713  16.505 -0.3682  0.0048  0.1246
27011W        W43085   9.535   5.105   4.583  0.1092  0.0784 -0.0585
27012W        W43086   8.541   3.404  12.422 -0.1065 -0.1190 -0.1350
27013W        W43087   3.105   7.132   1.635  0.0677  0.2728  0.0916
27014W        W43088  11.421   4.262   2.955  0.0002 -0.2520 -0.1553
27015W        W43089  15.712  11.898  11.967 -0.1687 -0.1684 -0.0680
27016W        W43090   0.549   8.816   0.698 -0.0782  0.1862  0.0604
27017W        W43091   6.737   5.263  12.819  0.1226  0.2674 -0.1366
27018W        W43092   1.486  17.086   4.218 -0.1430  0.0912  0.0282
27019W        W43093   3.685  11.032  16.732 -0.1504 -0.1385  0.0786
27020W        W43094  16.679   3.335  15.306 -0.2042 -0.3014  0.3805
27021W        W43095  15.708   8.554   0.100  0.1518  0.1769 -0.0559
27022W        W43096   4.280   2.819   3.845  0.0581  0.4142 -0.1933
27023W        W43097  14.973   9.041   0.126 -0.0866 -0.1758 -0.3739
27024W        W43098   4.585   4.911  14.125 -0.1749  0.4555  0.1428
27025W        W43099   6.726   6.472   0.945 -0.1827  0.1727 -0.2784
27026W        W43100   2.388  14.178  13.598 -0.1045 -0.0712 -0.0116
27027W        W43101   2.727  14.055   5.520  0.2663 -0.1083  0.1941
27028W        W43102   0.890   3.135  13.826  0.0560 -0.0107 -0.0247
27029W        W43103   3.791  10.195   4.904  0.1657  0.1672 -0.0940
27030W        W43104   2.515  11.337  11.358  0.3251 -0.0520 -0.1703
27031W        W43105  13.072  10.982   3.018 -0.3218  0.0542 -0.1193
27032W        W43106   2.375  14.012  15.560  0.0611  0.2455 -0.1532
27033W        W43107   4.655   9.604  15.763  0.4294  0.0907  0.0259
27034W        W43108   9.493  15.582  12.202  0.3097  0.1957  0.0687
27035W        W43109   2.951   2.992  16.305 -0.1058 -0.0181 -0.1884
27036W        W43110   7.851   3.719   0.962  0.0356  0.1177 -0.3064
27037W        W43111   9.780   4.110  11.158  0.0722 -0.0597  0.1068
27038W        W43112   7.651   8.691   5.197  0.1191 -0.0913  0.1402
27039W        W43113   8.000  13.657  15.375 -0.0424 -0.1503  0.1018
27040W        W43114   5.145  14.058   0.505  0.2305  0.1147 -0.1449
27041W        W43115  14.822  16.418   5.494  0.0082  0.0102  0.0565
27042W        W43116   4.387  10.871   0.029 -0.0145 -0.2418  0.1421
27043W        W43117   7.688   4.789   0.751 -0.1420  0.1669 -0.4194
27044W        W43118  13.604   7.760   1.330 -0.2287  0.1952  0.1302
27045W        W43119   5.233   0.077   5.728  0.2958 -0.0274 -0.0708
27046W        W43120  16.299   5.555  16.086  0.0325  0.1742  0.1900
27047W        W43121   0.611   6.751  12.636 -0.0006  0.0712  0.0243
27048W        W43122   3.756   4.021   4.043  0.1469  0.0818  0.5555
27049W        W43123  13.380  14.837   1.876  0.2113 -0.1656 -0.2066
27050W        W43124   0.509   4.942   2.226 -0.2052 -0.1679 -0.0346
27051W        W43125   4.266   6.207  13.360  0.0077  0.1578 -0.2697
27052W        W43126   1.207  12.816  12.135 -0.1102  0.0841  0.2180
27053W        W43127  14.266   3.954   3.352  0.1718 -0.2450 -0.0789
27054W        W43128  12.145  12.883   4.551 -0.2606 -0.0725  0.1204
27055W        W43129   0.626   9.844  11.792  0.1059 -0.0906  0.0437
27056W        W43130  10.592  15.270  12.818  0.1174  0.1828  0.4174
27057W        W43131   2.182   2.696   0.651  0.0181 -0.0367 -0.1736
27058W        W43132  10.277  10.043   5.013  0.0688  0.1323  0.3210
27059W        W43133   1.261   9.098  14.441  0.1525  0.1240 -0.0527
27060W        W43134  10.131   5.368   2.487 -0.3220 -0.1314 -0.4212
27061W        W43135  17.264   7.680   0.807  0.2626  0.0321  0.2392
27062W        W43136   8.592   3.623   5.741 -0.0517 -0.0026  0.2243
27063W        W43137   5.352  14.251   3.276  0.1375  0.1851 -0.0449
27064W        W43138   8.703   6.996   6.459  0.0347  0.0566  0.1667
27065W        W43139   2.667   3.121   0.704 -0.0465  0.1069 -0.0415
27066W        W43140   6.948  15.312   1.482 -0.1114  0.1183  0.0690
27067W        W43141   5.860  11.138  16.418  0.1785  0.1603  0.0194
27068W        W43142   3.295   5.591   0.304 -0.0572  0.2139  0.1126
27069W        W43143  12.600  13.381   2.288  0.2369  0.1522 -0.0568
27070W        W43144  11.652   9.705   5.797 -0.0097 -0.3191 -0.2970
27071W        W43145   5.031  10.782   4.963 -0.0119 -0.1640 -0.0845
27072W        W43146   4.491   0.577  11.694  0.0867 -0.1750  0.2544
27073W        W43147  10.165   1.690   3.267 -0.0359  0.1477 -0.0280
27074W        W43148   5.552  10.861   2.477  0.0559 -0.2669  0.1082
27075W        W43149   2.700   5.711  12.815  0.1178  0.2262  0.0522
27076W        W43150   8.807  14.908   0.955 -0.2050  0.0040 -0.0224
27077W        W43151   4.853   4.896   4.009  0.1313 -0.1999  0.0122
27078W        W43152   2.835  10.788   3.648 -0.2405  0.0204  0.1061
27079W        W43153   1.358  14.539   2.734  0.0527 -0.3150  0.2335
27080W        W43154  15.209   0.009   1.942  0.1139 -0.0711 -0.0415
27081W        W43155   1.698   1.123  15.797  0.0546 -0.1025 -0.0203
27082W        W43156   2.215   5.039  15.001  0.1391 -0.4494 -0.3311
27083W        W43157  14.831  15.988  14.520 -0.0756 -0.0498 -0.3473
27084W        W43158   7.005  14.332   1.617  0.2442 -0.2048  0.1449
27085W        W43159   3.247   8.695  12.307  0.1088 -0.2126 -0.0160
27086W        W43160  14.855   5.212  11.884 -0.0565 -0.0639 -0.1429
27087W        W43161  16.447   4.591   3.945  0.2454 -0.1462  0.0959
27088W        W43162   1.528  13.338   2.122 -0.0599 -0.2867 -0.0989
27089W        W43163  11.478   3.138   5.703  0.0944  0.1710  0.0306
27090W        W43164   6.543   8.336   2.508  0.4395  0.0892 -0.1376
27091W        W43165   6.265   1.191  16.437 -0.1383  0.2155 -0.2719
27092W        W43166  12.792   4.593   3.405 -0.2745  0.0754  0.0497
27093W        W43167   2.069  15.737  14.557  0.0159 -0.2982  0.0660
27094W        W43168   0.537   5.837  16.438 -0.0723 -0.0962 -0.0461
27095W        W43169   6.375  12.078   5.694  0.0692 -0.0826  0.2862
27096W        W43170  16.482   8.185   2.314 -0.1433 -0.0420 -0.2768
27097W        W43171   2.869   0.707  14.763 -0.3105 -0.1399 -0.0605
27098W        W43172  10.857   2.502   0.310 -0.1143  0.1246 -0.0211
27099W        W43173  10.783  16.389   4.870 -0.0053  0.2244  0.1897
27100W        W43174   3.128   0.262  14.620  0.3278  0.0619 -0.1582
27101W        W43175  10.738  13.953  14.579 -0.1533 -0.1016  0.0846
27102W        W43176  14.549  10.768  14.326  0.1806 -0.1095 -0.0678
27103W        W43177   4.296  17.359   5.062 -0.1307  0.1021 -0.1006
27104W        W43178  10.706   3.809   4.271  0.0249  0.3151 -0.1063
27105W        W43179  11.899  10.898   3.855  0.1414 -0.2585  0.1720
27106W        W43180  13.791   8.465  13.887 -0.0706  0.0679  0.0185
27107W        W43181   6.164   0.451  15.292 -0.0379 -0.1233  0.0214
27108W        W43182  16.174  14.549   5.777 -0.1700 -0.3939  0.2307
27109W        W43183  16.097   9.856  15.618  0.3247  0.2095  0.0831
27110W        W43184  13.582  12.106  15.351  0.2545  0.0080 -0.3959
27111W        W43185   6.834   7.777   0.168 -0.1601  0.0819 -0.1922
27112W        W43186   2.397  11.691  13.210  0.2178  0.1936 -0.0218
27113W        W43187   4.739  13.742  13.452 -0.0533 -0.0026  0.1394
27114W        W43188   3.701  14.090   5.246  0.3716  0.1195 -0.1375
27115W        W43189   6.846  14.400  16.057 -0.1372  0.0850 -0.0141
27116W        W43190  17.464  10.531  15.744 -0.1323  0.1098 -0.0606
27117W        W43191   7.085   9.977   1.943  0.0069 -0.2369  0.0736
27118W        W43192  10.754   0.186  12.051 -0.0851  0.1528 -0.0806
27119W        W43193  13.351   6.477   4.231 -0.3654  0.1380 -0.1300
27120W        W43194  14.394   5.573   2.682 -0.2011 -0.0051  0.0413
27121W        W43195  13.163   5.108   0.449  0.2391  0.2633 -0.2161
27122W        W43196   0.191  13.313  16.555 -0.3282  0.2323  0.1659
27123W        W43197   0.926   2.367  13.475  0.2421  0.0339  0.0018
27124W        W43198   5.132   8.849  15.354  0.1067  0.1960  0.0157
27125W        W43199  12.455   3.329   2.564  0.0765 -0.0196 -0.0077
27126W        W43200   9.514   8.170   0.524 -0.3967 -0.1126 -0.3559
27127W        W43201   7.591   1.562   2.705  0.2586  0.0042  0.2249
27128W        W43202   4.711  17.464   2.497  0.0168  0.0759 -0.0637
27129W        W43203   7.060  16.873  10.400 -0.2746 -0.2218 -0.0536
27130W        W43204   4.836   4.834   0.326 -0.2027  0.0902 -0.0313
27131W        W43205  16.865  10.088  15.128  0.1101  0.0310 -0.0730
27132W        W43206  15.408  12.958  15.556  0.1187  0.2271 -0.4150
27133W        W43207   5.623   9.125  11.973  0.1242  0.0820 -0.1746
27134W        W43208   5.458   4.142  14.924 -0.3893  0.1833  0.1136
27135W        W43209  10.878  12.631   0.474 -0.0576 -0.1491  0.0869
27136W        W43210   1.582   5.794  13.739 -0.3473 -0.1279 -0.0138
27137W        W43211   2.213  13.636   2.350  0.0731 -0.0263  0.0977
27138W        W43212  11.460  14.210   4.920 -0.0877  0.3377  0.1253
27139W        W43213   1.250   2.104   4.551 -0.0309 -0.1813 -0.1932
27140W        W43214  15.452   2.988  16.233  0.1724  0.0883  0.2092
27141W        W43215  13.496  14.907  14.581 -0.0237 -0.1198 -0.2665
27142W        W43216   4.483   6.460  16.915 -0.0889 -0.1063  0.1585
27143W        W43217  11.105  13.876  14.898 -0.0220 -0.2436 -0.3049
27144W        W43218  17.177  14.650  15.104  0.2022 -0.2578 -0.1315
27145W        W43219   0.088  13.629  15.748 -0.0638  0.0759 -0.1469
27146W        W43220   8.955   0.103  16.612 -0.0238 -0.0433  0.4977
27147W        W43221  11.235  13.053   1.338 -0.1883  0.1375 -0.0237
27148W        W43222   7.133   5.150   4.945 -0.1668  0.1328  0.0209
27149W        W43223  10.175   6.673  14.156 -0.3174  0.3620  0.2156
27150W        W43224   2.222   0.015  16.756  0.1297  0.0121 -0.1157
27151W        W43225  10.031  11.405  13.076  0.0069  0.1041  0.1648
27152W        W43226   5.590   7.588  13.318  0.4061  0.1584  0.0840
27153W        W43227   9.644  16.559   5.603 -0.0653 -0.3812 -0.0129
27154W        W43228  12.614  11.741   1.772 -0.1794 -0.1238 -0.2242
27155W        W43229   1.912   5.869  10.740  0.1352 -0.1455 -0.2184
27156W        W43230   1.744  17.541  12.546  0.1675  0.1069 -0.0879
27157W        W43231   7.765   4.544   2.459 -0.0306 -0.0168  0.0510
27158W        W43232   6.065  12.616   4.653 -0.1731  0.1815  0.2736
27159W        W43233   3.281  13.812   3.783 -0.0503 -0.2127  0.0892
27160W        W43234  16.025  16.485   1.613 -0.0551  0.1008 -0.3525
27161W        W43235  17.407  16.440   2.759  0.1847  0.2013 -0.1416
27162W        W43236  13.708  13.082   4.393 -0.1136 -0.0912 -0.2650
27163W        W43237  11.192   9.501  14.927  0.3301 -0.0758  0.1177
27164W        W43238  14.741   5.163  12.434  0.3079 -0.1734 -0.1708
27165W        W43239  11.948   7.516  15.341 -0.0210 -0.1294 -0.1483
27166W        W43240  14.386   5.335  15.787 -0.1160  0.1179  0.4131
27167W        W43241  15.190   0.237  14.715  0.2594  0.0078  0.0737
27168W        W43242  10.127   1.646   0.175  0.1080 -0.0678  0.2368
27169W        W43243  13.181   1.222   5.206 -0.2156  0.2093 -0.1862
27170W        W43244  15.620  13.193   1.066  0.2191  0.0310  0.2057
27171W        W43245   0.063  12.450   5.154 -0.0268 -0.0770  0.0900
27172W        W43246   6.122  13.354   5.461  0.1072  0.2582 -0.1765
27173W        W43247  11.645  15.164   4.799  0.0760 -0.2222  0.0196
27174W        W43248  14.910   2.947  15.934 -0.0033  0.0053  0.2026
27175W        W43249   3.246   5.218   0.666  0.1701 -0.0033 -0.0291
27176W        W43250   2.723   3.606  12.727  0.2215 -0.0711 -0.0686
27177W        W43251   3.218   9.620  13.645  0.0571  0.3529 -0.1949
27178W        W43252   8.508  14.791  15.894  0.2410  0.0592  0.1466
27179W        W43253   3.980   0.362  13.995 -0.1618 -0.5892  0.0980
27180W        W43254   2.863   6.249  16.907  0.1334 -0.2759 -0.2396
27181W        W43255   9.841  14.746  11.785  0.0852  0.0852  0.1790
27182W        W43256   7.208  11.853  14.262  0.0563  0.3172 -0.0574
27183W        W43257  11.765   8.351   2.531  0.1835  0.1399 -0.1493
27184W        W43258  11.934  17.463   1.020 -0.1553 -0.2225 -0.2195
27185W        W43259  15.178   9.702  16.497  0.0816 -0.1622  0.3770
27186W        W43260  15.507  16.861   1.995  0.0932  0.2295 -0.3448
27187W        W43261   8.729   2.165   2.949 -0.1176  0.2962 -0.1597
27188W        W43262   3.187   7.794  15.722 -0.2818 -0.0906  0.1138
27189W        W43263  14.245   2.622  14.265 -0.0741 -0.1008 -0.0821
27190W        W43264   5.287   9.506  11.876 -0.1759  0.2971 -0.2563
27191W        W43265  11.966  17.303  16.402 -0.0139  0.1727 -0.2542
27192W        W43266   0.472   4.175  11.509 -0.2035  0.2933  0.1686
27193W        W43267   9.994  14.404   0.812  0.0872 -0.0525  0.1391
27194W        W43268   4.081   6.006   0.808 -0.3194 -0.0227 -0.0175
27195W        W43269  10.513   2.812   4.201 -0.1389  0.0708 -0.1512
27196W        W43270  10.576  11.513   4.318  0.1183 -0.0604 -0.1220
27197W        W43271  10.310  15.619  14.171  0.1043  0.4255 -0.2054
27198W        W43272   6.983   5.066   0.271 -0.0740 -0.0868  0.0931
27199W        W43273   3.214   6.915   3.048 -0.2413 -0.1178  0.0414
27200W        W43274  15.508   2.804  15.274  0.1044 -0.1562 -0.0828
27201W        W43275   3.850  10.476   0.647  0.2536  0.0797 -0.0673
27202W        W43276   7.219   9.500   5.666 -0.2510  0.0907  0.0833
27203W        W43277  10.830  14.984   0.554 -0.0152 -0.0547  0.0808
27204W        W43278   7.815  16.301   4.055 -0.1310  0.0529  0.0739
27205W        W43279  14.226  11.950   6.096 -0.2778  0.0638  0.0520
27206W        W43280   1.800   6.836   3.548 -0.0578 -0.1170 -0.0711
27207W        W43281   1.035  13.388  12.534 -0.0682  0.0736  0.0129
27208W        W43282   1.982  12.841   3.361  0.0458  0.3971 -0.2189
27209W        W43283  13.815  14.495   0.929 -0.0846  0.0775  0.1074
27210W        W43284  11.710   5.220  13.154 -0.1591 -0.0938  0.0843
27211W        W43285  10.892   1.625  15.202 -0.0502 -0.1656 -0.0348
27212W        W43286   9.423   5.034  12.162 -0.2588 -0.0586  0.1441
27213W        W43287   5.176  10.165   0.371  0.0037 -0.0764  0.2032
27214W        W43288   2.700  10.646   0.977  0.0166 -0.1960 -0.1723
27215W        W43289   3.367   1.486  13.652  0.0555  0.0799  0.0041
27216W        W43290   8.479  10.719   5.482  0.0254 -0.0034  0.1451
27217W        W43291  15.075   2.911  13.248  0.0130 -0.1538  0.1052
27218W        W43292   6.997   2.494  12.608  0.1748 -0.1828 -0.0934
27219W        W43293  13.474   1.566   0.325 -0.1024 -0.1535 -0.1789
27220W        W43294  13.071  14.753   0.653 -0.1137 -0.2125  0.1212
27221W        W43295   2.144   1.034  14.852 -0.0601  0.1949  0.2347
27222W        W43296   6.577   1.565  14.788  0.0713 -0.3137  0.2406
27223W        W43297   3.100   8.729  15.013 -0.1129  0.0495  0.1882
27224W        W43298  13.332   0.068   3.621 -0.2745  0.2487 -0.0820
27225W        W43299   5.392   7.946   1.860  0.1153 -0.3083 -0.0328
27226W        W43300  13.021   0.050  14.678  0.2160 -0.1139  0.4316
27227W        W43301   5.546  11.182   3.217 -0.0420 -0.2660 -0.2983
27228W        W43302  13.999   8.579  13.422  0.1307  0.1323  0.1984
27229W        W43303   8.350   7.661  16.030  0.4312 -0.0048 -0.1306
27230W        W43304  14.605   8.483   0.146  0.1239  0.2447  0.0306
27231W        W43305   2.760   3.682  12.210 -0.1028 -0.0407 -0.2082
27232W        W43306   1.933   7.878  15.316 -0.1925 -0.1693  0.1995
27233W        W43307  16.552   3.623  14.220 -0.0728  0.1105 -0.0984
27234W        W43308  13.370  14.581  15.385  0.0670 -0.0306  0.0040
27235W        W43309  17.650   0.131  14.334  0.0971  0.0738 -0.0196
27236W        W43310   5.648   1.413   1.798 -0.2678 -0.0802 -0.2412
27237W        W43311   8.239  14.244  16.000  0.0138  0.1622 -0.1059
27238W        W43312   9.052   3.986  15.774  0.2866 -0.0562  0.0451
27239W        W43313   3.565  11.369  15.539 -0.1598 -0.0630  0.1451
27240W        W43314   6.664  17.344   4.559  0.2788  0.0892  0.1016
27241W        W43315  12.529   0.471  14.109  0.0743  0.0947  0.1153
27242W        W43316  13.069   5.358  13.223  0.1898 -0.0523  0.1217
27243W        W43317  11.995  10.390   5.018 -0.0339  0.4130 -0.3280
27244W        W43318   6.119   7.283   1.753  0.1759 -0.2766 -0.2899
27245W        W43319  10.004  12.941  12.244  0.1063  0.0194  0.0887
27246W        W43320   5.933   2.248   0.366 -0.0354  0.0162  0.2787
27247W        W43321  14.807  15.006   4.791  0.0563 -0.1720  0.0470
27248W        W43322  14.591   8.647  15.903 -0.0424 -0.0979  0.0094
27249W        W43323   7.321  12.799   2.232  0.1566 -0.1415 -0.0509
27250W        W43324  10.355   1.877   2.716 -0.4182 -0.1218 -0.2283
27251W        W43325  14.799  14.277  12.360  0.1291  0.2002  0.0097
27252W        W43326   6.868  14.107  11.613  0.1314 -0.0572  0.0160
27253W        W43327   8.498   8.394  11.374 -0.2761 -0.3288 -0.1669
27254W        W43328   1.653  16.213   0.138 -0.0553 -0.0323  0.0382
27255W        W43329   8.952   7.463   4.223  0.0119 -0.1822  0.1709
27256W        W43330   9.824  10.257   0.670  0.0852  0.0001  0.1383
27257W        W43331   2.911  14.214   0.635  0.0903  0.3352  0.0027
27258W        W43332  11.995  14.079   1.148 -0.0353 -0.0019 -0.2576
27259W        W43333   6.150  12.450  13.171 -0.0822  0.0268 -0.1047
27260W        W43334   4.663   9.462   0.385  0.1885 -0.3238  0.3714
27261W        W43335  14.191  10.925  12.256 -0.0100  0.1286 -0.4894
27262W        W43336   9.217   7.689   1.846  0.0838  0.0221  0.0260
27263W        W43337   0.456  12.868   0.454 -0.2906 -0.2107  0.3093
27264W        W43338   8.095   0.959  16.104 -0.0861  0.1533 -0.0172
27265W        W43339   1.213   2.068   2.552  0.2099  0.1823 -0.0640
27266W        W43340   3.596   5.477  15.154  0.1220 -0.1854 -0.0337
27267W        W43341  10.742  10.751   1.008 -0.0959 -0.2682 -0.1629
27268W        W43342   7.677   8.665  13.850  0.0905  0.0784  0.0748
27269W        W43343  17.185  10.404   1.012  0.2724 -0.2129  0.1543
27270W        W43344   3.145   2.589   2.533 -0.1143  0.0278  0.5068
27271W        W43345  15.140   2.239  15.488  0.2561  0.1913 -0.1522
27272W        W43346  12.692   3.070  11.966 -0.0354  0.1008  0.1774
27273W        W43347  11.252   2.330  13.220 -0.3652 -0.1028 -0.0130
27274W        W43348  11.976  10.841   5.218  0.1770  0.0107  0.2707
27275W        W43349  17.312  13.732   0.589  0.1068 -0.0065  0.3552
27276W        W43350  11.255  16.843   5.405  0.1970 -0.0105  0.1422
27277W        W43351   0.961   1.635   0.005 -0.0641 -0.1349 -0.2110
27278W        W43352   1.115  16.316   1.840 -0.6217  0.3841 -0.2611
27279W        W43353  11.540  15.038   2.091 -0.0776  0.0356 -0.0790
27280W        W43354   3.353  14.206   2.736 -0.3420 -0.0478 -0.2286
27281W        W43355  14.471   1.458   2.464 -0.0748  0.2565  0.3982
27282W        W43356  15.121  10.100  16.166  0.0587 -0.0546 -0.4292
27283W        W43357   5.838  10.337   3.398 -0.1510 -0.2257  0.0343
27284W        W43358   8.844  10.189   0.349 -0.1803  0.3885  0.0152
27285W        W43359  13.508   7.980  15.399 -0.0687  0.1617  0.1609
27286W        W43360  10.629  13.972   2.307 -0.0389 -0.0103 -0.0862
27287W        W43361   3.870  17.588  14.336  0.3684  0.3896  0.1869
27288W        W43362   0.724  15.713   1.711 -0.0554  0.4060 -0.2039
27289W        W43363   9.660   7.050   2.172  0.2663 -0.0845 -0.1448
27290W        W43364   5.916   2.025  13.535  0.0190  0.1741  0.1525
27291W        W43365   6.484   5.199  15.728  0.2432  0.0423  0.0747
27292W        W43366   5.677   6.279   5.125 -0.0102  0.0898 -0.4130
27293W        W43367   0.936   7.724   0.655  0.2677 -0.0692  0.0817
27294W        W43368   5.628   7.274   3.600  0.0434  0.3596 -0.1233
27295W        W43369  17.692  12.333   2.035 -0.2285  0.2025  0.1801
27296W        W43370   0.811  10.327  13.924 -0.0498  0.1773  0.0758
27297W        W43371   7.019  10.145   4.762  0.0838  0.2247  0.0512
27298W        W43372   0.528   9.504   3.412  0.3555 -0.1027  0.0912
27299W        W43373  16.598   1.356  13.661  0.0726 -0.1341 -0.3546
27300W        W43374  13.152   2.130   5.440 -0.1235  0.1563  0.2447
27301W        W43375   0.309  16.111   3.467 -0.0201 -0.0507  0.1888
27302W        W43376   1.551   2.883  16.430 -0.0658  0.1170 -0.1383
27303W        W43377  13.292   8.674  14.902 -0.1866 -0.1769  0.3064
27304W        W43378   1.058  13.965   0.548  0.3777 -0.0779  0.0442
27305W        W43379  13.156  14.442  14.086 -0.0912  0.0333  0.0749
27306W        W43380  13.528   8.167   0.279 -0.1370  0.1126 -0.0793
27307W        W43381   2.391   1.079   2.428 -0.0937  0.0079  0.0053
27308W        W43382   7.023   1.435  11.717  0.0884 -0.0622 -0.1881
27309W        W43383   2.142   2.513  16.781 -0.0570 -0.1265 -0.0876
27310W        W43384   1.848  13.715  16.708  0.0256  0.0795 -0.2420
27311W        W43385   1.340   1.199   5.483 -0.2758  0.0230  0.0816
27312W        W43386  15.075   4.424  14.561 -0.3655  0.0527  0.0087
27313W        W43387  10.823  10.011   5.197  0.0020  0.2691 -0.0417
27314W        W43388   0.740   5.034   6.098  0.1430 -0.0344  0.0215
27315W        W43389   2.739  14.804  13.101 -0.1625 -0.0933  0.0765
27316W        W43390  10.605   3.293   3.413 -0.0451  0.3306 -0.0353
27317W        W43391   9.218   0.474   4.209 -0.1599 -0.0159 -0.1286
27318W        W43392   6.866  11.700   2.426 -0.3524  0.1164  0.1357
27319W        W43393   3.609  16.389   5.024  0.2587 -0.0545 -0.3695
27320W        W43394   9.008   8.375  13.022 -0.2299  0.2368 -0.0270
27321W        W43395  10.219   8.013  15.652  0.0109 -0.2475  0.2191
27322W        W43396  11.720  14.489  13.613 -0.0472  0.0861  0.0190
27323W        W43397  11.632   0.884   2.945 -0.2460 -0.1414  0.2526
27324W        W43398   6.826   5.845  16.168 -0.1004 -0.0064  0.2034
27325W        W43399   8.496  16.181   4.683 -0.1640 -0.0227 -0.3267
27326W        W43400  10.852  14.653  16.465 -0.3590 -0.2174  0.1284
27327W        W43401   6.675  12.169  15.909  0.0770 -0.0315  0.0155
27328W        W43402  10.318   1.681  15.249  0.1307  0.0445  0.0951
27329W        W43403  12.051  15.464   3.883  0.1911  0.1719  0.1082
27330W        W43404   8.290   4.121   1.240  0.4202 -0.1085 -0.1106
27331W        W43405  14.652  12.229   0.264  0.3582  0.0086  0.0517
27332W        W43406   1.443   4.630  12.280 -0.2079  0.1298  0.0969
27333W        W43407   4.098  11.483   1.567 -0.2172  0.0479  0.2469
27334W        W43408   1.621  12.115   0.737 -0.2055  0.1471  0.0484
27335W        W43409  15.425   9.607  14.357 -0.0238  0.0357 -0.2481
27336W        W43410  17.163  11.004  12.362  0.0561  0.2943  0.0800
27337W        W43411  11.945   5.781   3.628 -0.0716  0.1923 -0.2304
27338W        W43412   8.822   4.064  14.296 -0.5111  0.3173  0.2443
27339W        W43413  16.079   4.215  16.349 -0.0955 -0.1408  0.0549
27340W        W43414   9.193   5.782   1.236  0.2307 -0.0296  0.3166
27341W        W43415   2.191   1.872  13.244 -0.0098  0.0574  0.1469
27342W        W43416   6.124  12.894   1.043  0.0688  0.0658 -0.0240
27343W        W43417  14.017   7.144   2.496  0.1125  0.0942  0.3085
27344W        W43418   8.108  17.022   0.573  0.3635 -0.0484 -0.0403
27345W        W43419   0.962   3.358   4.556 -0.1901 -0.2498 -0.0873
27346W        W43420   6.158   6.802  12.465 -0.4373  0.0163  0.5560
27347W        W43421  15.737   9.116   4.456 -0.2306 -0.2577  0.0359
27348W        W43422   9.754  14.297  16.732 -0.1384 -0.1730  0.2889
27349W        W43423   6.439   3.997  13.097 -0.2245  0.1203  0.1394
27350W        W43424  12.285  16.669  12.245 -0.2700  0.1282 -0.0011
27351W        W43425  16.494  14.830   4.087 -0.1692  0.0033  0.2402
27352W        W43426   2.900  11.149   2.945 -0.2141  0.0902  0.0965
27353W        W43427   2.014  17.302  15.734 -0.1667 -0.2238 -0.3907
27354W        W43428   9.491  12.653  13.531 -0.0866  0.0527  0.0716
27355W        W43429  13.702  13.826  13.271  0.2923  0.0233 -0.3105
27356W        W43430   8.921  17.705   3.274  0.3705  0.1062 -0.2593
27357W        W43431  10.488  13.525   0.757  0.2373  0.0841  0.0403
27358W        W43432   0.513  14.202   2.032  0.0015 -0.1700  0.0689
27359W        W43433  15.585   8.309   4.066 -0.0519 -0.3349 -0.0280
27360W        W43434   6.298  10.069   3.322 -0.0064  0.1254 -0.1140
27361W        W43435  13.449  14.373   5.708  0.0688  0.4519  0.1343
27362W        W43436   3.673   2.939   0.385  0.0000 -0.2545 -0.1110
27363W        W43437   6.776   3.536  12.553  0.0745 -0.0582  0.3525
27364W        W43438  14.779  16.508  16.750 -0.2606  0.3828 -0.0882
27365W        W43439  12.391  16.147  12.019  0.0173 -0.0052 -0.1443
27366W        W43440   1.063  12.309   2.062 -0.3221 -0.1646  0.3241
27367W        W43441  13.570   2.954   2.966  0.3559  0.2067 -0.0981
27368W        W43442   2.569   7.489   6.111  0.1446  0.0717  0.0325
27369W        W43443  10.418  14.370   2.567  0.0985 -0.0052  0.1740
27370W        W43444  13.522  12.328  14.866  0.0572 -0.0664  0.0421
27371W        W43445  16.299   1.417   0.555 -0.0757  0.0736 -0.2747
27372W        W43446   3.543   2.353   0.996 -0.2115  0.2294 -0.1199
27373W        W43447   0.430  10.626  16.735  0.1143  0.3144  0.1363
27374W        W43448  11.155   8.909   4.644 -0.0566  0.0713  0.2433
27375W        W43449  17.084  13.735   5.312  0.1318  0.1418 -0.1996
27376W        W43450  16.999   1.858   5.298 -0.0071 -0.0290  0.2383
27377W        W43451   5.978  15.951  16.647  0.2159 -0.0449  0.2687
27378W        W43452  11.170   4.158  15.495 -0.0120 -0.0187 -0.0261
27379W        W43453  10.293   0.949  15.670 -0.0527  0.1521 -0.1002
27380W        W43454   5.519  11.862   0.452  0.1035  0.1554  0.2741
27381W        W43455  11.107  13.440   4.609  0.1147  0.0146  0.1685
27382W        W43456  10.900  12.228  11.707  0.1655 -0.0592  0.1132
27383W        W43457  17.008   0.132   1.451 -0.0653 -0.4456 -0.2531
27384W        W43458  10.215  15.682  12.789 -0.2072 -0.3168  0.0524
27385W        W43459   5.633   7.589  12.157 -0.0799 -0.3469 -0.2738
27386W        W43460  13.465   2.601  11.912  0.1334  0.2348 -0.2501
27387W        W43461  17.612   6.519   1.071 -0.0903 -0.2470  0.1089
27388W        W43462  16.496  16.530  14.729 -0.1304  0.1805 -0.3138
27389W        W43463  11.853   2.208   0.737 -0.0294 -0.2122 -0.1710
27390W        W43464   5.069   1.627  15.228 -0.1814 -0.0128  0.1351
27391W        W43465  12.467   2.414   2.754 -0.2315 -0.1586  0.1677
27392W        W43466  10.751   3.828   3.255  0.4885 -0.1004  0.0989
27393W        W43467  13.997   1.174  10.904 -0.1204  0.3886 -0.0532
27394W        W43468   8.591   3.088  16.914  0.1179  0.2608  0.0939
27395W        W43469   1.508   8.170  15.030 -0.1204 -0.1555 -0.2242
27396W        W43470   4.154   7.168   4.672  0.0437  0.3414 -0.1879
27397W        W43471   1.468  17.081   3.726  0.0075  0.0839  0.0670
27398W        W43472  16.922  13.890   4.045 -0.0435 -0.0342 -0.1787
27399W        W43473   8.957   2.494  15.196  0.1126  0.0548  0.3962
27400W        W43474   3.109   9.695  14.543 -0.0505 -0.3510 -0.3092
27401W        W43475   5.077  13.021  15.552 -0.0490 -0.4206 -0.0311
27402W        W43476  14.886  13.624   2.309 -0.1385  0.1804 -0.2763
27403W        W43477   6.207  16.015  11.517 -0.1845 -0.0666  0.0811
27404W        W43478   8.791   8.301   0.310 -0.0473  0.0945 -0.1689
27405W        W43479  16.047   8.021   2.550  0.2062  0.1230  0.0168
27406W        W43480   5.802  16.329   1.873 -0.0068 -0.4158 -0.2676
27407W        W43481   1.717  12.401  14.914 -0.3245 -0.0206  0.1363
27408W        W43482  15.101   3.692   1.119 -0.0578  0.1017 -0.0335
27409W        W43483   6.124   5.437  15.404  0.1344  0.4056  0.0980
27410W        W43484  16.092   4.813   5.571  0.1580  0.2915  0.0614
27411W        W43485   0.435  10.943   0.137  0.0796 -0.0409 -0.0750
27412W        W43486   6.257  12.588   0.635 -0.0504  0.1292  0.1305
27413W        W43487   6.964  17.728   5.199 -0.0985 -0.0753 -0.1258
27414W        W43488  12.189  12.284   3.942 -0.0969  0.1464 -0.0834
27415W        W43489  15.650  12.386  11.812  0.0318  0.1737  0.1221
27416W        W43490  16.984  11.767   4.121 -0.0314 -0.1032 -0.1024
27417W        W43491   7.265  11.376   3.466 -0.0765  0.2295 -0.2042
27418W        W43492  11.296   7.033  14.515 -0.0900  0.0233 -0.1801
27419W        W43493   1.984   1.206   3.348  0.2167 -0.3225 -0.1684
27420W        W43494   0.516   6.467   4.169  0.3064 -0.0310 -0.0984
27421W        W43495   8.409   0.916   4.195 -0.3861  0.1636  0.0323
27422W        W43496  16.711   5.556   3.962  0.0340  0.1376 -0.2235
27423W        W43497   0.204   5.278   3.833 -0.0672  0.0586  0.2445
27424W        W43498  10.813  15.964  16.597  0.0707  0.3273  0.0516
27425W        W43499   7.122   4.271  16.711 -0.0300  0.0102  0.1696
27426W        W43500   3.968   5.431  16.313 -0.1656  0.2243  0.0622
27427W        W43501   3.438   8.285   5.180  0.1204 -0.0265  0.0647
27428W        W43502   6.402  12.121   5.211 -0.1704  0.1388  0.1268
27429W        W43503   3.000   8.710   2.415 -0.0650 -0.1971 -0.0900
27430W        W43504  11.000  15.972  12.244 -0.1517 -0.0313  0.3435
27431W        W43505  13.375   8.509  14.407  0.0459 -0.0236  0.1487
27432W        W43506   6.595   0.509  11.867  0.2514  0.2980 -0.1242
27433W        W43507   6.603   8.537  11.968 -0.0469  0.1932 -0.1152
27434W        W43508   2.689  15.442  12.755 -0.1203 -0.0854 -0.1154
27435W        W43509  10.492   9.687   3.587  0.1425 -0.3024  0.0767
27436W        W43510  13.019  10.012   4.114  0.1781 -0.2221  0.1740
27437W        W43511  10.861   9.500  12.696  0.0653  0.1295  0.2214
27438W        W43512  15.810  17.522   3.906 -0.1886 -0.0952 -0.3029
27439W        W43513   6.467  13.067  12.290  0.2448  0.3422 -0.0626
27440W        W43514  11.136  12.341  13.174  0.2855 -0.1873  0.2410
27441W        W43515   9.720   2.653  14.827  0.2361  0.1136  0.1115
27442W        W43516   0.039  11.055  11.582  0.0995  0.1770 -0.1499
27443W        W43517  12.541  14.260   1.395  0.1300 -0.1561  0.0659
27444W        W43518  14.668  11.199  12.421  0.0178  0.1071  0.1704
27445W        W43519  13.244   0.868  15.769 -0.0772  0.0559  0.0987
27446W        W43520  14.128   5.247   2.360 -0.2264  0.1368  0.0125
27447W        W43521  17.274  12.045  14.500 -0.0562 -0.0379 -0.0078
27448W        W43522   2.344  16.157  14.588  0.1482  0.1276 -0.0479
27449W        W43523  13.569  13.908   3.471  0.0328 -0.0877 -0.0582
27450W        W43524   2.728   0.256  14.982 -0.2404  0.3552  0.2019
27451W        W43525  10.677   1.493   3.066 -0.0958 -0.0213 -0.0402
27452W        W43526   7.981  16.163  11.993 -0.3111 -0.0078 -0.0372
27453W        W43527   4.747   2.180  14.306 -0.2298  0.1768 -0.0652
27454W        W43528  16.608   2.419   5.381  0.3417 -0.1332  0.2306
27455W        W43529   1.133  15.612  13.427  0.0968 -0.2904 -0.1846
27456W        W43530  12.985  16.818  16.863 -0.1719  0.0164 -0.0070
27457W        W43531   0.677   5.432   1.105  0.1475 -0.1427  0.3116
27458W        W43532  10.667   9.560  13.838 -0.2305 -0.0457  0.0303
27459W        W43533  15.230  12.053  12.707  0.2780  0.0682 -0.0371
27460W        W43534  10.279   7.683  12.441  0.1305 -0.1491 -0.2422
27461W        W43535   4.352   8.069   0.208  0.1970  0.1585  0.2121
27462W        W43536  15.026  13.099   0.275  0.1793  0.1057  0.2794
27463W        W43537   5.983  11.938   5.380  0.2500 -0.1514 -0.0916
27464W        W43538   1.943   4.046  16.764 -0.0363 -0.1003 -0.0158
27465W        W43539  12.703   7.109   0.219 -0.0547  0.3571 -0.0335
27466W        W43540  13.977   8.465   1.731  0.0631  0.2483 -0.0353
27467W        W43541   3.417  11.537   4.104  0.1411 -0.4872  0.1393
27468W        W43542   9.292   4.840  15.473  0.2370 -0.2320 -0.1683
27469W        W43543   3.572  12.587   5.159  0.2148 -0.2824 -0.1531
27470W        W43544   7.704  11.541   5.617 -0.0877 -0.2903 -0.0285
27471W        W43545   3.796   7.713  11.715  0.0873  0.2173 -0.2550
27472W        W43546  17.411   5.558  14.367 -0.1627  0.1566  0.3765
27473W        W43547   0.947   6.671  14.745 -0.2067 -0.1279  0.1749
27474W        W43548  16.312   2.850   3.330 -0.0883  0.0551 -0.1961
27475W        W43549   3.123   5.994   2.382  0.1670  0.0280  0.2379
27476W        W43550  11.161   7.217   5.985 -0.0915  0.3736  0.1779
27477W        W43551   3.951   6.313   2.151  0.2141  0.2843  0.1090
27478W        W43552  13.397   5.797   5.917 -0.0968 -0.0957 -0.1218
27479W        W43553  15.585  16.478   1.047  0.2371  0.1537 -0.2847
27480W        W43554   9.144   9.100  13.469  0.4255 -0.1969  0.1311
27481W        W43555  13.128  14.140  16.429 -0.2806 -0.3123 -0.3117
27482W        W43556   0.800  16.424   3.529  0.1155  0.1898 -0.1949
27483W        W43557   8.607  14.155   2.559 -0.0664 -0.3456  0.0051
27484W        W43558   9.002   4.885   5.808  0.1746 -0.0452  0.1527
27485W        W43559   7.054  13.690   4.481  0.2191 -0.0154 -0.1014
27486W        W43560  16.816  12.645  14.933 -0.1244 -0.1822 -0.0402
27487W        W43561   7.409   7.032   3.593 -0.2151 -0.1302  0.2136
27488W        W43562  15.780  10.527  14.359 -0.2054  0.1639 -0.0178
27489W        W43563   0.384   3.622   5.477  0.1074  0.0084 -0.1131
27490W        W43564  14.438   9.745  13.732  0.1890 -0.0055 -0.0123
27491W        W43565   1.982   2.788  15.237  0.0264 -0.1936  0.4374
27492W        W43566  11.257  10.033   2.777 -0.1188 -0.0099  0.1025
27493W        W43567   7.097   7.803  16.661  0.1803  0.2274  0.3048
27494W        W43568   8.968  16.486  12.353  0.1741  0.0297  0.0883
27495W        W43569   5.648  10.969   0.702  0.1539  0.1258 -0.3126
27496W        W43570   1.724   3.509  10.500 -0.0275 -0.2535 -0.2749
27497W        W43571  15.538  14.224   0.115 -0.0249  0.1963 -0.1804
27498W        W43572  15.736  13.248  15.393 -0.1079 -0.0981  0.0193
27499W        W43573  11.975   6.052   0.770  0.2039  0.1576 -0.0008
27500W        W43574  14.962  10.838  13.340 -0.0435  0.0519 -0.1451
27501W        W43575   7.134   1.287   0.865  0.1974 -0.0413 -0.0572
27502W        W43576   2.599  15.275   6.027  0.0530 -0.1072  0.3229
27503W        W43577  12.968   5.996   5.748 -0.2615 -0.1117  0.2142
27504W        W43578  15.153   3.656  11.996  0.1972 -0.0115 -0.2203
27505W        W43579  16.979   8.798  15.433 -0.1875 -0.1135  0.1581
27506W        W43580   1.700   2.298   4.752 -0.3208  0.2319  0.2694
27507W        W43581  16.373   2.090   2.733 -0.0561 -0.2487  0.0751
27508W        W43582  15.347   8.077   3.287  0.1217 -0.0674 -0.2059
27509W        W43583  14.095  12.134   1.546  0.2817 -0.2722 -0.1904
27510W        W43584   9.124   7.065  13.749  0.0926 -0.0913  0.0523
27511W        W43585   7.716   9.752  11.634  0.1174 -0.1145  0.0114
27512W        W43586   3.045   4.885  12.265 -0.0502 -0.0281 -0.2888
27513W        W43587   3.478   3.832   2.126 -0.3345  0.1887 -0.1851
27514W        W43588  16.737  14.774   1.309 -0.0943  0.0250 -0.0964
27515W        W43589  15.524   1.330  13.756 -0.1369  0.0318  0.2034
27516W        W43590   8.476   8.118  16.969 -0.2415 -0.2595  0.1216
27517W        W43591  14.687  10.149   1.651 -0.1154  0.0757  0.0159
27518W        W43592   3.004  17.249  14.532 -0.2104  0.1287  0.0479
27519W        W43593   3.913   3.446   0.300 -0.0679 -0.1288 -0.0068
27520W        W43594   4.745  15.775   4.228  0.0539  0.1056 -0.2442
27521W        W43595   4.555  14.366  15.513  0.2517  0.2895  0.0155
27522W        W43596  12.371   4.399   1.555 -0.0607  0.0854  0.2170
27523W        W43597   5.029  10.586  15.421  0.3366 -0.1469 -0.0816
27524W        W43598  15.597   0.324  14.502 -0.0248  0.0865 -0.0740
27525W        W43599  11.747  14.918   1.538  0.1294  0.0569 -0.0491
27526W        W43600  13.028   0.993   4.749 -0.3133  0.1096 -0.1126
27527W        W43601   9.536   1.537  10.710  0.0227 -0.0477  0.1299
27528W        W43602  13.049   0.955   1.942  0.3232  0.1607 -0.0041
27529W        W43603  14.701  13.584  13.460  0.1155  0.0416  0.1120
27530W        W43604   4.743   4.906  12.310  0.0339 -0.1702 -0.0658
27531W        W43605   9.526  17.539  13.606 -0.1621  0.0528 -0.0685
27532W        W43606   1.466   5.635  16.109  0.0599 -0.1397 -0.1859
27533W        W43607   8.863   2.453  14.035 -0.0359  0.2678  0.0133
27534W        W43608  16.034   2.167   4.307  0.1554 -0.1708 -0.0281
27535W        W43609  13.974   1.673  15.145  0.0393  0.0898 -0.2799
27536W        W43610   7.764   1.315  15.721 -0.1811 -0.1116  0.1690
27537W        W43611   8.097   3.482   4.351  0.3518 -0.0247  0.0517
27538W        W43612   8.497  15.209  14.093  0.1329 -0.0260  0.0795
27539W        W43613   4.256   7.293   3.554 -0.3167  0.2034  0.0196
27540W        W43614   6.557   8.355  15.496 -0.0600 -0.0776  0.1335
27541W        W43615   7.735   3.413  15.759  0.2320  0.1082 -0.0177
27542W        W43616   1.012  14.992   3.711 -0.0377 -0.0065  0.1745
27543W        W43617  10.163   7.104  16.009  0.0723  0.1082 -0.0373
27544W        W43618  14.692   6.541   2.905 -0.0253  0.0831  0.0511
27545W        W43619  17.688  12.002  12.233 -0.0377 -0.0191  0.0906
27546W        W43620  13.939   5.216  15.999 -0.1525 -0.0415 -0.1078
27547W        W43621   9.428   7.290   5.845  0.0305 -0.1460 -0.1247
27548W        W43622  12.596   7.315  12.539 -0.2906 -0.0677  0.0110
27549W        W43623  13.326  13.247  15.186  0.0439  0.0940 -0.1796
27550W        W43624   7.904  11.859   2.037 -0.0971  0.0606  0.0309
27551W        W43625  14.845  15.199  15.723 -0.1876  0.2111  0.0044
27552W        W43626   3.062   2.355  12.111 -0.2396  0.2614  0.1892
27553W        W43627   3.663  10.916   0.311  0.2994 -0.0681 -0.0541
27554W        W43628   7.584   4.209  12.292 -0.1079  0.2845 -0.1716
27555W        W43629  17.744  10.088   0.242  0.4559 -0.2666  0.1142
27556W        W43630  16.490   6.914   3.105  0.0468 -0.2122 -0.0710
27557W        W43631   6.283  15.835  14.586  0.0420  0.1089 -0.0975
27558W        W43632  12.105   2.115   5.405 -0.0037 -0.1076 -0.0078
27559W        W43633   2.590   0.002  13.138 -0.0939 -0.0937  0.1090
27560W        W43634   1.646   9.946  14.149  0.1669 -0.1848 -0.1056
27561W        W43635  17.056  15.304  15.465  0.1545  0.1859 -0.0422
27562W        W43636  10.495  12.444  15.051 -0.2631  0.1590  0.1161
27563W        W43637   0.564   8.566  14.167 -0.2098  0.1707  0.0066
27564W        W43638   8.119   3.734   5.525  0.2633 -0.1638 -0.1594
27565W        W43639   8.290  15.891   1.300 -0.1326 -0.0255  0.0076
27566W        W43640  11.364   5.269  15.057  0.0731 -0.2766 -0.2551
27567W        W43641   5.449  11.889  13.898 -0.1879  0.1381  0.0088
27568W        W43642  13.081   3.130   1.039  0.2020 -0.2609  0.0804
27569W        W43643   9.396   9.194   6.001  0.0685  0.1777  0.2100
27570W        W43644  15.822   1.282   2.879  0.0034  0.2067  0.0793
27571W        W43645   6.596  13.656   1.745 -0.0613  0.2384 -0.0573
27572W        W43646   2.165  15.888  15.562  0.0781 -0.0849 -0.1259
27573W        W43647   4.272  15.530  14.691 -0.1195  0.0242  0.2734
27574W        W43648   9.714  10.939   4.001 -0.0862  0.0999  0.0172
27575W        W43649   8.888   1.260   3.369 -0.0879 -0.3394 -0.2246
27576W        W43650  10.524  11.280   1.044 -0.2106 -0.1803 -0.1472
27577W        W43651  17.380   9.349   5.923 -0.0882 -0.2192  0.0877
27578W        W43652   9.410  14.651  16.864 -0.2350 -0.0194  0.0259
27579W        W43653  16.137  17.349   5.091  0.1232 -0.0798  0.0508
27580W        W43654   5.657   3.285   4.717  0.0792 -0.1568 -0.0881
27581W        W43655  15.074   6.849   5.460  0.1068 -0.2590 -0.1118
27582W        W43656  17.524   4.784  12.332  0.0550 -0.0001  0.0310
27583W        W43657   0.525   4.991  13.887 -0.1610 -0.1019  0.1396
27584W        W43658   4.942  17.318   0.474  0.0502  0.2410  0.0831
27585W        W43659  13.107  14.428  11.434  0.1682  0.2353  0.1415
27586W        W43660  16.378   5.011  13.391 -0.0552  0.2768  0.0006
27587W        W43661   2.126   8.308  15.168  0.1847 -0.1719  0.0045
27588W        W43662  13.635   0.577  16.514 -0.0712  0.0677  0.0637
27589W        W43663   5.875  12.065   4.234 -0.0197 -0.0328 -0.2322
27590W        W43664   3.530   7.735  14.301  0.1389  0.2202 -0.1768
27591W        W43665   0.554  14.616   1.687 -0.0138  0.0313 -0.0644
27592W        W43666   8.736  11.367  16.520  0.2563  0.1219 -0.1948
27593W        W43667   8.673  15.287  15.115  0.0926  0.0156  0.2245
27594W        W43668   3.464  15.578  15.615  0.0652 -0.0344 -0.3049
27595W        W43669  13.258  16.331  15.995  0.0757 -0.0305 -0.0485
27596W        W43670   1.278   2.408   3.167 -0.4105  0.2339 -0.0111
27597W        W43671   7.732   3.146   4.656  0.0244 -0.2433 -0.1314
27598W        W43672  11.175   1.552   2.964  0.0597 -0.1215 -0.0529
27599W        W43673  13.068  14.403   3.981 -0.1171 -0.2730  0.2204
27600W        W43674   1.096  13.706  11.844 -0.3105 -0.0831  0.0007
27601W        W43675   4.008   8.710   6.522 -0.0607 -0.2895 -0.1426
27602W        W43676   8.702  17.076   1.900  0.1353  0.0036 -0.1774
27603W        W43677   2.438  16.385   2.636  0.2157 -0.1406  0.2040
27604W        W43678  13.576   9.345  16.469  0.0951 -0.2733  0.0939
27605W        W43679   0.459  14.802  12.764 -0.0139 -0.3369  0.1788
27606W        W43680   1.798   9.904   0.943 -0.4760 -0.1516 -0.1332
27607W        W43681   9.734  10.192  14.228 -0.2765  0.0117 -0.0913
27608W        W43682   3.162   4.478  10.689  0.0789  0.1650  0.0747
27609W        W43683   0.969  13.726   4.475  0.2743 -0.1268 -0.0202
27610W        W43684   6.030   6.129   4.787  0.0130  0.1786 -0.2084
27611W        W43685   8.647  12.610  16.536  0.0838 -0.0114 -0.2639
27612W        W43686  15.297  13.508  12.731  0.0754 -0.2626  0.2167
27613W        W43687   0.672   0.730  12.183 -0.1900 -0.2274  0.2913
27614W        W43688  17.679   7.432  16.803 -0.0623 -0.0572  0.1612
27615W        W43689  12.402   6.549  15.216 -0.2468 -0.3742  0.2125
27616W        W43690   0.763   5.892  13.718 -0.3083 -0.0185 -0.3545
27617W        W43691  15.537   2.440   2.801  0.1503  0.1008  0.0854
27618W        W43692  11.931   6.981   0.170 -0.3530 -0.1387 -0.3607
27619W        W43693   8.668   5.318   5.656  0.0318  0.1444  0.3153
27620W        W43694  13.390   3.701   2.173  0.1813  0.2974  0.0068
27621W        W43695  13.168  17.077   1.140 -0.3460  0.1161 -0.1865
27622W        W43696   1.787  13.793   5.426  0.0269 -0.0333  0.2870
27623W        W43697   4.090   7.209  13.918  0.3429 -0.2351  0.0280
27624W        W43698  15.961  15.614   0.213  0.4875  0.2095  0.2977
27625W        W43699   2.029  11.843   4.990 -0.3537  0.0514 -0.1082
27626W        W43700   4.960   9.315  12.253  0.0863 -0.1840  0.2959
27627W        W43701   2.958  11.178   0.938  0.2042  0.1688  0.0432
27628W        W43702   4.209   4.631  14.331 -0.1140 -0.0506 -0.0912
27629W        W43703  16.176   9.808  12.979  0.2882  0.1102  0.1076
27630W        W43704  12.145  12.010  13.238 -0.1346  0.0267  0.2529
27631W        W43705  15.990  11.162   0.387  0.0880 -0.3183 -0.3002
27632W        W43706   1.720   2.318   2.333 -0.2117 -0.0319  0.0522
27633W        W43707   5.012   8.822   1.545  0.0668  0.0242  0.2641
27634W        W43708  15.831  15.666   0.689 -0.1957 -0.1386 -0.0923
27635W        W43709  17.206  13.093   3.037  0.1489 -0.2050  0.0676
27636W        W43710   8.984  16.981   3.896 -0.4746  0.2779  0.0453
27637W        W43711   4.777  14.295   1.386  0.2071  0.1065  0.0802
27638W        W43712  13.422   0.109   2.057  0.0541 -0.0143 -0.0346
27639W        W43713   2.643  14.327  12.715 -0.0683 -0.1360  0.3198
27640W        W43714   0.575  14.012  13.014 -0.0872  0.0671 -0.1141
27641W        W43715   9.691  16.285  15.381  0.2472 -0.1827 -0.1788
27642W        W43716  15.192  11.691   0.100  0.3399 -0.2130  0.2674
27643W        W43717   0.162   7.492  12.131 -0.0288 -0.3557  0.0892
27644W        W43718   3.576   0.565   2.613  0.0758  0.0484 -0.0138
27645W        W43719   4.328   3.296   3.529 -0.1360 -0.3029 -0.3006
27646W        W43720   0.130   0.029   4.036 -0.3141  0.1931  0.1075
27647W        W43721  13.886  17.476   3.876 -0.0386  0.4098  0.3229
27648W        W43722   6.515   9.186  15.876  0.0164 -0.2025 -0.2698
27649W        W43723   8.319  16.431  14.333 -0.2013 -0.0229 -0.2802
27650W        W43724  14.336  10.255   2.577 -0.3436  0.0725  0.0735
27651W        W43725   3.834   7.551   0.854 -0.3452  0.0501  0.2051
27652W        W43726   6.005  11.407  11.742 -0.0029  0.0549 -0.0457
27653W        W43727   2.027  13.651   2.927  0.1346  0.0886  0.0636
27654W        W43728   3.474  12.094   5.183  0.0408  0.1598 -0.0602
27655W        W43729  17.089  13.205  11.897 -0.0752  0.1459 -0.2547
27656W        W43730  15.434  15.428  12.880  0.0230 -0.1222  0.1633
27657W        W43731   8.404   6.161   6.019  0.1629 -0.2086  0.3202
27658W        W43732  10.166   1.231  12.713  0.0727 -0.2540 -0.0195
27659W        W43733   5.016  17.680   3.370  0.2254 -0.2923 -0.1269
27660W        W43734  14.211   9.009  14.919  0.1705 -0.2140  0.3065
27661W        W43735   6.012  11.576   1.801  0.0829 -0.1915  0.1556
27662W        W43736   0.793   1.479  13.279 -0.1239 -0.1018  0.1386
27663W        W43737  11.208  17.602   0.454  0.0176 -0.5354 -0.2873
27664W        W43738   3.241  14.988  14.739  0.0048 -0.2448  0.0931
27665W        W43739   5.992   2.388  13.017  0.1561  0.1835  0.1936
27666W        W43740   6.540  12.843  13.976 -0.0058 -0.0398  0.0776
27667W        W43741   5.799  15.934  14.250 -0.3577 -0.0533 -0.1747
27668W        W43742  14.512   6.464  16.902 -0.0109  0.1145 -0.0773
27669W        W43743  11.980  10.423  12.979  0.0920 -0.0862  0.0055
27670W        W43744  12.848  13.134  14.658 -0.1603  0.2358  0.0545
27671W        W43745  15.632  11.893   3.828 -0.1310 -0.2157 -0.3883
27672W        W43746  13.633   1.392   1.332 -0.4665 -0.1940 -0.1836
27673W        W43747   0.962   4.920   3.663 -0.5252  0.0023 -0.0467
27674W        W43748  10.573  13.344  11.406 -0.0885 -0.2340  0.3382
27675W        W43749  17.097  14.162  15.300 -0.0578 -0.0696  0.0432
27676W        W43750   5.394   3.335  16.034 -0.0906 -0.0010 -0.0518
27677W        W43751   7.181   3.776   0.464 -0.0382  0.2883  0.1215
27678W        W43752   7.687   6.004  11.894 -0.1474  0.0576  0.1489
27679W        W43753   4.495   0.875   2.386 -0.0543 -0.0723  0.2632
27680W        W43754   2.747  17.018   4.026  0.1968  0.0273  0.0742
27681W        W43755  12.846   9.796   1.100  0.1792  0.1329 -0.2016
27682W        W43756   0.463   7.159  15.982  0.1147 -0.1611  0.0244
27683W        W43757   2.679   7.628   2.800  0.2883  0.0056 -0.1765
27684W        W43758   1.814  14.129   6.224  0.1065  0.1081  0.2186
27685W        W43759  15.520  13.760  14.506 -0.0308 -0.1294  0.0240
27686W        W43760  14.833   8.584  13.727 -0.1642 -0.1092 -0.0391
27687W        W43761  14.578   2.474   0.845  0.0235  0.1015 -0.5586
27688W        W43762   8.881   2.337  14.602  0.0380 -0.0096  0.2141
27689W        W43763  11.556   6.285  11.647  0.2617  0.1140  0.0083
27690W        W43764  17.132   8.530  14.371 -0.1434 -0.1347  0.0128
27691W        W43765  17.254  11.266   0.433 -0.1364  0.1036 -0.0634
27692W        W43766  14.734   5.573   4.912  0.1209  0.0165  0.3917
27693W        W43767  10.142   9.536  12.718  0.1798  0.0520 -0.1794
27694W        W43768  10.498  12.508  12.401 -0.1316 -0.2624  0.1550
27695W        W43769   4.423  17.316   3.615 -0.0089 -0.2687  0.2284
27696W        W43770   2.537  10.232   0.892  0.0302 -0.1066 -0.0039
27697W        W43771   4.939   4.337   0.158 -0.3352  0.0032 -0.0382
27698W        W43772  12.394  14.164   0.405  0.1574  0.2375  0.3130
27699W        W43773  13.491   3.784   1.663  0.1265  0.1332  0.4153
27700W        W43774   4.093   1.662  16.710 -0.0515  0.2396  0.3213
27701W        W43775  13.979   4.437  16.473  0.1091  0.0038 -0.2387
27702W        W43776   6.665   2.925  16.422 -0.2131  0.0897  0.0111
27703W        W43777  13.974   9.174  15.664 -0.0454  0.3624  0.0521
27704W        W43778   0.086   0.211   1.675  0.0110 -0.1008  0.0618
27705W        W43779   7.095   3.837   3.288  0.1707 -0.0034  0.1375
27706W        W43780   6.832   3.895  11.667 -0.0038 -0.2297 -0.2447
27707W        W43781   5.667   3.540   3.276  0.1551 -0.0712 -0.1580
27708W        W43782  12.682  16.383  14.190 -0.2369  0.0591  0.1169
27709W        W43783   2.729   0.459  11.774 -0.1116 -0.0784 -0.0615
27710W        W43784   5.433   4.754   5.607  0.4027  0.2045 -0.0190
27711W        W43785  15.918   7.774   1.454 -0.0942 -0.0878  0.2919
27712W        W43786   7.693   1.846  15.479  0.0304  0.1790 -0.0553
27713W        W43787   3.978   4.207   1.418  0.0879  0.0100  0.1862
27714W        W43788   2.034   8.709   2.830  0.1856  0.1964 -0.1841
27715W        W43789   2.091  14.154   3.067 -0.1963 -0.1728  0.1949
27716W        W43790  10.344  11.185   0.154 -0.0140 -0.0860 -0.0421
27717W        W43791   2.902   1.537  14.888 -0.1055 -0.0315  0.1239
27718W        W43792  15.654   8.118  13.533  0.0728 -0.0456  0.4670
27719W        W43793  16.409  13.833  14.206 -0.0138  0.1023  0.1749
27720W        W43794   2.444   7.811  15.271  0.1288  0.1786  0.1970
27721W        W43795   3.519   6.745   5.756  0.0068  0.0220  0.1032
27722W        W43796   0.167   7.661   5.151  0.0909  0.1374 -0.0265
27723W        W43797   0.743  13.708   3.555  0.1842  0.0860 -0.2395
27724W        W43798  11.137  10.019   0.604  0.0107 -0.0922 -0.0758
27725W        W43799   9.798   8.351   1.006  0.1723  0.1227 -0.1069
27726W        W43800   9.559  11.630  12.084  0.0189  0.1653  0.1433
27727W        W43801   8.559   0.787  14.515  0.0947  0.2103 -0.0895
27728W        W43802   1.657  15.337  13.360 -0.2556  0.1716  0.0565
27729W        W43803  11.364  11.234   5.270  0.0594 -0.1252  0.2880
27730W        W43804  13.424  17.301  11.575  0.0142  0.0707  0.1874
27731W        W43805   4.373  13.341   2.415 -0.2516 -0.0017 -0.0999
27732W        W43806  14.462   6.892  12.150 -0.1276 -0.0789 -0.1499
27733W        W43807   8.191  11.510   4.549 -0.2550  0.2321 -0.0123
27734W        W43808   0.871   2.878   5.016 -0.3111  0.1447  0.0168
27735W        W43809   5.318   0.804  12.196 -0.0548 -0.0042  0.0561
27736W        W43810  14.406   6.092   2.549 -0.2901  0.0636  0.0637
27737W        W43811   6.059  12.883   5.059 -0.1592  0.2371  0.0381
27738W        W43812   5.326   0.165   4.849 -0.2116 -0.1364 -0.0230
27739W        W43813   1.953   0.129   2.323  0.2133  0.1528 -0.0381
27740W        W43814  15.231   5.223   1.546 -0.2206 -0.1687 -0.0029
27741W        W43815   0.666  16.176   1.461  0.1455 -0.0539 -0.1929
27742W        W43816  13.845   0.846   2.406 -0.2525  0.1664 -0.0142
27743W        W43817   5.744   5.972   0.020 -0.2033 -0.2097 -0.0075
27744W        W43818   3.567  14.770  11.141  0.0624  0.0021 -0.0668
27745W        W43819  13.634   6.771  11.684 -0.0190  0.0207  0.0414
27746W        W43820   8.375  15.192  13.581 -0.0263 -0.0184 -0.0983
27747W        W43821  14.456   7.056   0.601 -0.0424  0.0452  0.3122
27748W        W43822  14.614  16.811   2.341  0.0173  0.0483  0.2429
27749W        W43823   1.071   1.831  15.219  0.1433 -0.2820 -0.2230
27750W        W43824  15.881  15.304  13.641  0.1064 -0.1132 -0.0045
27751W        W43825   7.533   1.861   1.150 -0.0692 -0.0619 -0.1211
27752W        W43826  16.625   4.657  12.160 -0.1174  0.1700  0.0635
27753W        W43827   2.315   1.594   2.672 -0.2272 -0.0727 -0.1970
27754W        W43828   0.601  17.351  16.953 -0.1300 -0.0975 -0.4169
27755W        W43829  17.803   4.065  15.053  0.1793 -0.2148 -0.1035
27756W        W43830   9.451  10.375  16.362 -0.3641 -0.2629 -0.1159
27757W        W43831  16.401  11.777   3.193 -0.0886  0.0676 -0.0217
27758W        W43832   1.622   0.740   5.607 -0.1719  0.0166  0.4252
27759W        W43833  15.863   2.501  15.983 -0.0674  0.2380 -0.1792
27760W        W43834   4.232  11.693  14.428 -0.0813 -0.1675 -0.0221
27761W        W43835   6.926   0.509  13.623 -0.0593  0.2182  0.2429
27762W        W43836  16.848  14.308  15.645 -0.0120 -0.2608 -0.3630
27763W        W43837  11.826   8.382   1.653  0.2797  0.1449 -0.0112
27764W        W43838  16.852  16.937  14.657 -0.3636 -0.0671 -0.1868
27765W        W43839  12.502   6.053   4.270  0.1943  0.0667 -0.1820
27766W        W43840   7.675   0.160  13.000  0.1098  0.1874  0.0789
27767W        W43841   1.804   8.669   3.324  0.3142 -0.0622  0.1564
27768W        W43842   9.089   3.661   4.991  0.0249  0.2334  0.2575
27769W        W43843  16.897  13.315   2.698  0.0639  0.2423 -0.4528
27770W        W43844   9.396  10.017  13.407  0.2751 -0.0429 -0.0634
27771W        W43845  17.736   0.283   2.501  0.2307  0.0313  0.0485
27772W        W43846  10.590   2.840   3.531 -0.3487  0.0964  0.2883
27773W        W43847  13.995   5.253  12.676  0.0734  0.0782  0.2241
27774W        W43848   9.453  14.490  13.053 -0.0176 -0.0531  0.0399
27775W        W43849  15.279   9.400   0.476 -0.1140  0.1363 -0.1117
27776W        W43850   6.517  12.108  11.844  0.2800 -0.0336 -0.0397
27777W        W43851  17.493   1.049  15.747  0.2628  0.0203  0.0904
27778W        W43852  12.441  13.187   0.108 -0.3508  0.0426 -0.0953
27779W        W43853   7.946   7.610   4.007  0.3730 -0.3754 -0.1817
27780W        W43854   1.021   7.938  15.131 -0.0886  0.0181  0.3340
27781W        W43855  16.486  10.267  12.375  0.0980  0.1860  0.0641
27782W        W43856   4.829   0.545  11.272  0.0003  0.0299 -0.1633
27783W        W43857   6.121   4.565  11.891 -0.1569 -0.0128  0.0152
27784W        W43858   2.763   4.547  12.535  0.0719  0.0741  0.1101
27785W        W43859   0.774   1.630   0.837 -0.3018  0.0139 -0.0443
27786W        W43860  11.193  15.515  13.832  0.1401 -0.1100 -0.1326
27787W        W43861  10.842  10.946  16.092  0.1324 -0.1606 -0.0013
27788W        W43862  15.110  15.167  11.270  0.1131  0.2292  0.1681
27789W        W43863  13.167  13.710  15.214 -0.1141  0.0333 -0.2548
27790W        W43864  15.449   7.800  14.412  0.0065  0.1096  0.1029
27791W        W43865  10.022   0.085   2.525 -0.0252 -0.2114 -0.2242
27792W        W43866  11.466  17.830   4.633 -0.0289  0.0026  0.1505
27793W        W43867   0.729   4.358  13.015 -0.1316  0.4417 -0.1811
27794W        W43868   9.259   3.517   0.645 -0.0706 -0.3333 -0.1223
27795W        W43869   1.216  14.370  13.817  0.0197  0.2034 -0.1116
27796W        W43870  13.674   7.110   4.191  0.2120  0.0484  0.1062
27797W        W43871  14.282  14.274  13.718 -0.1297  0.0657 -0.1136
27798W        W43872   2.418   5.488  14.892  0.0048  0.0351  0.0691
27799W        W43873  11.533   8.134  12.530  0.3406 -0.0203  0.1763
27800W        W43874   5.057  10.302  14.147 -0.1226  0.1943 -0.2162
27801W        W43875  14.404   7.392   3.589 -0.0757 -0.0602 -0.2878
27802W        W43876  12.747   7.852   2.234 -0.4117 -0.1165  0.1764
27803W        W43877   3.904   7.235   0.193  0.1024  0.1140 -0.2489
27804W        W43878  16.365  14.633   0.390  0.1296 -0.0732 -0.3241
27805W        W43879  13.352  11.651   2.508  0.0562  0.2520 -0.1156
27806W        W43880   6.623  14.889  12.012 -0.0812  0.0483  0.1339
27807W        W43881  13.800  16.464  16.686 -0.3310 -0.1356 -0.3060
27808W        W43882  15.394  15.397   0.821 -0.1017 -0.0806 -0.0487
27809W        W43883   2.992   6.134   1.653 -0.1792 -0.1127  0.1261
27810W        W43884  16.598  14.313   5.320 -0.5951 -0.2329  0.0083
27811W        W43885   2.579   9.009  16.256 -0.0859 -0.0563 -0.1602
27812W        W43886   2.446  11.764   4.612 -0.0547 -0.1545  0.0972
27813W        W43887  13.240   9.108  11.902 -0.3470  0.5478  0.1429
27814W        W43888  11.195   1.178   1.825 -0.0879  0.0759 -0.0400
27815W        W43889  12.784   9.896   0.543 -0.0440  0.2604 -0.0107
27816W        W43890  15.404  17.470  13.559  0.2737  0.2129 -0.2588
27817W        W43891   2.776  17.326  16.606 -0.1422 -0.1140  0.3146
27818W        W43892  13.161  14.353  15.918 -0.0111  0.1140  0.0056
27819W        W43893  10.494   6.036   0.623  0.0741 -0.1409 -0.1963
27820W        W43894   5.792   1.819   0.639  0.0082 -0.0916  0.1854
27821W        W43895  16.154   5.777  13.536 -0.2044 -0.0638 -0.2130
27822W        W43896   7.520   5.724   0.421 -0.0500 -0.2626  0.0879
27823W        W43897   2.300   3.261  12.785  0.1425  0.1434  0.0979
27824W        W43898  13.500   8.738   4.279  0.2880 -0.3630  0.1546
27825W        W43899  11.159  10.368  12.906  0.2758 -0.2524 -0.3269
27826W        W43900   9.770  12.251  13.318 -0.1853 -0.3868  0.2419
27827W        W43901   3.445  11.303  13.981 -0.2475  0.0371  0.0106
27828W        W43902   9.061  15.015   1.458 -0.0273 -0.0618 -0.2239
27829W        W43903   0.703   1.262  12.226 -0.2563 -0.1563 -0.2111
27830W        W43904   4.025   4.071  16.151 -0.1157 -0.1897  0.1231
27831W        W43905   7.081  17.217   1.607  0.2089 -0.3347  0.2273
27832W        W43906  13.666   5.737   4.921 -0.0361  0.1224 -0.1811
27833W        W43907  17.094  17.430  15.559  0.2135  0.0710 -0.1555
27834W        W43908   4.166   3.387  14.456 -0.2854  0.0337  0.1002
27835W        W43909   9.946   6.848  16.446 -0.0583  0.0069 -0.0516
27836W        W43910  11.147   8.965   1.711  0.1179 -0.0515 -0.1925
27837W        W43911   0.341   4.003   6.361 -0.1325  0.0413  0.0533
27838W        W43912  17.551  13.238   0.360  0.0349  0.1380 -0.0271
27839W        W43913  12.709   5.602  15.566 -0.2280 -0.1328 -0.1250
27840W        W43914  14.434   6.361  13.312 -0.1899 -0.1316 -0.0079
27841W        W43915  11.245  12.246   4.868  0.2436  0.3094  0.0752
27842W        W43916   9.349   7.440   3.490  0.0074  0.0686 -0.0487
27843W        W43917   2.048  12.164  14.162 -0.0515  0.0382  0.1572
27844W        W43918   6.036  16.168   5.601 -0.2001 -0.0917  0.0121
27845W        W43919   8.125  10.478  16.226  0.1058  0.2167 -0.0669
27846W        W43920   0.598  15.881   2.683  0.0862  0.0919 -0.2685
27847W        W43921   9.161   8.544  13.476 -0.1510  0.0247 -0.0176
27848W        W43922   1.544   1.458  12.178  0.1090 -0.1239  0.0357
27849W        W43923   7.933   5.071   4.714 -0.0786 -0.0160 -0.5110
27850W        W43924   8.332   1.191  14.437 -0.1112  0.1327  0.2007
27851W        W43925  14.573   7.052   5.683 -0.0414  0.0721  0.0894
27852W        W43926   1.868   2.152  11.882  0.1839 -0.1304 -0.1611
27853W        W43927   5.823  13.711   6.221 -0.0183 -0.0389  0.1216
27854W        W43928  16.934   2.714  14.179  0.1275  0.2384  0.2847
27855W        W43929  12.948  17.296   0.744  0.2201  0.0442 -0.3092
27856W        W43930   3.243  15.866   0.444 -0.0402 -0.1018  0.3164
27857W        W43931   5.613   4.115  13.231 -0.0464  0.0119 -0.1643
27858W        W43932   6.014  15.709  13.703  0.0931  0.3250  0.1697
27859W        W43933   7.489  11.062   2.507  0.2354 -0.0951 -0.2504
27860W        W43934  13.926  17.821  15.200 -0.1898 -0.1148 -0.2384
27861W        W43935  11.011   6.923   1.903  0.0570  0.0380  0.2634
27862W        W43936   2.262   7.405   5.016 -0.0584 -0.2238  0.1930
27863W        W43937   7.974  10.638   3.747  0.0962 -0.1840 -0.3653
27864W        W43938   5.187   6.359  14.976 -0.0418 -0.0011 -0.0618
27865W        W43939   1.147  11.923   0.786  0.0123 -0.1473 -0.1304
27866W        W43940  12.856   8.575  14.166 -0.0264  0.0269 -0.1393
27867W        W43941   6.229  12.834   1.934  0.2720  0.0217 -0.1825
27868W        W43942   6.078  12.907  16.103  0.2270 -0.1366 -0.4234
27869W        W43943  14.112   9.851   2.250  0.1029 -0.0353  0.0976
27870W        W43944   4.508  10.341  15.441  0.1830  0.0492 -0.0026
27871W        W43945   7.625   7.493   3.308 -0.0736  0.1824  0.0360
27872W        W43946  15.286  13.499  15.237  0.3077  0.2357  0.1942
27873W        W43947  14.350   1.102   0.769  0.0214 -0.1851  0.1484
27874W        W43948   8.707  17.661  14.714  0.2359  0.0424 -0.1195
27875W        W43949   5.082   2.016  16.516 -0.0478  0.0678  0.3184
27876W        W43950  14.780  13.191   2.935  0.2269 -0.3188 -0.1644
27877W        W43951   5.528   6.464   0.092  0.0948 -0.0349  0.1880
27878W        W43952   5.469   2.378   5.176  0.0334  0.0202 -0.0651
27879W        W43953   5.215  11.770   2.122 -0.2689 -0.2127  0.2480
27880W        W43954  13.200  13.975   1.577  0.2802  0.0384  0.1113
27881W        W43955   3.519  14.096   1.848  0.0650  0.3141 -0.1045
27882W        W43956   9.705  10.127   3.716  0.3272  0.0824 -0.2242
27883W        W43957  11.173   1.573   0.599  0.3119  0.0491 -0.1791
27884W        W43958   4.470   0.453   1.008  0.3985  0.1295 -0.1376
27885W        W43959   0.768   3.712  16.896 -0.0507  0.1985 -0.2024
27886W        W43960   5.210  13.232   1.734 -0.0416 -0.1467 -0.0738
27887W        W43961   1.390  14.298  16.007  0.0023  0.2352 -0.2342
27888W        W43962  17.698  14.429  15.843 -0.0606 -0.5607  0.2376
27889W        W43963   9.061   5.418   2.840  0.3726 -0.0359  0.4683
27890W        W43964  11.792  16.681  12.098  0.0649 -0.1960  0.0712
27891W        W43965   5.657   3.480   1.340 -0.1264 -0.0335  0.2447
27892W        W43966   7.764   9.145   3.377 -0.2121  0.0500  0.1978
27893W        W43967   5.341   7.392  14.659 -0.0431 -0.1275  0.1948
27894W        W43968   5.737  16.254   3.542 -0.2405  0.0612  0.0409
27895W        W43969   5.381  11.169  14.082  0.0971  0.0277  0.0307
27896W        W43970   8.341   9.397   1.748  0.0265  0.3702  0.2325
27897W        W43971   7.468   6.175  15.512 -0.2755 -0.2473  0.2262
27898W        W43972  11.792  15.984  16.022  0.0111 -0.2997  0.2256
27899W        W43973   1.193   9.391   0.078  0.1523 -0.2121  0.0823
27900W        W43974   4.679  11.760   4.727  0.1029  0.7448 -0.1271
27901W        W43975   4.900  17.451   0.953 -0.0488 -0.0471  0.0738
27902W        W43976   4.734  15.856   2.096  0.0302  0.1544  0.2626
27903W        W43977   4.084   0.207  13.540  0.1537  0.0618  0.0308
27904W        W43978  15.904  14.674   1.134 -0.3510 -0.1411  0.1936
27905W        W43979   3.939   9.074   0.666 -0.3022 -0.2554  0.3651
27906W        W43980  12.364  13.772   6.228 -0.0464  0.0808  0.0587
27907W        W43981  10.337   6.160  13.266  0.0460 -0.1982  0.3938
27908W        W43982  17.292  15.990  12.555  0.0724 -0.1315  0.1524
27909W        W43983   4.054  15.608  16.660  0.2151 -0.2126 -0.3067
27910W        W43984   3.089   1.970  15.393  0.0158 -0.2895 -0.1027
27911W        W43985   1.647   2.768  13.653 -0.2057 -0.1074 -0.2204
27912W        W43986   4.714   7.890   5.408 -0.1115  0.0907  0.0237
27913W        W43987  14.924   3.348  15.086 -0.0374  0.3529 -0.1852
27914W        W43988  12.686   2.379  15.210  0.0428 -0.1363  0.1433
27915W        W43989   6.216   0.184  13.115  0.2436 -0.0205 -0.1518
27916W        W43990  16.488  10.293   3.286  0.1165  0.2367  0.1697
27917W        W43991   1.748  12.288   1.199 -0.1656 -0.0284  0.1552
27918W        W43992  13.234   9.581   0.688  0.1145 -0.1373  0.0166
27919W        W43993   6.832   3.215   0.597 -0.2073  0.1807  0.0100
27920W        W43994  14.927   8.863   4.124 -0.0221  0.0037 -0.3050
27921W        W43995  10.881  12.363   3.205 -0.3148  0.3526  0.3713
27922W        W43996  16.022  13.541  15.694  0.1396 -0.2010 -0.0403
27923W        W43997   6.787   6.284  16.519 -0.0792 -0.1008  0.1142
27924W        W43998  10.014   0.176  13.756 -0.1003  0.1044  0.0002
27925W        W43999  16.901  11.742  15.417 -0.0095  0.1418 -0.2205
27926W        W44000  17.007   5.692   5.530 -0.0017 -0.4707 -0.1549
27927W        W44001   9.779  10.572  12.084  0.2593 -0.2867  0.0141
27928W        W44002   0.672  11.971  10.971  0.1305 -0.2515  0.0185
27929W        W44003   9.534   4.792  16.869 -0.0450 -0.0794 -0.2570
27930W        W44004  16.976  14.639   5.337  0.1764 -0.0836 -0.1338
27931W        W44005   9.582  17.074   2.126 -0.3772  0.1214  0.3498
27932W        W44006   6.167  17.091  11.490 -0.3306 -0.0612 -0.0541
27933W        W44007   2.161   3.495   3.660 -0.2164 -0.0484 -0.0764
27934W        W44008   4.380  16.307  13.050 -0.1477  0.0316 -0.0326
27935W        W44009  13.423   3.340  14.992  0.0049 -0.0005  0.0330
27936W        W44010   1.678  17.617  15.472 -0.1784 -0.0898 -0.0039
27937W        W44011  11.035  16.790   2.160  0.2795  0.1542  0.2291
27938W        W44012  17.766   8.704   6.431 -0.2013  0.2808  0.3875
27939W        W44013   8.854  11.115   5.366  0.3417 -0.0664 -0.0989
27940W        W44014  17.064  17.306   3.270  0.0014  0.0612  0.0031
27941W        W44015  14.747   8.016  13.953 -0.0985  0.2644  0.1214
27942W        W44016   6.843  17.654  13.031  0.3632 -0.0849  0.0250
27943W        W44017  16.770   0.153   1.021  0.1137 -0.4489 -0.0710
27944W        W44018  10.197   3.866  12.479 -0.0387 -0.0276 -0.0719
27945W        W44019  11.121   8.211  10.998 -0.0556 -0.0486 -0.1107
27946W        W44020   9.600   8.600   5.355  0.4524  0.1320 -0.1517
27947W        W44021   9.840   4.375   3.397 -0.3293  0.1816 -0.0755
27948W        W44022  11.423   4.884  11.597  0.0430 -0.0985  0.2853
27949W        W44023   9.193  11.614  14.713 -0.2458  0.2019 -0.0518
27950W        W44024  10.587   0.034   1.343  0.0341 -0.0416  0.3498
27951W        W44025   6.629   3.890  16.830 -0.0893  0.2894  0.4418
27952W        W44026  16.489  12.917  14.118 -0.0042 -0.1772  0.0851
27953W        W44027   4.407   3.641  14.068  0.1251  0.1248  0.1390
27954W        W44028  16.711  10.460   3.724  0.2484  0.0731  0.2934
27955W        W44029  13.737  12.057   2.425  0.2651  0.0864 -0.0783
27956W        W44030   9.465  17.012  14.834 -0.0966 -0.2339 -0.4453
27957W        W44031   2.518   4.929   5.125 -0.0102  0.1300  0.1196
27958W        W44032  13.068   6.965   5.584  0.1740  0.0561  0.0420
27959W        W44033   1.298   2.548   4.922 -0.0377 -0.2615  0.0300
27960W        W44034   2.856  15.574  10.281  0.1304 -0.1353 -0.0369
27961W        W44035   3.915   2.199   1.545  0.0460 -0.1860  0.0058
27962W        W44036   0.218   9.889  15.551  0.0383  0.0947 -0.0613
27963W        W44037   4.058  10.668  13.264  0.2147  0.0651  0.1798
27964W        W44038  11.215  16.564  14.056 -0.2075  0.0286  0.1692
27965W        W44039   8.475  10.416   5.923 -0.1366  0.1501  0.1152
27966W        W44040   4.663   8.901   1.096  0.0417 -0.2675  0.3464
27967W        W44041   1.681   5.196  15.440  0.1576  0.0617 -0.2388
27968W        W44042   3.086   3.901  14.801 -0.1542 -0.1396 -0.0107
27969W        W44043  12.437   1.550   0.491  0.0586  0.1017 -0.0375
27970W        W44044  12.867  14.807   5.116  0.0515 -0.0347 -0.0569
27971W        W44045  16.591  14.728   2.293 -0.0713 -0.0055 -0.2358
27972W        W44046  16.215  15.792  14.415 -0.0788 -0.0973 -0.0062
27973W        W44047  11.905   2.190   5.840  0.2046 -0.1786 -0.1264
27974W        W44048   1.917  10.499   2.727 -0.2887  0.0770  0.1433
27975W        W44049  10.393   9.683   2.079  0.2019  0.0673 -0.2244
27976W        W44050   1.386   6.733  12.217  0.1966 -0.1145 -0.1164
27977W        W44051  12.137   6.255   3.612  0.3498  0.2486 -0.0299
27978W        W44052  17.740   0.270   5.814 -0.0645  0.2003 -0.2022
27979W        W44053  12.203   2.249   1.071 -0.0816  0.1482 -0.1121
27980W        W44054   0.947   8.828   1.802 -0.1281 -0.1655  0.0676
27981W        W44055   9.279   2.687  16.517  0.1153  0.1252  0.1227
27982W        W44056   3.616   2.654   1.352 -0.0275 -0.1127 -0.2601
27983W        W44057   1.923  16.772  11.342 -0.2622  0.2065 -0.0204
27984W        W44058   9.516  10.839  14.926 -0.0967 -0.0351 -0.0109
27985W        W44059  11.245   6.688  14.048 -0.1825 -0.1389 -0.0842
27986W        W44060   7.440   4.169  14.612 -0.0691  0.0922  0.1942
27987W        W44061  16.450  10.885  13.508 -0.1557  0.1270  0.4848
27988W        W44062   0.170  16.373   3.026 -0.2375 -0.0875 -0.0419
27989W        W44063  14.890   1.539  15.780 -0.0041  0.2037  0.1949
27990W        W44064  10.750  13.155   2.492 -0.0823 -0.1875 -0.1997
27991W        W44065  15.291  12.084  14.205  0.1114  0.0936 -0.0271
27992W        W44066   7.045  11.171  11.956 -0.1510 -0.1025  0.0908
27993W        W44067   4.546  17.112  13.706 -0.0339 -0.1805  0.0257
27994W        W44068   3.795  13.049  15.307  0.1917  0.3727  0.1512
27995W        W44069  11.220  17.266  12.914 -0.2923 -0.0820 -0.0420
27996W        W44070  17.626  14.838   2.674  0.2497 -0.0022 -0.1031
27997W        W44071  14.762  12.494  16.815 -0.3572 -0.0951 -0.5340
27998W        W44072  15.461  11.674  15.705 -0.1004  0.0406 -0.0312
27999W        W44073  13.685  10.915  11.733  0.1245  0.1165 -0.0207
28000W        W44074   9.319  10.447  12.055  0.1445  0.1353  0.4526
28001W        W44075  14.817  12.085   0.693  0.0865  0.2185 -0.0686
28002W        W44076   9.270   0.729   4.776  0.1335 -0.1025 -0.2712
28003W        W44077   0.966   6.388  16.052  0.0034  0.0189  0.0830
28004W        W44078   1.386   9.216   4.975  0.2498  0.0345 -0.0163
28005W        W44079  15.004   9.871   2.106  0.0946  0.0363 -0.2996
28006W        W44080  16.429  15.348  13.679  0.0164  0.1171  0.0742
28007W        W44081  14.715   5.920   2.855 -0.1579 -0.0950 -0.1847
28008W        W44082   0.422   3.125   5.674  0.3917  0.0210 -0.0591
28009W        W44083   4.072  10.668  11.906  0.2199  0.1057  0.0961
28010W        W44084   7.842  11.199   0.680 -0.1002 -0.0862 -0.0609
28011W        W44085  14.048   3.414  13.719  0.0342  0.0629  0.2257
28012W        W44086   0.737   4.607  14.897  0.2976 -0.0646  0.1439
28013W        W44087   6.996  12.713  11.529  0.3779 -0.1991 -0.0944
28014W        W44088   4.427   8.973  13.402 -0.1499 -0.0158  0.1625
28015W        W44089  17.463   6.996  15.457  0.2863 -0.3321 -0.0571
28016W        W44090   3.103   4.995  13.303 -0.1508 -0.0938 -0.1547
28017W        W44091  11.096   2.646   3.637 -0.3979 -0.2456 -0.1338
28018W        W44092  11.270  11.821  16.278  0.3758  0.3544  0.0452
28019W        W44093  15.483   2.259   1.893  0.0972  0.1554 -0.1169
28020W        W44094   7.498   0.751   4.441 -0.0426  0.2860 -0.1825
28021W        W44095  12.198   1.273  14.872 -0.0097 -0.0778 -0.0772
28022W        W44096  14.051  14.340  16.493  0.0850 -0.0318  0.0569
28023W        W44097   7.600   3.446  14.684 -0.0823 -0.1283  0.0541
28024W        W44098  12.410   3.213  13.500 -0.0297 -0.0618 -0.4659
28025W        W44099   1.027  16.726   4.010 -0.2070  0.0707  0.1287
28026W        W44100  15.598   5.073   5.713 -0.0079 -0.4301 -0.2169
28027W        W44101   4.689  16.006   0.724  0.1491  0.0465  0.0635
28028W        W44102   0.021   3.364  13.183 -0.0761 -0.2893  0.0505
28029W        W44103   4.745   5.992   4.948 -0.3060 -0.1860  0.3246
28030W        W44104  10.525   6.604   0.363  0.0037  0.2255  0.0412
28031W        W44105   3.778  13.679   3.831  0.2304 -0.0595 -0.0900
28032W        W44106  11.796  11.464  14.830 -0.1019  0.4186 -0.2794
28033W        W44107  15.709  14.494   2.898 -0.2568 -0.0318  0.1018
28034W        W44108  16.812  14.797  14.120 -0.1163 -0.1407  0.0460
28035W        W44109   9.650  16.143  11.441  0.1157 -0.3857 -0.2783
28036W        W44110   2.653  14.993  10.804 -0.1138 -0.2356  0.2580
28037W        W44111  11.215  11.804   3.594 -0.0005  0.1912 -0.1064
28038W        W44112   8.361  12.895  11.617  0.1618  0.0944 -0.0205
28039W        W44113   0.330  10.593  12.969 -0.4253 -0.1534 -0.1291
28040W        W44114   4.288  16.519  14.684  0.1809 -0.0604 -0.1269
28041W        W44115   0.005   4.579   5.707 -0.0833 -0.2326  0.0711
28042W        W44116   5.581  13.815   4.971  0.4063 -0.3982 -0.1321
28043W        W44117   3.089   3.816   5.660  0.2130 -0.1851 -0.1173
28044W        W44118  17.378  10.321  15.068  0.3709  0.0299  0.1524
28045W        W44119   9.126  14.125   1.589 -0.1939 -0.0651  0.0900
28046W        W44120   3.159  15.820  12.450  0.0487  0.1023 -0.0342
28047W        W44121  13.851  13.434   4.750 -0.1051  0.0733  0.3018
28048W        W44122   2.965  15.634  14.177  0.0343  0.1303  0.2026
28049W        W44123  14.868   0.090   2.477  0.2168 -0.0417  0.2421
28050W        W44124   3.264   5.346   6.431 -0.1440  0.0779 -0.0307
28051W        W44125  17.252   1.367   5.615 -0.1950 -0.0388 -0.0787
28052W        W44126   1.036   0.353   1.303 -0.0886  0.2482  0.0098
28053W        W44127   5.771   5.532  12.836 -0.1556 -0.0383  0.0189
28054W        W44128   7.174  14.570  12.514 -0.2935 -0.0907  0.2018
28055W        W44129  17.499   4.971  13.744 -0.0365  0.0930  0.0565
28056W        W44130   9.430  15.131  14.524 -0.3430 -0.1239 -0.3277
28057W        W44131   9.273  15.805  13.673 -0.1301  0.0493  0.0779
28058W        W44132   4.996  17.680  16.681  0.1281  0.1923 -0.2611
28059W        W44133   8.636   1.682  15.569  0.2043  0.1790  0.0570
28060W        W44134   8.648  11.110  15.631 -0.0435 -0.0225  0.1647
28061W        W44135  10.164  17.210  15.490  0.0453  0.0533  0.2962
28062W        W44136  10.060  13.985  11.826  0.3088 -0.0310 -0.4326
28063W        W44137  11.947  14.708   1.940  0.3390  0.0482 -0.1615
28064W        W44138   3.609   5.064   0.357  0.2690  0.2127  0.1938
28065W        W44139  16.338   4.286   0.854 -0.1743 -0.1229  0.3501
28066W        W44140   2.806   0.105  11.356  0.1664 -0.0861 -0.1439
28067W        W44141  10.719   5.692   3.149  0.0239  0.1448  0.4423
28068W        W44142  17.749   7.398   1.276 -0.3233  0.0004  0.1297
28069W        W44143  16.653   3.187   5.013  0.2573  0.2721 -0.2628
28070W        W44144   5.898  17.191  16.105 -0.0222 -0.0657 -0.0157
28071W        W44145   6.166  16.978  15.184 -0.1485 -0.3964 -0.1952
28072W        W44146   0.087  16.827   3.127 -0.1562 -0.1209  0.0415
28073W        W44147   9.764   3.815   1.691  0.4095 -0.3176 -0.1002
28074W        W44148   4.237  10.220   1.396  0.2516  0.3215  0.1146
28075W        W44149  14.398  17.548  13.196  0.1229  0.3652  0.0590
28076W        W44150  10.149   3.380   6.085  0.0464  0.2109  0.0516
28077W        W44151  11.205   1.815   2.438 -0.0602 -0.1163  0.1614
28078W        W44152   7.196  14.239   5.359  0.1475 -0.0146 -0.0554
28079W        W44153  12.801   3.756   6.018  0.3449  0.2788  0.2497
28080W        W44154   8.133  15.032   3.563 -0.2171 -0.1743  0.2338
28081W        W44155  17.204   0.722   4.731 -0.2772  0.0298 -0.0596
28082W        W44156  11.325  10.074   5.038  0.4615 -0.3095  0.2524
28083W        W44157   8.925   1.985   0.638 -0.1482  0.3318  0.1514
28084W        W44158  11.451   1.345  16.898 -0.2129 -0.2730 -0.2084
28085W        W44159   8.436   2.743   3.442 -0.0256 -0.0491  0.0111
28086W        W44160  11.532  13.487   2.891 -0.1066  0.1274  0.0812
28087W        W44161   8.497  12.312   3.832  0.0349 -0.0405 -0.0376
28088W        W44162   2.368   1.350   5.442  0.0141 -0.0668 -0.0176
28089W        W44163   0.493   0.073   2.085 -0.0215 -0.1056  0.1138
28090W        W44164  17.824  16.790  14.690  0.1653  0.5447  0.1064
28091W        W44165  12.865  10.010  14.326  0.3215 -0.2678 -0.1328
28092W        W44166   1.576  13.294  16.789 -0.0255 -0.3520 -0.0462
28093W        W44167  17.583   8.826  14.284 -0.3294  0.0018  0.0541
28094W        W44168   0.535   8.239   4.390  0.2157 -0.0126  0.0683
28095W        W44169   3.337   0.510   3.965  0.1163  0.0245 -0.2304
28096W        W44170   4.472  14.771  14.220  0.1135 -0.0417 -0.1466
28097W        W44171  12.951  15.347  15.821  0.0159  0.0532  0.0820
28098W        W44172   2.927   2.892   3.604 -0.0895  0.0197 -0.1671
28099W        W44173  16.477   1.416  12.140  0.0620 -0.2926  0.0657
28100W        W44174   9.546  12.668   1.484 -0.2591  0.0090 -0.0988
28101W        W44175   8.587  12.805  12.109  0.1572 -0.1811  0.1032
28102W        W44176   2.795  13.077  12.957  0.3234 -0.2338 -0.1174
28103W        W44177   1.682   6.226   4.478  0.3413 -0.0338  0.2228
28104W        W44178  16.409   7.910   2.940 -0.0299 -0.5385  0.2582
28105W        W44179  16.513   7.094   3.622  0.0153  0.1957 -0.2205
28106W        W44180   5.734  17.526  13.368 -0.0408  0.0010  0.1781
28107W        W44181   4.032   1.386   4.860 -0.2752  0.0903  0.1736
28108W        W44182  17.437   5.816  12.350  0.0825 -0.1037  0.1092
28109W        W44183  13.509  14.314   1.730  0.0676  0.1255  0.1390
28110W        W44184  16.509  12.878   2.235  0.0801 -0.0432 -0.1475
28111W        W44185  12.847   6.431  14.887 -0.1247 -0.0087 -0.0083
28112W        W44186  12.366   7.390  11.690  0.1688 -0.1350  0.1717
28113W        W44187  16.219   3.250   1.596  0.2147  0.3023 -0.0336
28114W        W44188   5.977   9.666  15.632 -0.1338 -0.1860 -0.0423
28115W        W44189   0.146  14.947   0.210  0.2395 -0.0878  0.0197
28116W        W44190   9.908  16.596   0.459 -0.3041 -0.0343  0.1744
28117W        W44191   6.916  14.769   5.514  0.0387  0.0395  0.2156
28118W        W44192   7.906   7.109   1.459 -0.1030 -0.0372 -0.2087
28119W        W44193  12.176   7.682   0.772  0.0208 -0.2509 -0.2140
28120W        W44194   2.363   1.597  14.717  0.1213  0.3137 -0.2430
28121W        W44195  17.266   7.378   1.645  0.0757  0.0651  0.2156
28122W        W44196  14.198  17.073   4.054 -0.0075  0.1549 -0.1276
28123W        W44197   2.630  10.818   4.100 -0.2818  0.0929 -0.1700
28124W        W44198   1.086   4.708   1.602  0.3685  0.1321  0.0055
28125W        W44199   6.828   9.635   5.146 -0.0248  0.1429 -0.1856
28126W        W44200  11.496   3.662   0.217  0.1616  0.2086 -0.1310
28127W        W44201  11.777   3.817  16.140  0.2176 -0.1493  0.0142
28128W        W44202   1.148   4.422   0.479 -0.1547  0.0494  0.0575
28129W        W44203   4.702   1.902   2.488 -0.0065  0.0097 -0.0606
28130W        W44204   9.040   3.485   5.471  0.0979  0.1960  0.1886
28131W        W44205   0.145   1.067   2.170  0.1189 -0.0870  0.0284
28132W        W44206   8.649   2.662   4.502  0.0468  0.0135 -0.0195
28133W        W44207   4.603   3.268  13.729  0.2066 -0.2094 -0.1719
28134W        W44208   0.311   4.005   5.167 -0.1174  0.0915  0.1168
28135W        W44209  14.240   5.772   0.485 -0.0398  0.1597 -0.4085
28136W        W44210   8.095   0.681   5.533 -0.0407 -0.1055  0.0981
28137W        W44211  17.107  16.082   5.897 -0.0405  0.2670  0.1046
28138W        W44212   7.994   8.421  12.944  0.1669  0.3781 -0.1549
28139W        W44213  16.400   6.422   3.169 -0.1782  0.2667 -0.1811
28140W        W44214   5.946   7.090  14.351  0.1930  0.0261  0.0500
28141W        W44215   8.141   8.635  13.664 -0.0968  0.0086  0.1061
28142W        W44216  16.003  10.148  15.188 -0.0874 -0.0810 -0.0486
28143W        W44217   1.324  17.795   2.307  0.0941  0.3105  0.0176
28144W        W44218  10.171  10.068   3.548 -0.1278 -0.0676  0.0007
28145W        W44219   2.437   6.040  11.865 -0.1061 -0.0973 -0.0590
28146W        W44220   8.802  12.026   1.256  0.2849  0.0809  0.1777
28147W        W44221  16.697  17.526  13.137 -0.1213 -0.0377  0.1785
28148W        W44222   0.886  11.054   2.377  0.3565  0.1014  0.0939
28149W        W44223   3.876  16.224  16.848  0.1172 -0.0003 -0.1343
28150W        W44224   5.613  14.185  13.117 -0.3908  0.1273 -0.1921
28151W        W44225   1.258  12.208  14.996  0.1093  0.1460  0.2136
28152W        W44226  10.441   6.821  16.613 -0.1903 -0.1427  0.1592
28153W        W44227  12.060  10.856   4.651 -0.3637 -0.0478 -0.0140
28154W        W44228   4.188  14.877  13.757 -0.1297 -0.0774 -0.0363
28155W        W44229   3.628   1.321   0.623 -0.1957 -0.1716 -0.1733
28156W        W44230   8.490  17.087   4.936 -0.2700  0.0173  0.0489
28157W        W44231  17.806  14.929  15.686  0.0231 -0.2724 -0.0280
28158W        W44232  16.760   4.295  14.216  0.0359 -0.0893  0.1616
28159W        W44233   4.713   1.448   3.794  0.3482 -0.2815  0.3149
28160W        W44234   4.181   8.866  12.413  0.0262 -0.2063 -0.0043
28161W        W44235  17.809  13.807  13.900  0.1775 -0.1816 -0.1371
28162W        W44236  17.660   7.757   1.682  0.1137  0.3278  0.2063
28163W        W44237   5.806  16.732   1.552  0.0778 -0.3277  0.1083
28164W        W44238  16.118  16.205  16.069 -0.0760 -0.5449 -0.0269
28165W        W44239  10.281   4.696  11.539  0.2285  0.0720  0.0777
28166W        W44240  16.862  17.093  15.189 -0.1063  0.1744 -0.0431
28167W        W44241   8.389  10.342   0.504  0.1639  0.2076 -0.0660
28168W        W44242  16.227  12.283   4.665 -0.0210  0.3735  0.0342
28169W        W44243   7.493  10.359  12.838 -0.0264  0.1983 -0.2128
28170W        W44244   9.932   7.531   1.358 -0.1671  0.1057 -0.1346
28171W        W44245   7.801   1.043   1.444 -0.1469 -0.1280 -0.2172
28172W        W44246  14.971   1.604   0.330 -0.1855 -0.2462  0.2216
28173W        W44247  11.782  10.352  12.177 -0.1996  0.2782  0.0752
28174W        W44248   4.236  10.755  13.752 -0.0785  0.3071 -0.1037
28175W        W44249   6.235  10.619   1.326  0.2501  0.1724 -0.2383
28176W        W44250   8.003   0.466   4.408 -0.0457  0.0264  0.0419
28177W        W44251  14.232  17.560   3.402  0.1297  0.3247 -0.0818
28178W        W44252  17.525  15.070  16.655  0.1607 -0.2362  0.2755
28179W        W44253  16.156   4.219  14.558  0.1837 -0.2075  0.4992
28180W        W44254   9.908  12.720   2.440  0.1626  0.0864  0.0418
28181W        W44255  10.231  17.193  14.734  0.0634 -0.1131  0.2313
28182W        W44256   0.010   5.542   5.362 -0.0620 -0.1292 -0.0392
28183W        W44257  17.517  14.543  12.847 -0.0142 -0.0182  0.1097
28184W        W44258  15.414   2.139   2.375  0.1968  0.0590 -0.0764
28185W        W44259  12.339  17.773   5.920 -0.0248 -0.0494 -0.0488
28186W        W44260   1.705  12.459  11.025  0.1460 -0.1096 -0.2826
28187W        W44261   2.217  12.761  16.151 -0.1847 -0.0006  0.0289
28188W        W44262   2.635   3.977  15.189 -0.0747 -0.1732 -0.1808
28189W        W44263   7.990  12.314   2.708  0.2506  0.0031  0.0604
28190W        W44264  14.831   9.539   1.096  0.0066  0.2896 -0.0060
28191W        W44265  14.643  14.715   2.210 -0.0711 -0.1127 -0.1473
28192W        W44266  16.826   4.983  14.439 -0.0580 -0.0855 -0.1648
28193W        W44267   3.561   0.671   6.214 -0.1820  0.0992  0.1130
28194W        W44268   6.635  17.127   1.908  0.0296 -0.0690 -0.4454
28195W        W44269   0.605   9.447   4.996  0.3502  0.0730 -0.0247
28196W        W44270   1.867   9.821   0.434 -0.0738  0.2034  0.1257
28197W        W44271   8.976   8.646   3.039 -0.0198 -0.0379 -0.0139
28198W        W44272   6.406  14.881   5.420 -0.2042 -0.2274  0.0489
28199W        W44273  13.257  16.438   6.109  0.0251 -0.1226 -0.1653
28200W        W44274   6.064   9.023   0.147  0.3524 -0.0549 -0.2875
28201W        W44275   8.458  16.968   3.104 -0.0110 -0.1291  0.0211
28202W        W44276  16.781   7.115  13.666  0.2470  0.3044 -0.1544
28203W        W44277   4.835   1.634  16.279  0.1551 -0.2322  0.1882
28204W        W44278   5.391   3.136  11.993  0.2148  0.1092  0.1842
28205W        W44279   7.533   7.370  13.573 -0.1219  0.1484 -0.0457
28206W        W44280   1.889   7.957  14.811 -0.3301 -0.1908  0.4490
28207W        W44281  11.356   6.191   4.185  0.1126  0.0769  0.1772
28208W        W44282  16.481   9.817   0.596  0.0898  0.1111 -0.1854
28209W        W44283   6.679   4.437  13.042  0.0012  0.1024  0.0397
28210W        W44284   9.814   3.645  11.523  0.2619  0.1058  0.2302
28211W        W44285   7.384  16.068   5.639  0.2709 -0.3020  0.1410
28212W        W44286  15.312  10.254   5.516 -0.2963 -0.1398 -0.0661
28213W        W44287   8.311  14.715   3.891  0.2385 -0.0743  0.2013
28214W        W44288   4.225   3.842   3.772 -0.2524  0.4189 -0.0595
28215W        W44289   7.783   8.854  13.357 -0.0028  0.2030  0.2526
28216W        W44290   8.181  12.578  13.396  0.2164  0.0740  0.0719
28217W        W44291   9.201  14.180   2.773 -0.1155 -0.1088  0.2396
28218W        W44292   2.437   0.329   1.565  0.0285 -0.0912 -0.2454
28219W        W44293  10.017   0.542   2.200  0.1580  0.0472 -0.0147
28220W        W44294  13.616  12.743   0.505  0.1723  0.0066  0.0860
28221W        W44295   6.713  11.588  15.141  0.1128 -0.1459  0.1026
28222W        W44296   2.838   8.181   0.019 -0.0211  0.3352 -0.2038
28223W        W44297  15.361   9.458  12.876  0.0734 -0.0553 -0.2254
28224W        W44298   9.883  17.226   1.627  0.0434  0.0376 -0.0719
28225W        W44299   3.232   5.107   2.391  0.2308 -0.1790  0.2333
28226W        W44300   5.410   4.979  14.115 -0.0606  0.0380  0.1628
28227W        W44301  14.026  17.538  13.708 -0.2277 -0.1713 -0.2663
28228W        W44302  13.832   9.021  16.152 -0.1204  0.1866 -0.2313
28229W        W44303   4.528  10.178   5.536 -0.1856  0.1655 -0.2027
28230W        W44304   0.089  13.016  16.947  0.0349 -0.1645 -0.3553
28231W        W44305   0.293   5.929  15.509  0.0142 -0.1655 -0.1042
28232W        W44306   2.473  14.125   1.267 -0.1095 -0.0989  0.3924
28233W        W44307   9.605   0.200  14.084 -0.1306  0.0366 -0.2016
28234W        W44308  14.395  10.421  16.753  0.5477  0.0504 -0.1539
28235W        W44309   3.136  14.483  12.539 -0.0112 -0.0366  0.2090
28236W        W44310   0.571  16.368   3.962  0.0342 -0.3036 -0.0194
28237W        W44311  13.017   7.439  11.804 -0.0322  0.0056 -0.3301
28238W        W44312  16.728  15.566  14.500 -0.0460  0.1840 -0.1788
28239W        W44313   7.608   8.822   0.575 -0.0091 -0.2600  0.0339
28240W        W44314  15.088   1.894   5.968 -0.0067 -0.0713 -0.0199
28241W        W44315  17.091  14.695  14.621  0.3288  0.0245  0.0474
28242W        W44316  12.818   6.828  15.221  0.2430  0.0549 -0.3011
28243W        W44317  14.025  16.079   0.102 -0.2149  0.3534  0.2185
28244W        W44318   4.293   8.746   3.133  0.1058  0.0055  0.0804
28245W        W44319  17.697   0.794   6.028  0.0654 -0.0473 -0.2311
28246W        W44320   7.268   4.014  16.253  0.3746  0.2411  0.0649
28247W        W44321   8.836  12.370   2.827 -0.0538  0.1838  0.0886
28248W        W44322   4.997  12.084  15.295  0.1318 -0.0985 -0.1712
28249W        W44323  11.446   6.204   1.520 -0.2519 -0.0654 -0.0333
28250W        W44324  15.749  15.945  16.247  0.2055 -0.1907  0.1293
28251W        W44325  17.119  10.116   2.789  0.1909 -0.0724 -0.0392
28252W        W44326   6.769  15.125   5.199 -0.0836 -0.1630 -0.0805
28253W        W44327   3.495  15.205   2.294  0.0527 -0.1784 -0.1070
28254W        W44328  11.720  15.564  12.902  0.0456 -0.2189 -0.1520
28255W        W44329  10.424   9.736  13.105 -0.2331  0.1357  0.1671
28256W        W44330   9.027  11.167   0.141  0.0239  0.2129  0.3094
28257W        W44331   2.271  10.320   5.295  0.0081  0.1713  0.1617
28258W        W44332   7.922  17.304   4.296 -0.1366  0.0954 -0.0860
28259W        W44333   2.554  16.928   2.757  0.2785  0.1038  0.0545
28260W        W44334   3.142   3.816  12.595 -0.1830  0.2577 -0.1241
28261W        W44335  10.342   2.849   0.821  0.1110 -0.2821  0.1377
28262W        W44336  12.379  11.018  11.792  0.3933  0.1728  0.1073
28263W        W44337  14.707   5.771   0.916 -0.1376 -0.3472 -0.1303
28264W        W44338  16.971  10.822  15.749 -0.1223  0.0801  0.2426
28265W        W44339   4.591   5.944   4.090  0.0750  0.2000  0.1057
28266W        W44340   7.496   9.308  12.437 -0.0165 -0.1424  0.2477
28267W        W44341   5.759  15.074  11.758 -0.2100 -0.1227  0.2334
28268W        W44342  12.726  17.555   0.400 -0.4041  0.0276 -0.0140
28269W        W44343  11.416   8.182   0.020  0.0296 -0.0891  0.3431
28270W        W44344  17.104  11.490  14.582 -0.1287  0.0873  0.0771
28271W        W44345  17.326  14.592  13.739 -0.2098 -0.0830  0.3157
28272W        W44346  11.208   6.936   0.069 -0.0542 -0.1713 -0.0246
28273W        W44347  17.581   2.335  16.226  0.2183  0.0632  0.0176
28274W        W44348   8.443  15.528  16.508  0.0695 -0.1866  0.1215
28275W        W44349  12.109   5.824  14.844 -0.1623 -0.1493  0.0620
28276W        W44350   5.361   5.763  16.175 -0.1127  0.0810  0.1783
28277W        W44351   2.502   0.377  16.548 -0.0341  0.4154 -0.1331
28278W        W44352   3.824  14.420  16.498 -0.0063 -0.3506 -0.1728
28279W        W44353  13.226   0.659   1.578 -0.2119 -0.0949  0.2546
28280W        W44354   5.702   4.528   5.164  0.2399 -0.1777 -0.2114
28281W        W44355  17.028   3.828  14.437 -0.1765  0.0919 -0.0493
28282W        W44356   6.574  13.136   1.781 -0.0379  0.2985 -0.2810
28283W        W44357  14.911  13.753   0.554 -0.0218  0.0257 -0.2169
28284W        W44358   5.112  15.565   5.058 -0.1256 -0.1219  0.1586
28285W        W44359  17.374  15.951   5.038  0.3140 -0.0146 -0.1392
28286W        W44360  11.978   1.314   0.672  0.2084 -0.1040  0.1028
28287W        W44361   0.796   9.596  16.775  0.1228  0.0405  0.4080
28288W        W44362   3.005   7.965  14.671  0.0186  0.1300 -0.1616
28289W        W44363  14.894   8.878  15.577  0.0660 -0.0194 -0.1489
28290W        W44364  17.831  17.484   0.966 -0.2235  0.3257  0.1441
28291W        W44365   9.287   7.003  14.690 -0.0889 -0.1182  0.0124
28292W        W44366   8.891  10.288   2.663 -0.4458 -0.0645  0.0520
28293W        W44367  11.547  11.293   3.018  0.1961  0.2349 -0.0930
28294W        W44368  11.380  14.242   5.947 -0.0776 -0.0466 -0.0708
28295W        W44369   7.431   9.644  15.751  0.1680 -0.0308 -0.1684
28296W        W44370   7.151   3.329  11.382 -0.6037  0.1480 -0.0071
28297W        W44371  16.119   8.883   4.035  0.2229 -0.2732  0.0917
28298W        W44372   4.952  10.554   4.082 -0.2850  0.1496  0.2754
28299W        W44373  10.551  17.665   3.258 -0.0756  0.2259  0.1276
28300W        W44374  14.733  13.488   3.920  0.1023 -0.1781 -0.1896
28301W        W44375   5.379   8.025  14.190 -0.0934 -0.1881 -0.1482
28302W        W44376  11.275   4.521  16.659 -0.1264 -0.2115 -0.0086
28303W        W44377   8.632  13.496   4.436  0.0068 -0.0851 -0.0117
28304W        W44378   4.621  15.545   5.038 -0.1707  0.1041 -0.2133
28305W        W44379   8.676  11.770  15.152 -0.0541 -0.2186  0.3640
28306W        W44380   5.189  16.686  14.560  0.0573  0.1892 -0.1420
28307W        W44381   1.867  11.223   0.554 -0.0463  0.2369 -0.0537
28308W        W44382  10.468   5.430  13.025  0.0566  0.3416 -0.2107
28309W        W44383  10.388  17.230  12.550  0.2529  0.4227  0.1792
28310W        W44384  15.058   6.677   1.099  0.2040 -0.0635  0.0577
28311W        W44385   6.685   7.809  13.901  0.0442  0.2220  0.1215
28312W        W44386  12.409  11.683   4.121  0.1691 -0.2370 -0.1953
28313W        W44387  11.375  14.516  14.221  0.1047 -0.0053 -0.4635
28314W        W44388  10.010  14.420  15.635 -0.0790 -0.0096  0.0981
28315W        W44389   2.788   1.163  15.199  0.0162  0.1839 -0.0190
28316W        W44390   7.461  11.806  15.630  0.2145  0.3477  0.0611
28317W        W44391  14.042  13.762   5.132 -0.0810  0.1091  0.0083
28318W        W44392   6.587   8.951  13.743 -0.1314 -0.0553 -0.0378
28319W        W44393   3.127   2.961   0.630 -0.0408  0.1631 -0.1014
28320W        W44394  12.828   6.565   3.257  0.3848  0.3387 -0.0441
28321W        W44395  10.582   4.223   2.438  0.0606  0.0694 -0.1757
28322W        W44396  17.045  16.061  16.357 -0.1907  0.0967 -0.0058
28323W        W44397   3.240   5.793  12.251 -0.2993  0.2219  0.0828
28324W        W44398  15.865  16.105   1.351  0.0871 -0.1758  0.0508
28325W        W44399  10.031  10.751  16.396 -0.2245 -0.2446  0.1218
28326W        W44400   1.437  11.509   0.743 -0.1875  0.2388  0.0483
28327W        W44401   1.672  15.301  16.133  0.5576 -0.0564  0.2688
28328W        W44402   4.312   8.011   1.375  0.0068  0.4119  0.0335
28329W        W44403   6.300   9.715  13.910  0.0331 -0.0326  0.1405
28330W        W44404   4.385   1.707  12.259 -0.2029 -0.0302 -0.2876
28331W        W44405   3.240   0.950   2.563  0.0388  0.1382 -0.1011
28332W        W44406   1.758  11.260  12.956 -0.3453 -0.0486 -0.0251
28333W        W44407   3.272   2.235   1.392 -0.1044 -0.2590  0.0716
28334W        W44408  17.848   4.755   0.995  0.3983 -0.0081  0.1372
28335W        W44409  12.381   9.406   3.139  0.0683  0.0599 -0.0819
28336W        W44410  11.023   4.199  13.154 -0.1707  0.3778  0.3105
28337W        W44411   9.806   7.020   4.117  0.0204  0.0298  0.0788
28338W        W44412   1.218   1.806   5.044 -0.1279 -0.1764  0.1545
28339W        W44413   4.491   6.550   5.794  0.0461  0.2216  0.1156
28340W        W44414  17.002   5.975  12.613 -0.0117 -0.0170  0.0603
28341W        W44415  13.080  10.576   4.332  0.1166 -0.0669 -0.1953
28342W        W44416   2.351  11.863   4.108 -0.1395 -0.0681 -0.1179
28343W        W44417  11.319  11.532   1.534 -0.0373  0.0027  0.0232
28344W        W44418   6.078  11.691  13.192 -0.2393 -0.1057  0.0782
28345W        W44419  10.393   1.850  12.322  0.0095 -0.0333 -0.0982
28346W        W44420  15.212   7.347   5.824 -0.2316  0.1884  0.3459
28347W        W44421   7.681   2.413   5.019  0.2865 -0.0234  0.1219
28348W        W44422   6.107   2.608  11.398  0.0881  0.1376 -0.4115
28349W        W44423   8.371  16.854  15.731 -0.0050 -0.0477  0.3089
28350W        W44424   2.627   4.461   0.817  0.0166  0.3249  0.0041
28351W        W44425  11.072   6.316   5.219 -0.0313  0.0718 -0.1949
28352W        W44426   3.055   1.952   3.141 -0.6020  0.0418 -0.1654
28353W        W44427  14.975  14.415  16.278  0.0444 -0.1550 -0.1228
28354W        W44428   2.141   0.979  12.549  0.0442 -0.0097 -0.0978
28355W        W44429  13.842   5.719   2.289 -0.3629  0.0959  0.1956
28356W        W44430   2.819  16.512   3.781 -0.0500 -0.3446 -0.1744
28357W        W44431   4.119   8.328   4.700 -0.1959 -0.1348  0.0268
28358W        W44432  13.069   1.452   1.695 -0.0296 -0.0546  0.3235
28359W        W44433  17.754   2.399   4.214  0.1758  0.0360 -0.3417
28360W        W44434   2.620   0.811   2.820 -0.2724  0.1230 -0.1840
28361W        W44435  10.676   3.692  14.890 -0.0692 -0.0141  0.0992
28362W        W44436   1.313   1.487  14.978 -0.3788  0.0510  0.4144
28363W        W44437   8.241  17.150  11.731 -0.2227 -0.1978  0.1110
28364W        W44438  15.806   7.892  12.182 -0.1996 -0.3295  0.0595
28365W        W44439  13.844  14.214  15.604 -0.1626  0.1584  0.2990
28366W        W44440   4.352  11.236  13.957 -0.0257 -0.0964 -0.2103
28367W        W44441  11.033  14.981  14.640  0.0936 -0.2090 -0.0133
28368W        W44442   8.951   4.983  16.775  0.0920 -0.0067  0.1690
28369W        W44443   6.927   8.112  13.561  0.0162 -0.1064 -0.0699
28370W        W44444   9.291  16.181  13.309 -0.1045  0.2500 -0.1243
28371W        W44445  16.117  11.333  15.808 -0.3328 -0.2250  0.0340
28372W        W44446  15.018   3.182   4.240 -0.2523 -0.2669 -0.1862
28373W        W44447   1.103   0.172   4.722 -0.1126  0.0276  0.0980
28374W        W44448   6.296  13.727   1.003 -0.4065 -0.0871 -0.3259
28375W        W44449  17.400  13.143   0.812  0.3791 -0.1790 -0.0603
28376W        W44450   1.330   5.845   5.600 -0.0881  0.0433  0.0020
28377W        W44451   2.996   8.919  14.283 -0.4156  0.3114  0.2852
28378W        W44452  14.910   6.539  13.372 -0.4518 -0.0766 -0.2912
28379W        W44453   4.258  13.795   2.628  0.1861  0.0488 -0.0265
28380W        W44454  14.870   6.042  15.979  0.0605 -0.1832  0.0302
28381W        W44455   9.678   1.268   1.684 -0.2510 -0.0224 -0.0256
28382W        W44456  13.243   0.525  14.822  0.1788  0.1778  0.0039
28383W        W44457  11.030   3.700  15.248  0.2161  0.0872 -0.0137
28384W        W44458   8.400  10.532   3.395  0.3085  0.0449  0.1020
28385W        W44459  17.785  10.253  14.241  0.3446 -0.0032 -0.1460
28386W        W44460  13.599  17.441   3.443  0.1644 -0.1066 -0.5267
28387W        W44461   6.614   3.106   4.830 -0.0306  0.0982 -0.0249
28388W        W44462   7.194  15.332  16.326 -0.3824 -0.0261 -0.1403
28389W        W44463  12.842   6.028   2.289  0.0013 -0.0637  0.0448
28390W        W44464   6.139   2.243   0.839  0.0446  0.1607  0.2384
28391W        W44465   9.690   6.074  15.039 -0.0989 -0.2405 -0.1814
28392W        W44466  11.972  16.222   5.456  0.0127  0.0324 -0.2102
28393W        W44467  15.239   3.515   1.585  0.0621  0.0890 -0.3023
28394W        W44468  11.952  14.136   3.688 -0.0920  0.2321  0.0580
28395W        W44469   0.899   5.136   1.910  0.0624 -0.0963  0.1104
28396W        W44470   4.713   3.702   1.533  0.3367  0.1121 -0.0221
28397W        W44471  10.127   4.607   5.383 -0.0976  0.1743  0.1643
28398W        W44472   6.525   7.163  13.195  0.1072 -0.2783  0.1668
28399W        W44473  14.366   3.011   2.701  0.2414 -0.0848 -0.1998
28400W        W44474   6.821  17.232   2.486  0.1345  0.0820  0.0153
28401W        W44475   5.207   2.831   5.451 -0.3952  0.1586 -0.1313
28402W        W44476  10.431   3.367  15.617  0.2403  0.3825 -0.2717
28403W        W44477   3.444   2.350  14.372  0.1887  0.1054  0.4611
28404W        W44478   9.133   0.823  14.502 -0.1660 -0.3053 -0.1123
28405W        W44479  11.522   2.762  13.109 -0.2264 -0.0629  0.0822
28406W        W44480  10.485   2.017   3.138  0.2311  0.0943 -0.2501
28407W        W44481   3.384  16.321   1.954 -0.2623 -0.0540  0.3071
28408W        W44482   3.757   8.213   4.188  0.3064  0.1170 -0.1964
28409W        W44483  16.930  11.988   4.681  0.1327 -0.0238 -0.1389
28410W        W44484  16.178  17.245  16.582 -0.0815  0.1600 -0.1919
28411W        W44485   8.390   1.883   4.459 -0.1127 -0.0513  0.0208
28412W        W44486  13.707  13.290  12.700 -0.0167 -0.1837  0.0921
28413W        W44487   5.186  14.088   4.242 -0.3697  0.0483  0.1966
28414W        W44488  14.222  13.365   3.787 -0.0371  0.1970 -0.5372
28415W        W44489  16.834  10.682   1.910  0.1130 -0.0106  0.1057
28416W        W44490  11.662  11.829   1.381 -0.2969 -0.2125  0.0848
28417W        W44491  10.490   1.102   1.064 -0.1360 -0.1128 -0.1239
28418W        W44492  17.723  12.583   2.582  0.4809 -0.0427  0.2235
28419W        W44493   5.620   8.134  15.077 -0.0485 -0.0798 -0.1156
28420W        W44494   8.537  14.191   4.261 -0.1998 -0.3381 -0.0436
28421W        W44495   0.473   5.560  16.953 -0.0966  0.0793  0.0743
28422W        W44496  11.742   3.534   0.984 -0.2409 -0.1806 -0.1601
28423W        W44497  11.508   9.781   6.329 -0.0144  0.0399  0.2465
28424W        W44498   2.119   7.558  13.519 -0.0038 -0.1011  0.1872
28425W        W44499   3.602   8.142   1.421  0.0642 -0.2077  0.0331
28426W        W44500   9.345  10.825   4.849  0.0479 -0.0228 -0.1149
28427W        W44501   3.709  11.735  16.033 -0.1624 -0.2365  0.0121
28428W        W44502   9.408  17.513   4.671 -0.0934 -0.0819 -0.2360
28429W        W44503   2.471   2.759   1.878  0.0030 -0.0100 -0.1611
28430W        W44504   5.050  16.321   0.400 -0.1404  0.3095 -0.0675
28431W        W44505   4.092   8.526  15.470 -0.0103  0.0449  0.2682
28432W        W44506   7.524   4.389   4.465 -0.4080 -0.0747 -0.1283
28433W        W44507  14.635  11.265   4.652 -0.0135 -0.1340 -0.0496
28434W        W44508   9.914   9.300  14.880 -0.0991 -0.0253  0.3454
28435W        W44509  10.087   8.736  12.250 -0.1204  0.1637  0.0369
28436W        W44510  12.554   3.581  11.976  0.0314 -0.0318 -0.0527
28437W        W44511   6.516   3.977  15.361 -0.0640 -0.0539  0.0139
28438W        W44512   5.787  14.902   0.069  0.0513 -0.3305  0.3240
28439W        W44513   9.264  16.715   1.362  0.0525  0.0190  0.2705
28440W        W44514   6.637   7.340   6.481 -0.0989  0.3883 -0.0029
28441W        W44515   7.862  12.977   4.931  0.0796  0.0654 -0.3002
28442W        W44516   2.476   9.532  14.047  0.0063  0.1179 -0.0094
28443W        W44517   1.162   8.208  14.598  0.1633  0.2722 -0.0852
28444W        W44518   9.408  16.484   0.557 -0.0904 -0.4612  0.1458
28445W        W44519   3.934  12.566  14.299  0.1278 -0.0107  0.3706
28446W        W44520   6.414   3.075   0.054  0.0010 -0.3085  0.3129
28447W        W44521   2.161   4.817   1.236 -0.1592  0.0495  0.3338
28448W        W44522   1.989  10.199   4.180  0.2204  0.1144 -0.0321
28449W        W44523   8.731   6.748  15.621 -0.4567  0.2521 -0.3141
28450W        W44524   4.038   0.432   3.541 -0.0087  0.0747 -0.2441
28451W        W44525   7.935  16.445   5.199 -0.1873 -0.1954 -0.3153
28452W        W44526  16.693  13.361  15.337  0.0480 -0.1936 -0.1254
28453W        W44527  11.909   7.051  12.730  0.0535  0.0122  0.2615
28454W        W44528  12.346  11.709  15.494  0.1405 -0.0860 -0.1912
28455W        W44529  11.100   1.390   1.291  0.0800  0.0325  0.1030
28456W        W44530   3.899   7.008   1.686  0.2059 -0.2082 -0.2619
28457W        W44531   8.282  11.236   1.457  0.0534  0.0914 -0.2319
28458W        W44532   5.038   3.936   2.575 -0.2090 -0.0299 -0.1545
28459W        W44533   0.858   7.857  13.843  0.3652 -0.0035  0.2495
28460W        W44534  13.052   2.458   3.876  0.0534  0.1776 -0.1162
28461W        W44535  15.474  15.470   2.599  0.1143 -0.1726 -0.1766
28462W        W44536  11.594   2.857   4.869  0.1166 -0.3053 -0.2728
28463W        W44537  10.886   7.543   2.487 -0.2321  0.1206 -0.2408
28464W        W44538  16.869   9.604   4.829  0.2656 -0.3163 -0.1906
28465W        W44539  10.120   2.031   5.206 -0.2246  0.0239  0.1016
28466W        W44540   0.370   1.093  15.023 -0.0359  0.1367 -0.0149
28467W        W44541  10.660   8.847   1.885  0.1014  0.1893  0.0731
28468W        W44542  10.356   7.697   5.800 -0.4328  0.0717  0.1238
28469W        W44543   9.262  12.027  14.275  0.1399 -0.0712 -0.1753
28470W        W44544   0.857  11.349  14.428 -0.1965  0.0178 -0.0809
28471W        W44545   1.296   8.336   3.531 -0.3150  0.2271  0.3456
28472W        W44546   8.115  16.515  13.374 -0.1752  0.3480 -0.2811
28473W        W44547   7.656   1.255   3.650  0.1624 -0.4241 -0.0980
28474W        W44548  15.063  11.152   5.285 -0.4155 -0.0054 -0.1800
28475W        W44549  13.805   5.079   3.231 -0.0089 -0.1648  0.1998
28476W        W44550  13.366   1.215   4.442  0.2180 -0.0316 -0.0778
28477W        W44551   1.158  14.205   1.289 -0.1777 -0.2286 -0.0399
28478W        W44552   5.781  16.038  14.862  0.0178  0.1519 -0.1149
28479W        W44553   2.672   3.356  11.781  0.1170 -0.0205  0.1024
28480W        W44554   8.881  13.871   0.672  0.0158  0.1935  0.0290
28481W        W44555   1.234  14.918  16.315  0.4091  0.1392 -0.1904
28482W        W44556  17.259   4.867  13.322  0.0014 -0.4273 -0.0359
28483W        W44557  17.159   7.410   5.245 -0.1986 -0.3501 -0.0739
28484W        W44558  15.947   9.412  14.770  0.1511 -0.0123  0.0154
28485W        W44559   9.095   5.651  14.941 -0.0757  0.0459 -0.0029
28486W        W44560  15.166  11.174   0.434  0.2705  0.0157  0.2628
28487W        W44561  10.720  15.350   0.941 -0.4841  0.0730  0.0775
28488W        W44562   7.043  13.431   5.790  0.2134 -0.3709 -0.2515
28489W        W44563   4.410  13.025  16.650  0.2756 -0.3445  0.3439
28490W        W44564  14.958  17.319  15.838 -0.1825 -0.0154 -0.1931
28491W        W44565  11.621   6.025  12.252 -0.0803 -0.0030  0.0484
28492W        W44566  16.198  15.729   1.070 -0.1959  0.1350 -0.0889
28493W        W44567   6.277   7.540   0.528 -0.0365  0.0551  0.0498
28494W        W44568   6.120   7.520   3.024 -0.0024  0.2191  0.1241
28495W        W44569   3.168  13.896  13.260 -0.0096 -0.0432 -0.1278
28496W        W44570  12.793  14.183  15.489  0.0241  0.0697 -0.4375
28497W        W44571   6.887   5.707  13.738 -0.1355  0.0366 -0.2251
28498W        W44572   7.079   7.445  16.327  0.1048  0.0770 -0.3874
28499W        W44573   6.257  11.986  12.313 -0.1608 -0.0538  0.7611
28500W        W44574   0.310   6.284   1.844 -0.1412 -0.7269 -0.2427
28501W        W44575  12.308   0.738  12.521  0.1639 -0.3376  0.1522
28502W        W44576   8.498  13.858  11.757  0.0172  0.0681 -0.1430
28503W        W44577   2.789  14.758   2.600 -0.1630 -0.1337 -0.0769
28504W        W44578  13.245  15.073  12.444 -0.0666 -0.0830  0.0286
28505W        W44579  15.260   9.729   4.229  0.1096  0.0427 -0.1384
28506W        W44580  12.265   8.164   1.597  0.2682 -0.1119  0.0093
28507W        W44581   2.956   5.012  11.772 -0.3066  0.1320 -0.3020
28508W        W44582   8.169   4.468  11.470 -0.0283  0.1044  0.0920
28509W        W44583   8.035   1.430  14.756  0.2628  0.0320  0.0126
28510W        W44584   4.207   2.463   3.091 -0.1356  0.0135  0.2014
28511W        W44585   8.279   1.395   0.238  0.1936 -0.0971 -0.1212
28512W        W44586   8.504   0.363  12.502  0.0158 -0.0123  0.1100
28513W        W44587  10.672   5.712   5.160 -0.1885  0.2462 -0.1615
28514W        W44588   0.514   5.938  15.049  0.2907 -0.2573  0.3670
28515W        W44589  10.488  13.326  12.754  0.3247 -0.0199  0.0377
28516W        W44590  14.366  11.553  12.950  0.0714 -0.0226 -0.0008
28517W        W44591  13.191   5.450  15.578 -0.0118  0.3351 -0.3452
28518W        W44592   2.433   4.224  15.895 -0.0425  0.0971  0.3517
28519W        W44593   4.662   0.953  13.996 -0.1266  0.0086  0.0477
28520W        W44594   4.029  13.217   4.558 -0.3341  0.0710  0.1491
28521W        W44595   2.076  12.007   5.450  0.2121 -0.0632  0.2956
28522W        W44596  13.268   4.704   1.224 -0.2429 -0.0333  0.1521
28523W        W44597  15.462   7.171   1.669 -0.1674 -0.1192 -0.0068
28524W        W44598  11.869  13.339  14.832 -0.2314  0.0902 -0.2175
28525W        W44599  11.291  14.283   6.518 -0.0008 -0.2206 -0.0372
28526W        W44600   7.835   4.241   0.194 -0.0100  0.1921 -0.1606
28527W        W44601   0.551  15.491  15.387  0.0949  0.2690 -0.1069
28528W        W44602   6.860   2.223   1.899 -0.1312 -0.1458  0.1541
28529W        W44603   6.945  16.204   4.407  0.0824  0.0049 -0.0911
28530W        W44604  16.358  12.175   0.905 -0.0897  0.0576  0.0374
28531W        W44605   2.568  10.863   0.175 -0.1837  0.1931  0.2746
28532W        W44606   9.370   6.811  15.674 -0.2834 -0.2109  0.1085
28533W        W44607  11.103  16.034  15.637  0.0124  0.0533  0.2167
28534W        W44608   4.908  15.552   0.831  0.0349 -0.1088 -0.0786
28535W        W44609  10.039   5.716  14.779  0.0096  0.0103  0.1118
28536W        W44610  16.855   6.475   2.994  0.0012 -0.2388 -0.1522
28537W        W44611   8.568   1.270   2.128  0.2954 -0.5858 -0.2268
28538W        W44612   9.458   0.716  12.079 -0.0876  0.0710  0.0227
28539W        W44613   0.182   7.951  11.921  0.0245  0.0354  0.0977
28540W        W44614   9.277  11.844  12.430  0.0279  0.1271  0.1571
28541W        W44615  15.826   0.491   1.459 -0.4291  0.2013  0.0412
28542W        W44616   5.421   3.622   0.268  0.0576 -0.2308 -0.2204
28543W        W44617  11.802   1.722   2.419  0.1302  0.0334  0.0403
28544W        W44618   9.462   5.462  15.588 -0.0300  0.0638  0.0219
28545W        W44619   8.864   1.316  13.232  0.2516  0.1124  0.2908
28546W        W44620  12.435   2.240   1.835 -0.0581  0.1388  0.0268
28547W        W44621  17.522  17.801  12.687  0.0948 -0.3821  0.1516
28548W        W44622  10.251   6.884  12.129  0.0961  0.1556  0.1219
28549W        W44623   0.454   1.583   2.376  0.1605 -0.1090 -0.0363
28550W        W44624  11.951   9.738   3.800  0.1413 -0.1453 -0.2578
28551W        W44625   2.248   0.234  15.188  0.0155  0.1501  0.2105
28552W        W44626   9.135   7.138   2.073 -0.0217 -0.0623  0.2913
28553W        W44627   2.799   5.237  12.561 -0.0792  0.2018 -0.0774
28554W        W44628   3.069   8.090  14.181 -0.0382  0.0142  0.0560
28555W        W44629   8.458   7.898  13.912 -0.1081  0.1100  0.2076
28556W        W44630   6.884   6.933   3.929 -0.0950 -0.0883  0.0417
28557W        W44631   6.447   5.434  13.706 -0.0292 -0.1762 -0.1643
28558W        W44632  13.030   2.007  12.340 -0.0643  0.0237  0.0821
28559W        W44633   6.645   7.112  16.017 -0.1575  0.2096 -0.0777
28560W        W44634   4.080  13.174   2.041 -0.4214 -0.2660 -0.0117
28561W        W44635   8.976   6.161  11.820  0.3369 -0.0398  0.0795
28562W        W44636   1.248  12.715  15.109 -0.1184 -0.1524  0.1289
28563W        W44637   6.162   9.835   5.258  0.2883 -0.2279 -0.2144
28564W        W44638   8.041  13.076   0.121  0.1454  0.5426 -0.0738
28565W        W44639   6.114   3.530   5.499  0.0216 -0.0502  0.0773
28566W        W44640   9.872  11.309   2.661  0.0971  0.3345  0.1750
28567W        W44641  15.814   5.656   2.660  0.2727 -0.3431 -0.1480
28568W        W44642  16.557   0.461   3.077  0.4247 -0.0460 -0.0228
28569W        W44643   8.847   0.136  13.456  0.0224 -0.3094 -0.2222
28570W        W44644  10.417  15.055   5.061 -0.1959 -0.0923 -0.0309
28571W        W44645   3.951  17.798  15.059 -0.1216  0.1775  0.3100
28572W        W44646   7.210  10.767   5.271  0.1369 -0.0331  0.1057
28573W        W44647   0.671   7.438   3.182  0.0647 -0.3940  0.0282
28574W        W44648   0.536  10.253  16.409 -0.0126 -0.1098 -0.0067
28575W        W44649   5.111   2.414  13.798  0.0456 -0.0962 -0.0392
28576W        W44650   6.420   3.264  15.001  0.4325  0.2208  0.2626
28577W        W44651   8.608   5.495   3.604  0.2700 -0.1701  0.0755
28578W        W44652   4.118  15.110   1.010  0.2532  0.2503 -0.0384
28579W        W44653   6.653   8.291   3.344  0.0854 -0.1360 -0.1739
28580W        W44654  14.537   4.185  12.554 -0.1010 -0.1207  0.2042
28581W        W44655  14.038  11.779  13.484  0.0282  0.1305 -0.1490
28582W        W44656  16.912   5.333  16.145 -0.0484 -0.1538  0.2830
28583W        W44657   4.298  17.217  15.007  0.3425  0.0033 -0.1442
28584W        W44658  10.121   7.364  13.852 -0.0178 -0.1044 -0.4533
28585W        W44659  13.644   0.092   0.024  0.2995 -0.3327  0.1650
28586W        W44660   8.046   3.005  14.009  0.4468 -0.1302 -0.0120
28587W        W44661  10.206  13.577  10.488 -0.1464 -0.0192 -0.3471
28588W        W44662  13.771   6.443   0.390 -0.0211  0.3911  0.0575
28589W        W44663   8.938   5.208  16.325  0.1173  0.1110 -0.1344
28590W        W44664   3.176   8.164   1.208 -0.2346 -0.0637 -0.1155
28591W        W44665   6.101   5.368   5.841  0.0816 -0.1684 -0.0982
28592W        W44666   3.496   0.395  16.657 -0.0742 -0.1975 -0.2384
28593W        W44667   8.834   2.248  13.178 -0.1674  0.0748 -0.0763
28594W        W44668  11.117   3.487   3.368  0.1045  0.2600 -0.0157
28595W        W44669  10.663   2.440  16.790  0.0394  0.0941 -0.0613
28596W        W44670  11.357   2.762   5.387  0.0601 -0.1479  0.0056
28597W        W44671   8.714  13.234   4.968 -0.0287 -0.1377 -0.0354
28598W        W44672  12.678  16.196   4.083 -0.2952  0.0108 -0.3730
28599W        W44673   5.899   9.727   4.795  0.0535 -0.1835 -0.0798
28600W        W44674   5.290  12.495   2.759  0.1533  0.2374  0.0021
28601W        W44675  12.754   9.610  14.648  0.1805  0.2362  0.1508
28602W        W44676   0.781   1.753  16.200 -0.0031 -0.1782  0.0674
28603W        W44677   8.685  13.501  16.697 -0.1035 -0.2732  0.1487
28604W        W44678   0.762   6.941   4.773  0.3698 -0.2059  0.1150
28605W        W44679  14.283  11.312   4.982  0.0267  0.1135  0.1071
28606W        W44680   2.318   1.197   2.986  0.2799  0.1229  0.0164
28607W        W44681  13.345  12.410   5.827 -0.4114  0.0579  0.0811
28608W        W44682  15.292  17.309   0.696  0.0985 -0.0195  0.0869
28609W        W44683   0.582   5.710   5.976  0.0789  0.0344 -0.1877
28610W        W44684   6.315  11.910  13.903 -0.6283 -0.1243  0.0253
28611W        W44685   8.519  10.649  14.073  0.3127 -0.1734 -0.1633
28612W        W44686  16.870   5.104  13.124 -0.3250  0.2351 -0.1207
28613W        W44687   6.807   3.035   4.357 -0.1335  0.0056  0.0495
28614W        W44688   3.068  16.226  13.436 -0.1104  0.1495 -0.1771
28615W        W44689   4.245   2.633  11.870 -0.1499 -0.2113  0.3329
28616W        W44690   1.129   6.389   3.470 -0.3117  0.0697 -0.2676
28617W        W44691  15.091  13.926   6.312  0.0428  0.1551 -0.3926
28618W        W44692   3.928   7.684   0.343  0.0709 -0.1358 -0.3293
28619W        W44693   8.671  17.389   2.974  0.0486 -0.2228 -0.1828
28620W        W44694   8.209   5.670   5.602 -0.0756  0.0903  0.0630
28621W        W44695   6.115  11.047   1.569  0.1522 -0.1139  0.1344
28622W        W44696   9.197   2.601   3.493 -0.1100  0.1250  0.2860
28623W        W44697  10.183  14.354   5.722  0.0702 -0.2353 -0.3668
28624W        W44698   9.574  15.085  13.034 -0.2099 -0.1761 -0.1199
28625W        W44699  11.957  12.112   3.515  0.3375 -0.1220 -0.0130
28626W        W44700  13.386  17.557   4.566  0.2049 -0.1847  0.0421
28627W        W44701   3.408   4.107   3.066 -0.0706  0.3576  0.3021
28628W        W44702  17.563   8.542  14.737  0.1155  0.1969 -0.1083
28629W        W44703   1.685   4.386   4.436  0.2506 -0.0145  0.1166
28630W        W44704   3.308   9.104   2.290 -0.1611 -0.1137  0.1687
28631W        W44705  12.751   2.830   4.744 -0.1191  0.1886 -0.0852
28632W        W44706  14.272   9.220   3.665 -0.1850 -0.3294 -0.2773
28633W        W44707  12.855   9.498  13.982 -0.0322  0.1364 -0.1436
28634W        W44708   5.957  13.234   2.341 -0.0298 -0.2700 -0.2085
28635W        W44709   1.573  12.055   5.187 -0.0222 -0.0672  0.2348
28636W        W44710   7.736  14.718   2.793  0.0791  0.1429  0.0953
28637W        W44711  13.659  15.961  15.465  0.3537 -0.1719 -0.1072
28638W        W44712  15.849   5.506  10.601  0.1940  0.1659 -0.3310
28639W        W44713   2.574   8.572   4.284  0.3541 -0.0716 -0.0176
28640W        W44714  16.287  17.743  15.801 -0.3154 -0.1297 -0.0590
28641W        W44715   0.343  12.657  14.166 -0.0293 -0.0451 -0.1944
28642W        W44716   9.069   5.345   3.451  0.0024  0.1717 -0.1035
28643W        W44717  12.022   0.567   3.742  0.1935 -0.0719  0.0915
28644W        W44718  15.806   5.385   5.384  0.0957  0.1526 -0.0437
28645W        W44719   9.485   3.762  12.021 -0.0796 -0.0797  0.2187
28646W        W44720  12.344   3.190   4.496  0.1382 -0.3871 -0.0026
28647W        W44721  17.178  10.246  11.825 -0.0158 -0.0280  0.1706
28648W        W44722   7.637   5.996  15.032  0.1488 -0.1893 -0.1382
28649W        W44723  15.217   1.871   3.928  0.2320 -0.1085 -0.0108
28650W        W44724   9.644   6.893  16.928  0.3331 -0.4627  0.5999
28651W        W44725   6.100  14.951  11.308  0.1165 -0.1840 -0.0608
28652W        W44726  15.295   8.947   3.576 -0.1708 -0.1364  0.0387
28653W        W44727  14.667  17.706   4.957  0.4264 -0.3185 -0.1357
28654W        W44728   2.295  12.405  14.959 -0.1296  0.0475 -0.1917
28655W        W44729   8.928   0.965  16.625  0.1085 -0.0501  0.0388
28656W        W44730   7.076   4.438   4.151 -0.2377 -0.1632 -0.3536
28657W        W44731  13.701   8.130   3.195 -0.0231  0.0430 -0.2432
28658W        W44732   3.145   4.979  13.832  0.1119  0.1933 -0.2155
28659W        W44733   1.006   8.741   6.509  0.0972 -0.1305 -0.1920
28660W        W44734  12.156   3.450  16.074  0.3386  0.1445 -0.2282
28661W        W44735   1.200  16.613  13.134  0.0468 -0.0536  0.0962
28662W        W44736  14.104  16.239   4.304 -0.1329  0.3221  0.1429
28663W        W44737   1.409  17.356   5.295 -0.1343  0.0375 -0.0897
28664W        W44738  11.533  11.009  13.959 -0.0586 -0.1522 -0.3626
28665W        W44739   3.145   3.429  11.640  0.0653  0.0851  0.0817
28666W        W44740  17.514   1.675  13.451 -0.1145 -0.1442 -0.1638
28667W        W44741   1.795   2.151   0.071 -0.1337  0.0076  0.0202
28668W        W44742  11.895   6.145  14.414  0.2123 -0.0219  0.1342
28669W        W44743   0.896   8.198   4.814 -0.2098 -0.0161  0.2329
28670W        W44744   7.709   9.569   5.500 -0.1135  0.4325  0.0884
28671W        W44745  15.216   1.179  15.744  0.0709 -0.1007 -0.1291
28672W        W44746  16.025  11.601  13.690 -0.0800  0.1250  0.0478
28673W        W44747  15.883   9.014   1.490 -0.2708  0.2884  0.3559
28674W        W44748   9.584   6.550  14.773 -0.0565  0.0360  0.3191
28675W        W44749  12.480   0.297   3.976  0.0433  0.1082 -0.1848
28676W        W44750   6.029   1.757  15.411 -0.1489 -0.2070 -0.1700
28677W        W44751   0.509  14.597   0.213  0.1240 -0.0259  0.1390
28678W        W44752  14.362  17.306  12.626 -0.0270  0.0149  0.0588
28679W        W44753   4.346  13.559  13.814  0.0433  0.1238 -0.0812
28680W        W44754   7.813  17.257   3.207  0.3138  0.0227 -0.4245
28681W        W44755  11.667   3.125  14.637  0.1541  0.1064  0.0762
28682W        W44756   9.473   3.266   5.651  0.1346  0.0378 -0.0166
28683W        W44757  13.758  16.923  15.659 -0.3490 -0.1041  0.3897
28684W        W44758  13.642   7.622   1.976  0.1601  0.0148 -0.0620
28685W        W44759   4.084  14.723  16.790  0.0404 -0.1613 -0.4297
28686W        W44760   9.933  10.321  15.687  0.1171  0.1091 -0.1180
28687W        W44761  14.946   9.843   0.708 -0.0134  0.1900 -0.1084
28688W        W44762   1.404   3.800   3.183 -0.0234 -0.1500  0.0594
28689W        W44763   3.673  13.956  16.376  0.0996 -0.0818  0.2608
28690W        W44764  14.018   4.520   6.278 -0.0499  0.0253  0.1278
28691W        W44765   4.085   8.052  13.970 -0.1772 -0.0455  0.0476
28692W        W44766  11.161  14.887   2.354  0.2358 -0.1423 -0.2846
28693W        W44767   5.378   6.889  16.627 -0.1197 -0.0177  0.2238
28694W        W44768   1.091  16.786   2.109 -0.2841  0.1603  0.0565
28695W        W44769   9.397   3.258   4.816  0.0060  0.0077  0.2039
28696W        W44770  13.026   4.794   2.919  0.2486  0.3302  0.1210
28697W        W44771   6.635   8.540   6.399 -0.2561  0.2876 -0.1979
28698W        W44772   1.256  13.259  12.978  0.1395 -0.2639 -0.2860
28699W        W44773  12.328   6.628   4.279  0.0191  0.1212  0.0712
28700W        W44774  12.698   7.930  16.830 -0.2171  0.0317 -0.0716
28701W        W44775   0.975  14.598   4.129 -0.0326 -0.3703 -0.2658
28702W        W44776   0.463  11.600   2.906  0.1208 -0.2586 -0.2442
28703W        W44777  13.621   4.678  16.172  0.0444  0.0523 -0.1157
28704W        W44778   0.938  15.499   2.606  0.2886  0.2677 -0.2151
28705W        W44779  16.627   2.148  13.299 -0.1986 -0.2124 -0.0031
28706W        W44780   1.776   4.938   0.904  0.1911  0.0073 -0.0107
28707W        W44781  14.095   8.907   1.419 -0.2706  0.1156 -0.1378
28708W        W44782   6.399   0.643  11.418 -0.0206 -0.1511 -0.2416
28709W        W44783  12.901  10.587  12.545 -0.1793  0.2392 -0.0970
28710W        W44784  12.829  15.085  13.933 -0.1474  0.4329 -0.0237
28711W        W44785   5.892  17.227   5.234  0.0488  0.2316 -0.3495
28712W        W44786   3.857  15.347  15.384  0.0147 -0.3627 -0.0468
28713W        W44787   0.827   2.113   1.230 -0.0690  0.0076 -0.1098
28714W        W44788   7.489   7.570   3.900  0.2281 -0.3405 -0.2442
28715W        W44789  16.511   4.654   3.072  0.1378  0.0803 -0.0125
28716W        W44790   0.164   8.371  13.363  0.0096  0.1435  0.1191
28717W        W44791  10.565   9.696   4.057 -0.2067 -0.0433  0.2376
28718W        W44792  13.019  10.527   2.818  0.2992 -0.0586  0.0130
28719W        W44793   7.736   3.820   2.875  0.0282 -0.4817  0.0512
28720W        W44794   3.702   5.560  12.558  0.0675 -0.2513  0.0877
28721W        W44795   3.429  16.452   0.271 -0.0430  0.2711  0.0110
28722W        W44796   7.342   4.728  13.672 -0.3000  0.1179  0.4063
28723W        W44797   0.088  15.082  13.551 -0.0130 -0.2903  0.0485
28724W        W44798   3.043   3.337  12.408  0.4637 -0.0777 -0.1377
28725W        W44799  13.386   2.767  13.796 -0.0557  0.0026  0.0648
28726W        W44800   6.487   5.626  12.027  0.0068 -0.2663  0.3678
28727W        W44801   3.170   6.819  16.731 -0.2481 -0.1484  0.1393
28728W        W44802  10.965   5.929  15.632 -0.0083  0.0063  0.2316
28729W        W44803  11.875   5.652   1.100 -0.1538 -0.5754  0.0865
28730W        W44804  12.311   6.605   5.438 -0.0512  0.2833  0.2513
28731W        W44805   0.058   7.174  15.596  0.0851  0.3330  0.2028
28732W        W44806   6.170  10.097  15.797 -0.0701 -0.0740  0.0075
28733W        W44807  14.711   1.594  12.532  0.2542 -0.0604 -0.3523
28734W        W44808  10.409  11.668   1.465 -0.1689 -0.0900  0.0017
28735W        W44809  14.485   6.011  13.007  0.0098 -0.3251 -0.0764
28736W        W44810   8.665   0.884  13.399 -0.1460  0.0100  0.2137
28737W        W44811  12.874   4.719  16.260 -0.2796  0.3187  0.0362
28738W        W44812   3.293  10.935   1.701 -0.0002 -0.0541 -0.1454
28739W        W44813   0.050   8.211  16.176  0.3324  0.2365 -0.1352
28740W        W44814   3.610   2.811   2.648 -0.2930 -0.1109  0.1080
28741W        W44815   3.230   1.337  10.774 -0.1960  0.0928  0.0850
28742W        W44816   0.023  11.483   1.863 -0.1497  0.4623 -0.0606
28743W        W44817  11.199   3.676   1.788 -0.0584  0.0001  0.0376
28744W        W44818   7.400  16.392   0.823 -0.2324  0.0433 -0.0497
28745W        W44819   8.061  12.417   3.263 -0.1910  0.3135  0.0049
28746W        W44820   0.571   9.092   5.414 -0.4553 -0.2252 -0.1809
28747W        W44821  17.669   9.741  14.098 -0.1749  0.0345 -0.1588
28748W        W44822  10.308   4.671   1.299 -0.0099 -0.1966  0.0012
28749W        W44823  16.328  13.966   4.529  0.0829 -0.3184  0.1431
28750W        W44824   1.346   4.156  13.894  0.2857  0.0534  0.1244
28751W        W44825  13.603  13.590  14.928 -0.1622  0.1375 -0.2291
28752W        W44826   6.189  17.015   2.095  0.0928  0.3108  0.2746
28753W        W44827   1.820  14.438  13.233 -0.0687 -0.1819  0.2714
28754W        W44828   0.371   8.435   2.385 -0.1510 -0.0965  0.0874
28755W        W44829   3.756   8.633  12.246  0.0222 -0.4081  0.1096
28756W        W44830  14.389   2.563   5.278  0.2200 -0.0975 -0.1133
28757W        W44831  12.050   4.402   5.956 -0.0114 -0.1288  0.2262
28758W        W44832  14.590  10.323  15.566 -0.2008 -0.0702  0.0936
28759W        W44833   5.845  13.041   4.623  0.1399  0.2293  0.2127
28760W        W44834   9.591   1.596  15.848  0.1561  0.0181 -0.0997
28761W        W44835  16.906  11.488   2.393 -0.2430  0.1611 -0.0371
28762W        W44836   5.231   5.261   3.966 -0.1079  0.0970 -0.3885
28763W        W44837   4.620  13.547   5.510  0.0067 -0.3243  0.1553
28764W        W44838   7.749  10.264  13.368 -0.0764  0.0510 -0.2015
28765W        W44839   8.441  16.900   5.439 -0.4480  0.1623  0.0364
28766W        W44840   6.626  10.784  11.758 -0.1567 -0.1186  0.0318
28767W        W44841   4.411   5.309  16.471  0.0282  0.4642  0.0959
28768W        W44842  11.807  15.190  15.851  0.2352  0.0324  0.2010
28769W        W44843   8.975   5.624  12.063  0.1203  0.0337  0.1167
28770W        W44844   5.996   2.806   0.162 -0.3659 -0.0126 -0.1322
28771W        W44845   9.169  10.870   2.651  0.3329  0.0172  0.0521
28772W        W44846   3.935   5.719  16.706 -0.0245 -0.1928 -0.1488
28773W        W44847   3.234   3.325  13.587  0.0499 -0.3009  0.0035
28774W        W44848   0.331  14.654   3.425  0.1056  0.0424  0.1078
28775W        W44849  17.325   6.630   4.661  0.0641 -0.0592 -0.3051
28776W        W44850   2.235   2.681  13.087  0.4935 -0.2434 -0.0391
28777W        W44851  13.231   8.651   0.419  0.1290 -0.2172 -0.0313
28778W        W44852   9.487  11.404   1.372  0.0846  0.3089  0.0219
28779W        W44853   5.553  14.772   3.231 -0.2156 -0.1891 -0.2245
28780W        W44854   8.656   7.030   2.105 -0.0488  0.3657 -0.0409
28781W        W44855  11.192   9.204   5.900 -0.0817  0.2348  0.1441
28782W        W44856  11.949  10.051  14.933  0.0874  0.0583  0.0381
28783W        W44857   1.668  16.915  12.875  0.0944 -0.0908  0.1069
28784W        W44858   4.189   1.078   2.742  0.0203 -0.2797  0.0616
28785W        W44859  17.142   8.392   0.279 -0.0351 -0.0816 -0.0588
28786W        W44860  12.042   1.808   0.991 -0.2727  0.2395  0.0974
28787W        W44861  13.540   8.086   1.697  0.0883 -0.0208 -0.3627
28788W        W44862   1.205   5.519   2.927 -0.1923  0.1820 -0.4153
28789W        W44863   0.874  11.551   2.542 -0.3319  0.1151 -0.1553
28790W        W44864  17.472  10.247   0.641 -0.0815  0.0246  0.0724
28791W        W44865  13.394  12.792  11.948  0.0432 -0.1611  0.3150
28792W        W44866  10.538   1.892  13.080 -0.3150 -0.0701 -0.0688
28793W        W44867   4.229   6.305   6.317  0.0480  0.0239 -0.0617
28794W        W44868  16.457  10.638  15.734 -0.0884  0.0851 -0.0032
28795W        W44869   4.356   4.317  15.588 -0.0262  0.1231 -0.0432
28796W        W44870   2.201   8.449  16.453 -0.1415 -0.1802  0.2317
28797W        W44871   2.762  11.899  12.912  0.2707  0.2170 -0.1465
28798W        W44872   6.603   4.150   5.418  0.0646  0.0690  0.2418
28799W        W44873  10.943  12.016   2.862 -0.1012 -0.0616 -0.0428
28800W        W44874   7.440  14.766   5.420 -0.1898 -0.1766  0.1999
28801W        W44875   4.237  12.773  15.467  0.1694  0.0182 -0.0899
28802W        W44876   6.467   6.612  16.714 -0.1516 -0.0748 -0.0341
28803W        W44877   7.569   8.522   2.401 -0.4380  0.1449  0.1638
28804W        W44878   3.810   7.371  14.725  0.0418 -0.1564  0.1755
28805W        W44879  10.574   2.132  11.770  0.0321 -0.2957  0.1903
28806W        W44880   6.445   1.626  16.181 -0.0323 -0.1773 -0.2518
28807W        W44881   1.208   2.785  13.022 -0.0250  0.2252 -0.2835
28808W        W44882  16.254  16.657  12.603 -0.1279  0.2488 -0.1677
28809W        W44883  16.879   9.560   1.265  0.0624  0.3109  0.0576
28810W        W44884  16.770   7.615   6.506 -0.0699  0.2377  0.3002
28811W        W44885   1.220   4.089  13.200  0.1479 -0.0818  0.0257
28812W        W44886   0.262   3.133   3.901  0.0866  0.0431 -0.0820
28813W        W44887   0.285   2.477  13.346 -0.1025 -0.1543  0.2361
28814W        W44888   4.349  11.058  11.783 -0.4712 -0.4890 -0.1480
28815W        W44889  15.877  11.375   2.640  0.1542  0.2873  0.1364
28816W        W44890  17.250  16.832  16.798  0.0558 -0.2505 -0.1150
28817W        W44891   6.406  13.257   0.823 -0.2089  0.1514 -0.2431
28818W        W44892  13.536   2.399  15.617  0.1937  0.1576 -0.0498
28819W        W44893   3.548   3.371   6.481 -0.0758 -0.0324 -0.0205
28820W        W44894  13.644   6.754  13.693  0.0223  0.3097 -0.1089
28821W        W44895   9.939   7.519   5.489  0.2470  0.0527  0.1621
28822W        W44896   5.444   1.163   0.033  0.0402 -0.2159  0.2790
28823W        W44897   1.613  12.588  13.051 -0.0974 -0.3004  0.3877
28824W        W44898   4.810   5.258   2.213 -0.0853 -0.0243 -0.1957
28825W        W44899   2.784   5.185  15.064 -0.1583  0.0376 -0.2156
28826W        W44900   5.895  15.567   0.001  0.1532  0.0463  0.2179
28827W        W44901  13.508   5.996   5.339 -0.0787 -0.1915 -0.0019
28828W        W44902   9.001  11.913   4.910  0.4324  0.2055 -0.0339
28829W        W44903   1.136   9.417  15.353 -0.0626 -0.0046  0.1261
28830W        W44904  10.341   8.236   2.833  0.0828 -0.4832  0.0474
28831W        W44905   7.968   8.506  15.737  0.2654  0.1587 -0.0299
28832W        W44906  14.981  12.713  15.322  0.1597 -0.0830 -0.0020
28833W        W44907   8.591  15.136   1.348  0.2231 -0.1537  0.4075
28834W        W44908   4.581  14.055  13.070 -0.0668 -0.2525 -0.2987
28835W        W44909   8.773   3.938  12.997 -0.0094  0.2673  0.1239
28836W        W44910   4.527  11.194  12.648  0.0446  0.1250  0.1465
28837W        W44911   4.377   2.407  16.694  0.2146  0.0723 -0.1860
28838W        W44912   0.209  13.574  13.159  0.2872  0.1384 -0.1365
28839W        W44913   2.970   2.088   4.367 -0.0695 -0.1662  0.0943
28840W        W44914  16.472  16.363   1.872 -0.0492  0.2924 -0.0003
28841W        W44915   3.393   2.834   2.185 -0.0531 -0.0834 -0.1328
28842W        W44916   0.425  15.360  14.875  0.2648  0.1005  0.0353
28843W        W44917   1.825   0.295  11.722 -0.0818  0.2684 -0.2537
28844W        W44918   6.763   4.132  16.329  0.0130 -0.1526  0.0561
28845W        W44919   3.751   1.477  14.039  0.2698 -0.3255  0.4425
28846W        W44920   7.404  12.264   4.559  0.2175 -0.0152  0.1596
28847W        W44921  16.241   8.108  12.968  0.1446  0.0124  0.0065
28848W        W44922   5.490  11.149  11.912 -0.2098 -0.2336 -0.1990
28849W        W44923  15.158  17.437   4.513  0.0172  0.1547  0.1003
28850W        W44924  11.231   8.835  15.867  0.0066  0.2280 -0.2347
28851W        W44925   4.961  16.819  13.670 -0.1885  0.0301  0.1621
28852W        W44926   1.169   3.328   5.034  0.1005 -0.0249 -0.0608
28853W        W44927  12.928   2.550  13.984  0.0395 -0.0635  0.3917
28854W        W44928  11.403   6.535   4.966 -0.0670 -0.0770  0.0650
28855W        W44929  11.082   2.641  16.699 -0.1102  0.2087  0.3391
28856W        W44930  16.283  13.064  13.633 -0.1785 -0.1811  0.1097
28857W        W44931  13.082   8.732  11.576  0.0797  0.0346  0.2691
28858W        W44932   2.139  17.266  12.639  0.6013  0.0083 -0.0972
28859W        W44933  16.823  10.392  15.960  0.0309  0.1854 -0.0193
28860W        W44934  11.131  10.923   2.396  0.0798  0.5145 -0.0502
28861W        W44935   0.634  12.876   1.732  0.2280  0.3965  0.1959
28862W        W44936  10.106   5.542  12.683 -0.3453 -0.4337 -0.0007
28863W        W44937   9.207   2.761  14.875  0.0250 -0.2009 -0.2169
28864W        W44938  12.467   4.423   4.505  0.2007  0.0021 -0.0278
28865W        W44939   5.397  15.004   3.990 -0.0242  0.3255  0.3083
28866W        W44940  15.643  11.188   4.516  0.0084 -0.3239  0.4463
28867W        W44941   7.889   6.703   1.803  0.0726  0.0073  0.2976
28868W        W44942   8.561  15.037  16.813  0.5199 -0.0429  0.2573
28869W        W44943   3.604   1.242   5.192 -0.2021 -0.2713 -0.0536
28870W        W44944  12.469   2.660  12.200 -0.1043 -0.2589 -0.1595
28871W        W44945  17.485   0.895   2.048 -0.0641 -0.0473  0.0374
28872W        W44946   9.886  16.566   1.452 -0.0713 -0.3359 -0.3241
28873W        W44947   8.161   6.881  12.210 -0.0769 -0.2655 -0.0789
28874W        W44948   7.142   3.734  16.901 -0.0701  0.1449  0.0378
28875W        W44949   4.162   1.604   0.207  0.3830  0.1033 -0.2715
28876W        W44950   2.191   6.059   3.682 -0.0567 -0.0773  0.0031
28877W        W44951   4.177  11.210   3.494 -0.0302  0.1430 -0.1279
28878W        W44952   1.676  16.893   0.343  0.0551  0.0788  0.3412
28879W        W44953   1.010   1.441  14.596 -0.0801  0.0523 -0.0291
28880W        W44954   9.599  17.301   3.298  0.1650  0.0744  0.0440
28881W        W44955   6.181   7.067   0.923 -0.0976  0.2506  0.1067
28882W        W44956   6.428   8.409  11.420 -0.1379 -0.0991 -0.0986
28883W        W44957  11.688   4.876   4.300  0.0965  0.2145 -0.2110
28884W        W44958   0.436   5.160   4.296  0.0518 -0.0906 -0.1460
28885W        W44959   9.298  12.532   4.281 -0.0818  0.3923  0.1791
28886W        W44960   4.935  10.890   2.216  0.3945 -0.0399  0.1711
28887W        W44961   3.304  17.313  13.494 -0.0453 -0.0089  0.0138
28888W        W44962   8.874   5.588   0.779  0.3918  0.0549 -0.3498
28889W        W44963  12.488   7.647   5.459  0.1011  0.1226  0.0579
28890W        W44964  10.060   1.630   1.577 -0.0890  0.0660 -0.1719
28891W        W44965  11.615  14.065   4.119  0.0913  0.1150  0.0142
28892W        W44966  11.558   9.558  16.250 -0.2412  0.0079 -0.1666
28893W        W44967   4.730  13.718   2.984  0.1523 -0.1428  0.0690
28894W        W44968   2.553  16.971  16.884 -0.1055 -0.1453  0.3394
28895W        W44969  17.271   5.238   6.524 -0.0546  0.1205 -0.1095
28896W        W44970   4.594  16.645  16.007  0.0297 -0.2474 -0.2277
28897W        W44971   1.371   9.767   0.330 -0.0378 -0.3171  0.0875
28898W        W44972  13.831  13.323  14.581 -0.2261 -0.2350  0.0691
28899W        W44973  12.674   8.903  12.606  0.0310 -0.0674  0.1465
28900W        W44974  17.754  14.740  16.267  0.0688 -0.0996  0.1305
28901W        W44975   3.391  14.169   5.756 -0.1289 -0.2180 -0.0781
28902W        W44976   7.422  13.951  11.614  0.2954  0.2729  0.1039
28903W        W44977  17.517  11.806   3.964 -0.0848  0.1686 -0.1715
28904W        W44978  16.132   1.235  15.908 -0.0985  0.0222 -0.0271
28905W        W44979  15.331  13.543   0.369 -0.2475 -0.0953  0.0576
28906W        W44980   9.846   1.367  16.267  0.2652  0.0975  0.1293
28907W        W44981   0.317   8.960  12.449 -0.0837  0.3940  0.2895
28908W        W44982   2.361   8.111  11.896  0.0783  0.1366 -0.1219
28909W        W44983   4.522  15.632  16.834  0.2558 -0.2832  0.0377
28910W        W44984  14.574   2.467   2.089  0.1161  0.0356  0.1764
28911W        W44985  14.715   2.109   2.901 -0.0468  0.0978  0.0973
28912W        W44986  11.567  10.381   2.599  0.0464  0.3025 -0.0117
28913W        W44987   1.532   8.460   2.937  0.0026  0.1030 -0.0135
28914W        W44988   4.507  16.834  12.979  0.2034  0.0005  0.3661
28915W        W44989  14.691   7.230  14.581  0.2966  0.0601  0.2036
28916W        W44990  17.298  14.813   4.952  0.2535  0.1324 -0.2717
28917W        W44991   3.824   0.234  15.878  0.0155  0.0128  0.0406
28918W        W44992  13.582   1.914   3.746  0.0355 -0.1934 -0.0133
28919W        W44993  12.572  12.058   4.464 -0.2394  0.1211  0.0745
28920W        W44994  13.646  11.680   2.081 -0.3038 -0.2275  0.2150
28921W        W44995  16.346  10.576   5.239 -0.0496 -0.0587 -0.0776
28922W        W44996  13.456   5.047   2.821 -0.0380  0.1996 -0.4140
28923W        W44997  16.439   7.769  14.105  0.0251 -0.0607  0.0594
28924W        W44998  11.970   4.085   0.966  0.1911  0.3602  0.0166
28925W        W44999   5.632   6.552   2.039  0.1548  0.0824  0.0987
28926W        W45000   4.885  17.632  13.402  0.4020  0.0256  0.0247
28927W        W45001   9.484   2.240   0.565 -0.3187  0.3159 -0.0577
28928W        W45002   4.749  14.323  14.343  0.0531 -0.0663  0.0009
28929W        W45003  15.802  17.034  15.238  0.1844  0.1465 -0.0272
28930W        W45004   7.038  10.791   0.191  0.1214 -0.1821  0.0354
28931W        W45005  11.485   5.427   5.258  0.0499  0.2479  0.1872
28932W        W45006  13.082  15.145  11.943  0.3822  0.3493  0.0452
28933W        W45007   8.051  14.542   4.301 -0.0110  0.2956  0.2989
28934W        W45008  14.672   0.097   5.861 -0.2192  0.1611 -0.1943
28935W        W45009  15.121   1.238   5.450  0.2362  0.1630 -0.0129
28936W        W45010   6.590   5.414   5.753  0.0345 -0.0719  0.0505
28937W        W45011  17.716   3.102   2.318 -0.0755  0.1740  0.1328
28938W        W45012   3.294   2.056  14.820  0.0587  0.0570  0.0663
28939W        W45013  15.203  11.391  14.773 -0.0226 -0.1624 -0.0443
28940W        W45014   4.418  15.422  11.923  0.2819 -0.1859  0.1689
28941W        W45015  17.271   8.109   2.345 -0.0007 -0.0390 -0.2131
28942W        W45016   4.959   5.058   5.417 -0.1911 -0.3247  0.0843
28943W        W45017   7.859   8.209   1.219 -0.2107 -0.3035  0.2925
28944W        W45018   6.373  11.926   0.710 -0.0845  0.0313 -0.3863
28945W        W45019   1.338   2.282   1.916 -0.1443  0.1993  0.1438
28946W        W45020  12.349  10.682   4.164  0.0973 -0.2372  0.0255
28947W        W45021   7.227   7.098  16.652  0.0333  0.1310 -0.2068
28948W        W45022  11.654  11.469   5.618 -0.3871 -0.3520 -0.3291
28949W        W45023   2.964  15.651  13.547  0.1521 -0.1128  0.0236
28950W        W45024  10.637  14.866  11.614 -0.0050  0.3200 -0.0331
28951W        W45025   4.302  12.783   3.756  0.0281  0.1356  0.0897
28952W        W45026  10.308   9.453  16.504  0.1268  0.0712 -0.0144
28953W        W45027   8.657  10.958   1.371 -0.1946 -0.4380 -0.0101
28954W        W45028  14.028   9.232  12.675  0.1358 -0.0676  0.0101
28955W        W45029  12.314  11.466  15.059  0.2434  0.3165 -0.0885
28956W        W45030   7.830   1.928  14.569 -0.1608 -0.2281  0.0015
28957W        W45031   9.901   4.177   1.135  0.0544 -0.2403 -0.3545
28958W        W45032   3.844   6.867   3.453  0.1399 -0.0092  0.1365
28959W        W45033  12.572  16.808  16.026 -0.0220 -0.3079 -0.3320
28960W        W45034   4.326   0.232   4.902 -0.1445 -0.0393 -0.1199
28961W        W45035  15.863   1.036  16.619  0.2453 -0.1608 -0.0971
28962W        W45036  14.685   1.618  11.955  0.1599 -0.1693  0.3399
28963W        W45037  11.097  10.901  12.875  0.0261 -0.0344 -0.0679
28964W        W45038   8.212   3.757   2.932 -0.0154 -0.2150  0.0192
28965W        W45039   5.295   2.322   2.642 -0.2161 -0.3136  0.1966
28966W        W45040   5.437  13.835  12.740 -0.0490 -0.0125  0.3136
28967W        W45041   8.815   4.631  12.175 -0.0381  0.3085  0.1421
28968W        W45042   4.904   6.183  11.622  0.0827 -0.4545 -0.0550
28969W        W45043  17.574  12.519  13.489 -0.1730 -0.1948 -0.3439
28970W        W45044  16.582  12.212   2.958  0.1437  0.0262  0.1931
28971W        W45045  11.117   0.518  12.008 -0.3463  0.2544 -0.2704
28972W        W45046   4.518   6.534  13.074  0.0490  0.3049 -0.0231
28973W        W45047   3.730  10.065   5.823 -0.2898 -0.0575 -0.0691
28974W        W45048   2.892   0.801   0.438  0.0089 -0.1263 -0.1373
28975W        W45049   7.045  14.929   3.581 -0.1012 -0.0842  0.0940
28976W        W45050   3.020   8.961   1.095  0.1057 -0.1004  0.0195
28977W        W45051   5.671  10.821  14.922 -0.2026 -0.3401  0.1676
28978W        W45052   0.600   4.777  14.340 -0.0674  0.1179 -0.0828
28979W        W45053   3.332   6.703  14.676  0.0544 -0.1436 -0.1323
28980W        W45054   2.964   8.145  11.839 -0.1030 -0.0102  0.2956
28981W        W45055  10.604   7.852  12.127 -0.2793  0.0128  0.2522
28982W        W45056  12.146  14.333   2.201 -0.0672  0.4224  0.0863
28983W        W45057   2.565  16.578  15.072 -0.1145  0.0413 -0.1445
28984W        W45058  13.909   2.000   3.415 -0.0993  0.4368 -0.1663
28985W        W45059  16.462   0.268  16.164  0.2234 -0.5021  0.2037
28986W        W45060   2.702  15.550   1.022 -0.1555  0.1477 -0.0068
28987W        W45061   8.300   2.659  12.030 -0.2213 -0.0016  0.0161
28988W        W45062  10.365  10.562  12.700 -0.1134  0.6454  0.1279
28989W        W45063   3.757   4.294   2.204 -0.1224  0.2954  0.1612
28990W        W45064   6.716   4.489   3.523  0.2448  0.0252  0.1334
28991W        W45065  13.989   2.657   2.745 -0.2495 -0.2789  0.1649
28992W        W45066   0.888   5.802  14.207  0.0671  0.1077 -0.2905
28993W        W45067  13.410  10.753  15.900 -0.0516  0.2295  0.1380
28994W        W45068  12.411   0.939  14.493 -0.1857 -0.2166 -0.0461
28995W        W45069  10.718   5.481  16.694 -0.3182 -0.2893 -0.1109
28996W        W45070   7.538  12.875   0.053  0.0036  0.1861  0.0667
28997W        W45071   8.835  13.760  15.762  0.0276 -0.2524 -0.0082
28998W        W45072  17.098  10.883   0.145 -0.2449 -0.1283 -0.0054
28999W        W45073  16.012  11.885  14.465 -0.1246 -0.0779 -0.3179
29000W        W45074  14.094  17.718   0.253  0.1081 -0.0302 -0.1401
29001W        W45075   0.885   4.018  11.854  0.0187  0.3641  0.2225
29002W        W45076   1.819  14.986   0.602  0.2519 -0.0909 -0.0221
29003W        W45077   7.252  13.863   1.383 -0.2071 -0.2474 -0.0409
29004W        W45078  15.570  12.149  15.987 -0.1503  0.0654 -0.1550
29005W        W45079   4.802   9.721  13.835 -0.1524 -0.0556  0.1620
29006W        W45080   8.679   6.217   3.682  0.1750  0.2103 -0.2001
29007W        W45081   3.645   3.548   1.577 -0.3837  0.0878 -0.1505
29008W        W45082   4.440   7.084   2.405  0.0229 -0.0846  0.1202
29009W        W45083  15.660  16.324  14.031  0.2875 -0.0887  0.2826
29010W        W45084   6.808  12.801   3.350  0.0114  0.0694 -0.1604
29011W        W45085   7.871  10.011  16.334 -0.1657  0.1751 -0.2663
29012W        W45086   7.184   6.593  16.523  0.3003  0.3580 -0.1667
29013W        W45087   1.623   9.464  13.473  0.0744 -0.0554  0.0092
29014W        W45088   4.094   5.999  13.845  0.0264 -0.2412  0.1816
29015W        W45089  13.904   1.819  15.600  0.1128 -0.2484  0.0659
29016W        W45090  12.745  16.993   4.814 -0.1601 -0.0385  0.1555
29017W        W45091   9.245  14.487   5.051  0.0989  0.0566 -0.2392
29018W        W45092  17.622   9.997  14.677 -0.2514  0.0363 -0.0036
29019W        W45093   1.834  12.273  13.689 -0.0508 -0.1169 -0.0058
29020W        W45094   3.538   5.681   5.768 -0.1561 -0.0008 -0.1694
29021W        W45095   5.151   0.282  16.346  0.1542  0.1748 -0.1743
29022W        W45096  16.196  12.970  15.305  0.0807  0.0835  0.0456
29023W        W45097   2.840  10.980  15.120 -0.0726  0.2486  0.1157
29024W        W45098   3.234   5.542  12.716  0.1561 -0.0559 -0.1557
29025W        W45099  13.186  14.465  14.646 -0.2107 -0.2187 -0.0209
29026W        W45100   6.376  12.502   2.375 -0.1053 -0.0327  0.1567
29027W        W45101   6.619   0.326  12.773 -0.1982 -0.1154  0.2208
29028W        W45102   2.273   3.659   2.230 -0.0785 -0.1356  0.1151
29029W        W45103  13.086  13.163  16.478 -0.3459 -0.1250 -0.0925
29030W        W45104   2.248  16.459  12.000  0.2465  0.3378 -0.1976
29031W        W45105   1.337  17.348  14.083  0.0544  0.2015 -0.0001
29032W        W45106  17.037   8.194   2.768 -0.2700 -0.1562  0.3257
29033W        W45107   7.949   0.626  11.553 -0.3968  0.0123 -0.0670
29034W        W45108  12.953   7.992  16.251  0.3461  0.0303  0.0553
29035W        W45109  10.897   3.103  11.826 -0.0032  0.0733  0.3003
29036W        W45110   1.372  16.879  12.041  0.0726 -0.0617  0.2831
29037W        W45111   3.548   9.113  12.050  0.0047 -0.0430  0.3273
29038W        W45112  12.774  12.813  16.047  0.1393 -0.3827  0.0658
29039W        W45113   1.408  14.727  14.764 -0.3944  0.2755  0.1223
29040W        W45114   2.247   9.988   1.635  0.0812  0.1330  0.2585
29041W        W45115  17.186   7.087  15.963  0.0611 -0.0783  0.2053
29042W        W45116   4.670  17.813  14.472  0.1811  0.4539 -0.0722
29043W        W45117  16.269  17.678   3.121  0.0498  0.0891  0.0088
29044W        W45118   9.259  10.459  15.074 -0.2069 -0.3148 -0.2293
29045W        W45119  10.908  15.046   0.037 -0.1407 -0.2384 -0.1920
29046W        W45120   1.738   9.603   0.004 -0.1606  0.0148  0.1403
29047W        W45121  16.321   4.342  15.368  0.0704  0.2349 -0.0153
29048W        W45122  12.869  10.037  13.799 -0.1410  0.0698 -0.1865
29049W        W45123   2.339   5.240  13.864  0.1953 -0.2143 -0.0960
29050W        W45124   5.773  16.452  11.529  0.0915 -0.2432 -0.1969
29051W        W45125  11.029   4.697  13.190  0.0036 -0.1619  0.2337
29052W        W45126   8.906   4.721  13.685 -0.0037  0.0652  0.0127
29053W        W45127   1.296   4.473   4.740 -0.0231 -0.4581 -0.1355
29054W        W45128   7.596   7.777   0.606 -0.2178 -0.0752  0.2156
29055W        W45129  17.060   0.849   0.675  0.2985  0.0436  0.0909
29056W        W45130   3.914   1.091   3.242 -0.5556 -0.0819  0.2199
29057W        W45131  11.623   6.096   3.441  0.1613 -0.1010  0.1734
29058W        W45132   1.705   5.644   4.436 -0.2063 -0.0713  0.1278
29059W        W45133   7.083   0.184   3.415 -0.1422 -0.0021  0.0981
29060W        W45134  11.510   6.513   2.664  0.4932  0.0507  0.3287
29061W        W45135  17.629   0.687  13.201  0.0145 -0.0696  0.0661
29062W        W45136  11.745   4.200   2.530  0.0352 -0.0870  0.2399
29063W        W45137   6.370  15.337   5.393  0.1785 -0.1188 -0.0717
29064W        W45138  15.051   0.686  11.986 -0.1837  0.0165 -0.3181
29065W        W45139  10.013   8.766   4.790 -0.1780  0.0102  0.1016
29066W        W45140   9.143   1.790  13.881  0.0147  0.1780 -0.0714
29067W        W45141  14.742  16.546   6.657  0.0899 -0.0846 -0.3063
29068W        W45142   4.005   1.111   1.863 -0.0026 -0.2569  0.0386
29069W        W45143  10.385   1.256  12.238  0.0765  0.4493 -0.0982
29070W        W45144   4.124   4.876  13.881  0.2303  0.1646  0.1151
29071W        W45145   7.027  16.528  14.666  0.0200 -0.0990  0.1966
29072W        W45146  12.819   7.737  12.310  0.2548  0.2446  0.3723
29073W        W45147  17.218   2.135  12.479  0.0838 -0.1477 -0.3752
29074W        W45148   3.653   4.484  16.154  0.1067 -0.1815  0.4320
29075W        W45149   5.519   2.927   4.289 -0.1508 -0.0947 -0.2131
29076W        W45150  11.056   6.313  12.552 -0.1506 -0.1811 -0.1130
29077W        W45151   3.560  10.983  14.362 -0.4135  0.2597  0.1934
29078W        W45152   0.415   7.020   1.947 -0.0684  0.1700 -0.3009
29079W        W45153   5.931   6.187  13.515 -0.1865  0.1176 -0.1317
29080W        W45154  14.205  13.730  13.322  0.1812  0.0920  0.0665
29081W        W45155  15.458   5.447  13.991  0.2938 -0.0070 -0.0930
29082W        W45156  15.089   3.808  13.880  0.0038 -0.3580 -0.0997
29083W        W45157  15.280  14.187  12.879 -0.0548  0.1218 -0.0838
29084W        W45158  11.130   0.820   4.074 -0.1055  0.2710 -0.0658
29085W        W45159   8.362   3.235   3.946  0.3216 -0.3088 -0.0144
29086W        W45160  17.191  12.594  14.600 -0.0509 -0.1740  0.1843
29087W        W45161  12.730   9.148   5.164 -0.2965  0.1233  0.1282
29088W        W45162   2.808   6.651   3.094 -0.1731 -0.0874  0.1225
29089W        W45163   2.858  11.785   3.769  0.2574  0.0849  0.0658
29090W        W45164  17.744  10.543  12.765  0.0627 -0.0577 -0.1399
29091W        W45165   8.058   6.137  16.786 -0.2455  0.4049  0.2316
29092W        W45166   5.536   8.324   0.919  0.0219 -0.0943 -0.3766
29093W        W45167  17.132   3.020  14.555 -0.1050  0.3778 -0.0028
29094W        W45168  14.586   6.390   6.210 -0.2697 -0.1771 -0.1758
29095W        W45169   9.901   2.819   2.264 -0.0902 -0.0714 -0.2294
29096W        W45170  15.224   4.948  12.506  0.1609  0.1973  0.1192
29097W        W45171  15.052  12.531   0.641 -0.0974  0.0740  0.0646
29098W        W45172  16.557   2.233  14.351  0.0126  0.0424  0.1993
29099W        W45173   8.302  13.852   1.898  0.2217  0.0008  0.2989
29100W        W45174   5.058   5.559   3.154 -0.1283  0.0710  0.2104
29101W        W45175  17.490   8.848   5.944  0.2809  0.1443 -0.0718
29102W        W45176  10.571   2.846  16.421 -0.4628  0.2372 -0.0081
29103W        W45177  13.826   6.617  13.198 -0.2331  0.0600 -0.3230
29104W        W45178   7.520   9.226  16.780 -0.1726  0.0829 -0.4158
29105W        W45179   5.390   5.137  16.706  0.3923 -0.0792  0.2900
29106W        W45180   6.475   5.344   1.883 -0.1656  0.0594 -0.0219
29107W        W45181  14.144   4.948   5.291  0.0230  0.2498  0.0365
29108W        W45182   4.941  17.633   1.874  0.1255  0.0899  0.1782
29109W        W45183  15.578  14.872   4.660 -0.2322 -0.1264 -0.3376
29110W        W45184  12.144   7.911   0.006 -0.0963  0.2549  0.3831
29111W        W45185   6.203   7.921   2.500  0.0289 -0.1821  0.1642
29112W        W45186  16.215   3.918   0.408 -0.1549  0.2922 -0.1863
29113W        W45187   6.329  16.028   1.198 -0.0535  0.1656 -0.0243
29114W        W45188  15.221   7.052   0.150 -0.0919 -0.0932 -0.1454
29115W        W45189   0.587   5.341   0.591 -0.2245 -0.0749 -0.1834
29116W        W45190  15.508  13.834   5.635 -0.1775 -0.0743 -0.1045
29117W        W45191  13.694  15.386  15.040 -0.1743 -0.2589 -0.1246
29118W        W45192  16.571   7.680  12.915 -0.0563  0.0266  0.0876
29119W        W45193  15.952   2.353   1.755  0.2953  0.0606 -0.3683
29120W        W45194   8.769   3.576  16.795 -0.1528  0.1092  0.2195
29121W        W45195   6.869   0.689  13.064  0.0282  0.0966 -0.1784
29122W        W45196   7.908   5.193  13.087  0.2280  0.0057 -0.0514
29123W        W45197  14.536   4.446  15.280 -0.2191 -0.1623  0.3843
29124W        W45198  10.315   0.142  16.141  0.0350 -0.1468 -0.0565
29125W        W45199   2.026   7.307  11.696 -0.1691  0.0921 -0.1967
29126W        W45200   8.630  14.179   1.723 -0.4925  0.1138  0.1357
29127W        W45201   9.786   5.151   2.100 -0.4050 -0.0199 -0.0597
29128W        W45202   6.218   8.419   5.113 -0.1878  0.0699  0.4093
29129W        W45203   4.472  12.486   0.513 -0.0443 -0.0431  0.0619
29130W        W45204   4.412  14.710   5.760  0.0238 -0.1400  0.0354
29131W        W45205   7.924   6.099   2.719 -0.6117  0.2242  0.0085
29132W        W45206   9.149   1.080   0.987  0.1636 -0.2417 -0.1911
29133W        W45207  15.931  12.107   2.449 -0.0504  0.0885 -0.0116
29134W        W45208  10.122  15.160  16.782 -0.0639 -0.1979  0.1750
29135W        W45209  12.028  11.473   5.959  0.1910 -0.1791  0.1487
29136W        W45210   5.382   6.734  13.489  0.2519  0.0278 -0.0157
29137W        W45211  10.406   7.807   0.631  0.1302 -0.0430  0.1109
29138W        W45212  12.542   5.786   4.769 -0.1627  0.2034  0.1844
29139W        W45213  14.823   8.901  13.281 -0.1274  0.1394  0.2976
29140W        W45214  11.829  13.141   4.147  0.3308 -0.0877  0.1672
29141W        W45215  16.292  12.526   2.650 -0.4373 -0.1711  0.0005
29142W        W45216   5.048  10.899  12.066  0.2333 -0.0082  0.0572
29143W        W45217   5.079  16.417   1.372 -0.0133 -0.3422  0.1699
29144W        W45218  14.601  16.008  15.343 -0.2238  0.0565  0.0545
29145W        W45219  17.635  17.400  11.271  0.1001 -0.0659 -0.0165
29146W        W45220  16.121   2.077  16.694 -0.2790  0.0276  0.0982
29147W        W45221  16.113   7.640  12.793 -0.2592 -0.2067  0.0419
29148W        W45222   0.555   4.561  15.749  0.2227  0.0619  0.1026
29149W        W45223   6.946  14.225  13.333  0.1257 -0.1859  0.0472
29150W        W45224   1.494  14.785   4.923 -0.0341 -0.3391 -0.2149
29151W        W45225   7.330   8.652  15.598 -0.1005  0.2824  0.1516
29152W        W45226  15.360   9.707  12.465  0.0347 -0.2128 -0.0837
29153W        W45227  17.635  10.750  14.008 -0.0126  0.0491 -0.0961
29154W        W45228  10.093   1.616   5.501 -0.0125 -0.1184  0.2790
29155W        W45229  15.681   8.046  16.221 -0.1049  0.2773 -0.0828
29156W        W45230  17.491   6.245   3.697  0.0431 -0.0026  0.2548
29157W        W45231  16.738   5.919  13.649 -0.0885  0.0741  0.0837
29158W        W45232   8.919   8.086   5.750 -0.2476 -0.0337  0.1547
29159W        W45233   4.971  13.838  10.495  0.0549 -0.4282  0.1122
29160W        W45234   7.636  11.641   0.773  0.0114  0.0922 -0.3472
29161W        W45235  15.673   3.513  13.875  0.1348  0.2733 -0.3263
29162W        W45236   1.282   7.093  13.858 -0.1207 -0.1889  0.1881
29163W        W45237  11.574  13.316  11.845  0.1105 -0.2416 -0.0665
29164W        W45238   6.777  16.655  13.722 -0.0148 -0.3310  0.0843
29165W        W45239   8.516  13.306  15.811  0.1078  0.0368  0.1683
29166W        W45240   6.297  13.352  12.670  0.0347 -0.1852 -0.3900
29167W        W45241   0.524  17.306   5.009  0.0984 -0.2655  0.2214
29168W        W45242   2.352   7.852   1.816 -0.0619  0.0123  0.0647
29169W        W45243   0.446   6.663  12.161 -0.0772  0.0266  0.0992
29170W        W45244   2.585   3.689   0.482  0.2814  0.1803  0.0773
29171W        W45245   2.319   6.528   0.792 -0.4349  0.2389  0.4122
29172W        W45246  10.598   6.541  12.897  0.3444 -0.1235  0.0575
29173W        W45247  14.891  12.203  12.308  0.0781 -0.2548 -0.1711
29174W        W45248   7.465   4.016  12.851  0.0360 -0.0147 -0.2932
29175W        W45249   2.940  12.113   4.172 -0.0137 -0.0913 -0.1185
29176W        W45250  16.016   1.674  11.994 -0.0920 -0.0156  0.0594
29177W        W45251  11.281  17.411   4.146 -0.0760 -0.2386  0.2885
29178W        W45252   8.764   3.392  14.099  0.0849  0.3261 -0.2673
29179W        W45253   5.115  12.865  14.771  0.2152 -0.1983 -0.2061
29180W        W45254   9.864   9.423  16.206  0.0304  0.1056  0.3745
29181W        W45255   0.417  16.819  12.446 -0.1239  0.3022  0.1973
29182W        W45256  13.460   0.317  12.156 -0.0348 -0.1699  0.1187
29183W        W45257   3.168  16.712  13.577  0.0975  0.1040  0.4663
29184W        W45258   0.095  11.242   5.094 -0.3727  0.2162 -0.0697
29185W        W45259  15.333   0.004  13.140 -0.1838 -0.0204 -0.0298
29186W        W45260   3.873   3.106   1.302  0.1566 -0.2177  0.2222
29187W        W45261  10.337   5.059  15.370 -0.1342  0.1659  0.5558
29188W        W45262   5.315  17.575  12.612  0.0545 -0.1627  0.0822
29189W        W45263   0.336   1.420   5.431 -0.2809 -0.1038  0.0998
29190W        W45264   6.271  15.790   4.701  0.3954  0.1399  0.0832
29191W        W45265   8.146   1.734  12.552 -0.0557  0.1487 -0.2922
29192W        W45266   1.388   9.765   5.768  0.2928  0.0454 -0.1317
29193W        W45267   8.850   1.599   2.919 -0.2191 -0.5932 -0.0280
29194W        W45268  11.933  16.630   3.774 -0.1065 -0.0531  0.2785
29195W        W45269  12.005   1.924  13.008 -0.1310 -0.0075  0.2951
29196W        W45270  17.807  17.494  12.185 -0.1043  0.2051  0.0662
29197W        W45271  12.989  16.153   0.195  0.3397  0.2053 -0.0439
29198W        W45272   0.626  14.571  15.283 -0.2632  0.1465 -0.3799
29199W        W45273   8.197  15.396   1.187 -0.2205  0.1014  0.2713
29200W        W45274  11.831   6.091   2.454  0.0032  0.1388 -0.3860
29201W        W45275  14.223   6.351  16.535  0.2740 -0.1031  0.2195
29202W        W45276   4.038   0.648  11.400 -0.0759 -0.0388 -0.4899
29203W        W45277   0.480   2.902   0.081 -0.0802 -0.1804  0.0561
29204W        W45278   6.461   1.411   1.388 -0.0359 -0.0133 -0.0919
29205W        W45279   4.053   4.862  14.750  0.2974 -0.2689 -0.0237
29206W        W45280  11.192  14.661   0.422  0.0916 -0.1220  0.1068
29207W        W45281   2.941  12.400  13.605 -0.2508 -0.4227  0.0581
29208W        W45282  13.122  12.536  16.310  0.0310 -0.1945  0.2257
29209W        W45283   4.369   1.336   3.461  0.1109  0.0735  0.1385
29210W        W45284  13.877  12.504  15.242 -0.1985  0.2028 -0.0165
29211W        W45285   6.204  14.569   1.396  0.4949  0.0518 -0.1502
29212W        W45286   5.918   8.791  12.920 -0.1265  0.0552  0.3038
29213W        W45287   8.798   9.009  11.726 -0.1387  0.0776 -0.2912
29214W        W45288  16.412  16.861   1.773  0.0050 -0.1736  0.1536
29215W        W45289  10.647   4.752   3.521  0.1564  0.2071 -0.2988
29216W        W45290   3.935   3.165  16.800  0.1046 -0.0088 -0.2879
29217W        W45291   1.286   4.094   4.258 -0.0572 -0.5095 -0.1461
29218W        W45292   9.454  13.795   0.356  0.0046 -0.2350 -0.0635
29219W        W45293   3.822   2.505   2.348  0.0451  0.2062  0.4001
29220W        W45294  12.199   3.762   0.035 -0.0065 -0.0935 -0.0125
29221W        W45295   6.023   7.607  13.660 -0.1274  0.0161 -0.0239
29222W        W45296  10.875   0.945  13.895  0.0015  0.1246  0.0712
29223W        W45297  17.197   7.202   0.685  0.0848  0.2890  0.0653
29224W        W45298   9.165  10.009   5.843  0.3457  0.3016  0.1904
29225W        W45299   0.119   7.749  15.055 -0.2915 -0.1018 -0.0257
29226W        W45300  11.207   4.184  13.623  0.1562 -0.0229  0.4042
29227W        W45301   3.300  14.871   0.785 -0.2383 -0.0993  0.0355
29228W        W45302  14.931   7.082  11.918 -0.0555  0.0382 -0.2515
29229W        W45303   5.832   7.895  16.970  0.0406 -0.1424 -0.0176
29230W        W45304  16.986   4.344   3.997  0.1604  0.1387  0.0848
29231W        W45305   2.545   2.681   3.183  0.2612 -0.1001 -0.0748
29232W        W45306   7.135   8.021   0.552 -0.2776  0.1973 -0.1629
29233W        W45307  13.629   5.948  14.814 -0.0386 -0.0345 -0.1682
29234W        W45308   7.386  17.404  14.219  0.0698 -0.0664 -0.0100
29235W        W45309   0.424  17.165   4.522 -0.0559 -0.1533  0.1792
29236W        W45310   4.398   5.116  13.244  0.0478  0.0862 -0.0140
29237W        W45311  14.824  13.022   2.155  0.0500  0.1536  0.1624
29238W        W45312   7.518   9.580   2.867 -0.0342 -0.2910  0.0025
29239W        W45313   9.532   8.185  13.752  0.2136 -0.1318  0.0418
29240W        W45314  13.212   6.410   4.860 -0.2648 -0.1563 -0.1180
29241W        W45315  17.063  14.216   5.592  0.0646 -0.1809  0.0104
29242W        W45316  12.350  16.129  16.718  0.1108 -0.1817 -0.3199
29243W        W45317  14.160  17.332  16.339 -0.0200  0.1807  0.2195
29244W        W45318  13.033  17.708  12.913 -0.2902 -0.0651  0.0087
29245W        W45319   9.660   0.939  12.597  0.1639 -0.1267 -0.0868
29246W        W45320   9.427   7.122   2.610  0.1518 -0.3426  0.1116
29247W        W45321  12.638   9.693  13.026  0.0780 -0.2339 -0.1439
29248W        W45322  14.457   8.713  14.595 -0.4142 -0.1853 -0.1504
29249W        W45323  12.134  10.336   4.558 -0.0240 -0.3145 -0.1696
29250W        W45324  16.633   6.838   5.287  0.3312 -0.2413 -0.1946
29251W        W45325   4.712  15.211   0.029  0.0374 -0.3761 -0.0046
29252W        W45326   9.144  14.843  12.747 -0.1154 -0.0801 -0.1785
29253W        W45327   8.263  14.753  14.034  0.0459 -0.2196  0.1143
29254W        W45328  17.760   8.382   3.385  0.0110 -0.3004 -0.1520
29255W        W45329  11.494  10.378   3.096  0.0858  0.0249 -0.0317
29256W        W45330   5.164   5.550   6.162 -0.1850  0.0139  0.0643
29257W        W45331  11.487  12.146  12.389 -0.3213 -0.0225 -0.1246
29258W        W45332   1.634  11.514  14.626  0.5824 -0.1093 -0.1886
29259W        W45333  15.354   9.438  13.414  0.0434 -0.0563 -0.2298
29260W        W45334   1.490   1.425  15.419 -0.0382  0.0678 -0.0965
29261W        W45335  11.234  10.441  15.417 -0.0649 -0.1067  0.1157
29262W        W45336  11.649   7.717  16.828  0.1256  0.1784  0.3311
29263W        W45337  16.288   0.178  16.800 -0.1423 -0.1570 -0.0021
29264W        W45338  14.886  16.101   0.594  0.1379 -0.1692  0.2537
29265W        W45339   1.327   1.359  16.963 -0.0908  0.1322 -0.2553
29266W        W45340  10.471   4.194  16.226 -0.1525  0.1302 -0.0237
29267W        W45341  13.318   4.012   3.869 -0.1405  0.0445 -0.2578
29268W        W45342  13.238   8.755  16.816  0.0069  0.1031 -0.3323
29269W        W45343   7.887   6.588  16.941 -0.1807 -0.1398  0.0163
29270W        W45344   6.265  15.968   6.614 -0.0917  0.3837 -0.1844
29271W        W45345  14.491  12.539   4.777  0.3010 -0.2556  0.2876
29272W        W45346   9.459   1.197  12.257 -0.1680 -0.0244  0.2270
29273W        W45347  10.913   6.519   4.710 -0.3094 -0.1705 -0.2124
29274W        W45348  15.980  10.367  14.759 -0.1477 -0.0783 -0.1428
29275W        W45349  14.624   8.918  14.083  0.3890  0.2686  0.1031
29276W        W45350   6.168  17.394   2.957  0.2217  0.3015 -0.3402
29277W        W45351   6.072   6.337   2.196 -0.2835 -0.0498 -0.2778
29278W        W45352  14.012   0.112  11.034  0.1097 -0.1507  0.1394
29279W        W45353   7.087   8.962  12.282  0.0656  0.0522  0.1104
29280W        W45354   8.394   7.815  14.404 -0.0688  0.2154  0.4950
29281W        W45355   4.408  15.620   4.555 -0.1368 -0.0494 -0.0189
29282W        W45356   7.695   5.785   5.206  0.1546  0.1638  0.0154
29283W        W45357  15.636   4.555   5.538  0.0720 -0.2546 -0.0341
29284W        W45358  15.302  16.194  16.546  0.1533  0.2650 -0.2388
29285W        W45359   6.275  14.746  14.424 -0.1813 -0.0404  0.0120
29286W        W45360   3.661   7.446  12.161  0.0527 -0.2819 -0.2575
29287W        W45361  15.569  17.158  13.889  0.1096 -0.2461 -0.0488
29288W        W45362   8.290   4.176   0.115 -0.2829 -0.0063  0.2390
29289W        W45363  12.003  15.167  14.081 -0.0265  0.0766 -0.0610
29290W        W45364   6.777   4.722   0.605 -0.1439 -0.2964  0.0398
29291W        W45365   7.508   5.130   0.454 -0.0130  0.2317 -0.0010
29292W        W45366  10.633  16.020   1.152  0.0857  0.1173 -0.2629
29293W        W45367  15.102   5.667   5.955  0.0943  0.2116 -0.1152
29294W        W45368  16.429   1.955   5.302  0.0096  0.1275 -0.0846
29295W        W45369  15.158   3.653  16.651  0.0889  0.0187  0.1589
29296W        W45370  13.251  16.589   0.250  0.0719  0.0591 -0.0336
29297W        W45371  10.000   5.911   0.761 -0.0686  0.0077 -0.0993
29298W        W45372   7.928   7.769  13.248 -0.1135  0.2086  0.2443
29299W        W45373  13.229  16.763  15.658  0.1502  0.0165  0.2316
29300W        W45374  10.077   2.435   1.984  0.0424 -0.1121 -0.1682
29301W        W45375  13.855  17.574   3.060  0.1404 -0.1256  0.0848
29302W        W45376  17.765  11.730   2.941  0.2778 -0.0926  0.2552
29303W        W45377  12.623   6.932  11.622 -0.0065 -0.2575 -0.2957
29304W        W45378  13.187   2.832  15.924 -0.0661  0.4910 -0.0619
29305W        W45379   1.205   1.240   2.879 -0.0494  0.0789  0.2566
29306W        W45380  15.007   3.835   5.428 -0.1352 -0.3513  0.0604
29307W        W45381   9.621   3.243  11.960  0.0983 -0.0649 -0.3114
29308W        W45382  10.254  13.024   2.317  0.0114 -0.0234  0.1826
29309W        W45383   5.365   7.610   3.895  0.1478 -0.2647  0.0883
29310W        W45384   7.165   9.424  13.515 -0.1242  0.2233  0.1203
29311W        W45385   3.902   0.899   4.872 -0.0468 -0.1846 -0.1354
29312W        W45386   4.112   4.225   2.652  0.0329  0.0780  0.0999
29313W        W45387   4.211   4.233   2.120 -0.1954 -0.1381 -0.1308
29314W        W45388   1.890   9.776  12.800  0.2042 -0.1859  0.3302
29315W        W45389   6.814  16.266  15.033  0.2179  0.1140  0.2830
29316W        W45390  17.617  17.587   0.544  0.0845  0.1005 -0.1378
29317W        W45391  14.008  15.604   5.190 -0.1401 -0.0087  0.1830
29318W        W45392  11.930  10.503  15.123  0.0258  0.0585  0.2064
29319W        W45393   2.482   2.451   5.177 -0.3963 -0.4158 -0.2259
29320W        W45394  13.538  10.887   1.375 -0.0099  0.0564 -0.1905
29321W        W45395  16.555  12.677   1.096  0.0213  0.0881 -0.0929
29322W        W45396   2.507  15.488  13.726  0.3439 -0.0963  0.2107
29323W        W45397  11.268  14.538   2.718  0.0349 -0.2415  0.2175
29324W        W45398   3.860   7.488   4.918  0.2978  0.0667  0.1743
29325W        W45399  16.665   3.185  16.696  0.0105  0.1192 -0.0913
29326W        W45400  12.351   8.994  16.299  0.1292  0.2221  0.2105
29327W        W45401   7.289   6.071  14.633 -0.0109  0.0650  0.0691
29328W        W45402   1.890  16.464  12.824  0.0203 -0.3674  0.1023
29329W        W45403   6.424   4.975   2.216  0.0136  0.0702 -0.0237
29330W        W45404   1.066   4.621   3.266 -0.2510 -0.0363  0.1521
29331W        W45405  11.454   9.064  11.582 -0.0573  0.1424 -0.0648
29332W        W45406  16.510  11.223  14.486 -0.1793  0.1778  0.0547
29333W        W45407  12.519  14.450  12.580  0.0301  0.0704  0.0010
29334W        W45408   0.714   8.909  16.155 -0.0694 -0.1609  0.0189
29335W        W45409  10.395   8.921   5.153  0.0849  0.1858 -0.0529
29336W        W45410   2.199   8.387   5.479  0.0311  0.2880 -0.0628
29337W        W45411  17.559  16.496   3.297 -0.2046  0.0518 -0.0270
29338W        W45412   1.238  10.722  13.636  0.0628 -0.2234 -0.2012
29339W        W45413   2.080  14.312   3.540 -0.0769 -0.1242 -0.1042
29340W        W45414   8.794   3.559   0.908 -0.0612  0.1006  0.1249
29341W        W45415   9.718  17.095  13.963  0.0336  0.1668 -0.2114
29342W        W45416   3.480   8.830  15.944  0.1503 -0.1181 -0.1075
29343W        W45417  11.764   1.765   4.692 -0.2343  0.0650  0.1438
29344W        W45418  14.877   1.254   2.765  0.1633 -0.0034  0.1673
29345W        W45419  13.489   2.024  13.586 -0.0755  0.2200  0.0355
29346W        W45420   1.274   7.134  15.538  0.3970  0.0134  0.2553
29347W        W45421   1.569   2.915   1.224  0.2161 -0.0178 -0.0109
29348W        W45422   5.871  16.495   4.787  0.0614  0.0275 -0.0100
29349W        W45423   1.877   6.087   5.912 -0.1751 -0.1602  0.3036
29350W        W45424   9.036   6.944   0.688 -0.2146  0.0621 -0.2273
29351W        W45425  17.349   6.680   4.149 -0.2595  0.0562 -0.3010
29352W        W45426   1.366  14.270  12.440  0.1327  0.1803 -0.0523
29353W        W45427  17.359   3.085   3.500  0.3471  0.1625  0.2438
29354W        W45428   7.871  17.000  16.670  0.0809  0.1498  0.2236
29355W        W45429   5.363   3.050   1.350 -0.1673 -0.3844  0.1100
29356W        W45430   2.372  13.188  12.046  0.2418 -0.0635  0.2282
29357W        W45431   6.074  17.240  16.593  0.0935 -0.1739  0.2704
29358W        W45432   9.736   7.249  16.541 -0.0016 -0.1065  0.1053
29359W        W45433  11.607   9.003   4.401 -0.1229 -0.1049 -0.0994
29360W        W45434  15.964  11.004   2.943  0.1344 -0.3133 -0.1469
29361W        W45435   7.592  16.627  12.906 -0.0348  0.1172  0.1680
29362W        W45436   8.634   6.313  13.963 -0.0366 -0.1391 -0.2066
29363W        W45437   6.996  14.472  16.684 -0.0524 -0.0247 -0.1267
29364W        W45438  17.442  16.358   4.676  0.1637 -0.1078  0.2607
29365W        W45439  10.818  14.322   2.769 -0.0716  0.0525 -0.0832
29366W        W45440   7.481   5.641  11.588 -0.1245 -0.4597 -0.1582
29367W        W45441   0.820  16.572   6.483  0.0450 -0.0733  0.0422
29368W        W45442   7.371   6.290  11.551 -0.2248 -0.2790  0.0879
29369W        W45443   3.450  12.675   1.018 -0.4042  0.0888  0.1622
29370W        W45444   9.212  15.180  16.678 -0.1000  0.0145  0.0136
29371W        W45445   7.968  16.245   4.728 -0.0541  0.1954 -0.1225
29372W        W45446  17.582  15.319  14.268 -0.1718  0.2004 -0.2394
29373W        W45447   9.806  11.938  12.426 -0.1147 -0.0677  0.1316
29374W        W45448   0.980   9.488  14.301  0.3469  0.2169  0.0777
29375W        W45449  11.111   5.337   4.316  0.0425 -0.2504 -0.0348
29376W        W45450  17.151   0.623  13.265 -0.0780  0.0669  0.0644
29377W        W45451   4.490  15.161   4.722  0.0132  0.0544  0.1374
29378W        W45452   2.706  14.432  16.296  0.0674  0.1581 -0.0198
29379W        W45453  13.427   5.485  13.589 -0.0118  0.0491  0.1563
29380W        W45454  17.770  17.836   4.483  0.3383  0.1458  0.3203
29381W        W45455  15.228   2.922   5.010 -0.1457  0.0268  0.0551
29382W        W45456  14.559  12.010   1.134 -0.1733 -0.0587  0.1331
29383W        W45457   4.986   8.627  16.751 -0.2441  0.4165  0.0481
29384W        W45458  12.420   8.527  12.241 -0.2265  0.0077  0.1271
29385W        W45459  14.623  14.787   0.834 -0.4267  0.2950  0.1267
29386W        W45460   8.809  10.889  14.383  0.0134  0.3295 -0.2440
29387W        W45461   4.212   1.097   4.497 -0.0140  0.1283 -0.3450
29388W        W45462  16.671  14.957   3.097 -0.0363  0.1385 -0.1683
29389W        W45463  13.194   6.441   2.309 -0.2756  0.1529  0.0962
29390W        W45464   2.955   8.953  12.625 -0.0659  0.1068  0.0309
29391W        W45465   4.519  12.162  14.036 -0.3044 -0.0890  0.0537
29392W        W45466  10.173   5.590   1.380  0.2147  0.1686  0.3381
29393W        W45467  11.962  14.057  15.552  0.2292 -0.0743 -0.1802
29394W        W45468   6.595   9.678  16.065  0.1240 -0.1544  0.1500
29395W        W45469   6.923  12.191   5.205  0.5133 -0.0186  0.2153
29396W        W45470  10.416  11.733   0.916  0.2752  0.1191 -0.0417
29397W        W45471  11.417  11.590  15.798  0.1281 -0.3102 -0.0897
29398W        W45472   2.617   5.484  16.184  0.1478  0.0006  0.3039
29399W        W45473   6.518   6.050   1.110  0.0078  0.2887 -0.4365
29400W        W45474   0.510  12.655  13.243 -0.2696  0.0225  0.0352
29401W        W45475  14.417  13.978  14.746  0.2249 -0.1861 -0.1574
29402W        W45476  12.899   2.403  16.798 -0.0838 -0.0396 -0.0934
29403W        W45477  13.476   1.002  16.698  0.1850  0.3573  0.1937
29404W        W45478  12.681  11.188   2.166  0.0707  0.0719 -0.1306
29405W        W45479  13.113  13.207  13.702 -0.1041 -0.1278  0.1172
29406W        W45480   6.991   0.966   2.662 -0.0644  0.2220 -0.0430
29407W        W45481  14.111   9.374   1.125 -0.1649  0.0822  0.0521
29408W        W45482  17.139   9.762   3.642 -0.2113  0.2637 -0.2059
29409W        W45483  11.606   6.599   1.280 -0.2635 -0.3377  0.0050
29410W        W45484   3.601   7.228  13.757  0.2630 -0.2348  0.0284
29411W        W45485  13.316  16.317   3.338 -0.2493 -0.1644 -0.1732
29412W        W45486  15.325   5.173  11.614  0.1862  0.0647 -0.0687
29413W        W45487   8.642   1.393  12.448  0.3188 -0.1699 -0.0577
29414W        W45488  17.101  11.321  15.610 -0.1769  0.3120 -0.0257
29415W        W45489   4.625   9.643  11.923  0.3420 -0.2468  0.0563
29416W        W45490   3.279  16.052   5.282 -0.3627  0.2601 -0.2850
29417W        W45491   1.168  11.567  13.225 -0.3459  0.1651  0.0057
29418W        W45492  15.784   0.357   1.963 -0.2303  0.0794 -0.2608
29419W        W45493   8.575   4.611   0.069 -0.0104 -0.0242 -0.1694
29420W        W45494   4.835  17.084  13.281  0.0091 -0.3368 -0.0433
29421W        W45495   4.648  11.488  13.603  0.1439 -0.0296 -0.0373
29422W        W45496  12.685   5.685  13.178  0.1508 -0.0893  0.1443
29423W        W45497   8.414   0.352   5.219 -0.0424  0.0098  0.2170
29424W        W45498   7.239   2.416  16.953  0.2635 -0.4359 -0.3474
29425W        W45499   2.086   0.513  16.898  0.0976  0.1331 -0.3881
29426W        W45500  12.711  11.849  15.844  0.1322  0.1067  0.0852
29427W        W45501   2.930  13.748  16.231 -0.0547 -0.0464  0.0985
29428W        W45502  16.077  17.341   1.487 -0.0739 -0.0830 -0.0319
29429W        W45503   8.432   7.585   6.025 -0.4071  0.1779  0.0637
29430W        W45504   1.027   8.567  16.941 -0.0200  0.1306 -0.0847
29431W        W45505   9.973   0.958  14.571 -0.1630  0.3645 -0.2266
29432W        W45506  14.810   4.148  12.011 -0.0203 -0.0365 -0.3318
29433W        W45507  11.158  12.844  13.020 -0.0090  0.2955 -0.0040
29434W        W45508   2.010   9.143   3.270 -0.0212  0.2238 -0.1782
29435W        W45509   8.630   0.464  16.656  0.1721 -0.2557 -0.0538
29436W        W45510   2.193   8.058   2.233  0.2513 -0.0644 -0.2253
29437W        W45511   0.180  17.363  12.717  0.4011 -0.0973 -0.0153
29438W        W45512   3.681   4.320   4.993  0.0565  0.0707 -0.0388
29439W        W45513  10.052   4.068  11.604 -0.0444 -0.0139  0.0642
29440W        W45514   6.481   0.638  13.367 -0.1041 -0.0214  0.1157
29441W        W45515   6.059   9.313  12.917  0.0102  0.1367 -0.1293
29442W        W45516  14.323  12.893   5.105 -0.0913 -0.0709 -0.0583
29443W        W45517   9.103  17.401  13.398 -0.1326  0.0309  0.2848
29444W        W45518   7.127  13.093   6.255 -0.0227 -0.1849  0.1363
29445W        W45519   4.761   5.465   4.085  0.1226 -0.3426 -0.1819
29446W        W45520  17.446   7.174   3.959 -0.1222 -0.5618  0.0400
29447W        W45521  17.395   2.588  14.486 -0.2828 -0.0504 -0.2203
29448W        W45522   5.343   1.025  16.528 -0.5503  0.2878 -0.0622
29449W        W45523   0.409   6.622  14.754  0.0687 -0.1362 -0.2515
29450W        W45524   8.381   3.908  13.363 -0.4572  0.1167 -0.0374
29451W        W45525   6.290  10.863  12.958 -0.0695  0.0097 -0.0478
29452W        W45526   1.260  16.955   5.583 -0.0536  0.0817  0.1749
29453W        W45527  15.376  13.391   5.427 -0.3661 -0.1594  0.2364
29454W        W45528  15.015  14.035  11.933 -0.2313 -0.3440  0.0851
29455W        W45529  13.909   9.537   3.190  0.0405 -0.2555 -0.0870
29456W        W45530   2.068  11.500   1.302  0.0764  0.0265 -0.1703
29457W        W45531   3.271  13.873   4.887  0.2512 -0.0010  0.0633
29458W        W45532   9.415  10.482   1.041 -0.0659 -0.1760  0.2525
29459W        W45533  13.442  16.334  12.484  0.1291 -0.0710  0.1069
29460W        W45534   8.554   8.916   1.460  0.2775 -0.1338  0.0238
29461W        W45535   4.138   1.740  16.161  0.5153 -0.1831  0.3180
29462W        W45536  14.369   4.809  16.584  0.0844  0.1635 -0.0200
29463W        W45537   6.089   9.465  16.851 -0.0697  0.2890  0.3789
29464W        W45538  16.036   8.412  15.339  0.0568  0.0458  0.1182
29465W        W45539  17.432  17.299   0.028  0.2932  0.0910  0.4192
29466W        W45540   5.686  17.482   4.156 -0.0323  0.1174 -0.0314
29467W        W45541   4.579   9.420  13.104  0.3253  0.2475  0.1091
29468W        W45542  12.539  11.433   3.515  0.1401  0.0700  0.1170
29469W        W45543   4.016   4.864  11.720  0.0442 -0.5781  0.2820
29470W        W45544   3.083  15.926   3.675  0.2580  0.1688 -0.2765
29471W        W45545   1.105   3.231   5.561  0.2248  0.0475 -0.0327
29472W        W45546   4.019   7.785   6.496 -0.0614 -0.0546 -0.4747
29473W        W45547   9.647  16.565   2.269 -0.0061  0.0641 -0.1143
29474W        W45548  15.052  15.902   4.708  0.0636  0.0917 -0.0762
29475W        W45549   3.904   5.924   5.504  0.1165  0.1290 -0.0985
29476W        W45550  14.287  14.939   0.187  0.2363 -0.3904  0.2122
29477W        W45551   4.879  14.788  13.058  0.1200 -0.0313  0.0640
29478W        W45552  10.880  15.320  11.455 -0.5578  0.0460 -0.0038
29479W        W45553  14.950  14.878   2.646 -0.0201 -0.1591  0.2108
29480W        W45554   8.530  11.508   3.190  0.1244 -0.1616 -0.1755
29481W        W45555   1.205  15.622   3.832  0.2285  0.0333 -0.1050
29482W        W45556  11.939   3.332   0.015  0.1624 -0.1544 -0.2013
29483W        W45557   8.114   7.628   0.613  0.3170 -0.1876  0.1289
29484W        W45558  11.261   7.267   0.659  0.3264  0.1945 -0.1844
29485W        W45559   1.581   8.156  12.201  0.3042  0.1819 -0.3850
29486W        W45560  16.922  17.560  11.619  0.0938 -0.0098 -0.1376
29487W        W45561  13.623   7.748  14.701  0.1234 -0.2924 -0.1418
29488W        W45562   9.214   8.234   5.252  0.2263  0.1777  0.0133
29489W        W45563   3.959   7.997  16.131  0.3451 -0.0032  0.0568
29490W        W45564   1.880  16.762  11.870  0.0350 -0.4308  0.4475
29491W        W45565  11.486  15.711   4.921 -0.1249 -0.0463 -0.0605
29492W        W45566  14.956  12.537   3.355  0.1250 -0.0220 -0.1246
29493W        W45567  16.672   2.793  12.261  0.0844  0.0878 -0.1524
29494W        W45568   1.643   8.708  16.451 -0.2025  0.0177 -0.1349
29495W        W45569  17.161  15.702   5.520 -0.1874  0.0077 -0.2020
29496W        W45570  15.341   3.518  14.734 -0.1005  0.2012 -0.0909
29497W        W45571  15.578  17.344   1.605 -0.2954  0.0035 -0.0827
29498W        W45572   1.438  10.111   4.136  0.0496  0.1971 -0.3816
29499W        W45573  13.600   7.619   3.279  0.0924 -0.1586  0.1841
29500W        W45574   2.594   0.967   5.070  0.0202 -0.4180  0.1848
29501W        W45575   1.280   8.982  16.719 -0.2922 -0.0661 -0.3301
29502W        W45576  10.241  10.787   2.762  0.0002  0.0354 -0.0983
29503W        W45577  13.560  16.920  15.213  0.1362 -0.0752  0.2507
29504W        W45578   7.570   2.157  14.109 -0.0477  0.2573  0.1679
29505W        W45579   4.653   2.906   4.676 -0.2274  0.1782  0.0802
29506W        W45580   6.383  14.304  12.584 -0.3266 -0.1412  0.0362
29507W        W45581  12.385  14.492  12.019 -0.1197  0.0774  0.2451
29508W        W45582   7.338  12.609  14.785 -0.2733  0.2567 -0.1033
29509W        W45583   8.393  17.276  14.639  0.0035 -0.0554  0.1546
29510W        W45584   4.866   1.811   1.110  0.1039  0.1247 -0.0498
29511W        W45585  16.620  16.237  12.012 -0.1891  0.3271 -0.0607
29512W        W45586   3.677   4.570   2.706 -0.1727  0.1205  0.0276
29513W        W45587   7.405  15.187   0.385 -0.1321 -0.0137  0.0385
29514W        W45588   3.122   8.247   2.256 -0.1816  0.1365 -0.1277
29515W        W45589  16.873   4.099   6.041 -0.0393 -0.0333 -0.4580
29516W        W45590  10.545   3.915  14.390 -0.1149 -0.1433  0.1230
29517W        W45591   2.682  16.955  13.219  0.0437 -0.0189  0.0306
29518W        W45592  14.033   2.723   0.017  0.0827  0.2875  0.1533
29519W        W45593  12.472   3.317   3.896 -0.1030 -0.0782 -0.1728
29520W        W45594   5.965   0.578   1.004 -0.2090  0.3079  0.1089
29521W        W45595  12.357   7.238   0.538  0.0946 -0.1441 -0.0038
29522W        W45596   4.873   4.189   1.458  0.1050  0.1435 -0.0890
29523W        W45597  15.778  17.264   6.486 -0.1597 -0.2734  0.0122
29524W        W45598   7.507   1.701  14.972  0.1343 -0.2624  0.2589
29525W        W45599  12.006   0.844  15.179  0.1599  0.0679 -0.0290
29526W        W45600  13.138  15.074  15.424  0.3193  0.4265 -0.4667
29527W        W45601   8.232   3.503   1.845 -0.3364  0.0390 -0.0387
29528W        W45602   1.487   7.088   3.218  0.1323  0.0784 -0.0048
29529W        W45603  15.866   3.905   3.076  0.1002 -0.0777 -0.1392
29530W        W45604  10.500   1.381   3.534 -0.2111 -0.2275  0.1713
29531W        W45605   8.036  15.354   3.231 -0.0955  0.0863 -0.2693
29532W        W45606   0.554   4.405  12.030 -0.0868 -0.1366  0.3064
29533W        W45607   4.283  14.283   1.499  0.0046 -0.0044 -0.2047
29534W        W45608   1.730  13.064  12.847 -0.0802 -0.1655  0.0218
29535W        W45609   6.143  12.878  12.715 -0.2162  0.1284 -0.1316
29536W        W45610   9.646   7.704  16.285  0.1806 -0.2331  0.1711
29537W        W45611  10.094   5.316   5.094  0.1311 -0.0784 -0.0894
29538W        W45612   8.379  15.897   1.826  0.0518  0.1153  0.1172
29539W        W45613  10.539  13.739  11.856  0.5100 -0.1314  0.0191
29540W        W45614  13.499   6.770  16.972 -0.0431  0.0051 -0.0817
29541W        W45615  10.837   2.539  11.965 -0.0321  0.1221 -0.1185
29542W        W45616   0.444   3.303   4.324  0.2174  0.3456 -0.2494
29543W        W45617  12.995   4.316  14.821 -0.1906  0.0906  0.0774
29544W        W45618  14.856   7.984  15.221  0.2155 -0.1353  0.0233
29545W        W45619  17.273   7.103  12.774 -0.0831  0.0818  0.1301
29546W        W45620  17.171   5.783  13.435  0.0046 -0.1728 -0.0739
29547W        W45621   9.686  15.766   1.727  0.2600 -0.0045  0.0033
29548W        W45622   7.590   1.017  16.100  0.0949  0.2483 -0.1647
29549W        W45623  14.020   8.370   0.169 -0.1162 -0.0209 -0.1954
29550W        W45624   6.903   8.269  11.568  0.0222  0.2806  0.1416
29551W        W45625  12.178   4.128   0.514 -0.0951 -0.2386 -0.1822
29552W        W45626   0.249   8.825   5.975 -0.1088 -0.0453 -0.1027
29553W        W45627  16.772   6.000  12.172  0.1022  0.1727  0.0812
29554W        W45628   1.112   0.077  16.180 -0.2051  0.2567  0.0894
29555W        W45629  13.055  11.747   5.581  0.2040 -0.0239  0.0403
29556W        W45630  13.072   2.889  11.653 -0.0696 -0.0036 -0.1859
29557W        W45631  14.814  12.190   4.705  0.1472  0.1011  0.0680
29558W        W45632   1.043   8.861  11.849  0.1115 -0.0666 -0.1501
29559W        W45633  13.758   9.863  16.398  0.0143 -0.2079 -0.0595
29560W        W45634  13.777  15.179   0.875 -0.2531  0.0407 -0.1602
29561W        W45635  14.041   6.015  13.261  0.1776 -0.0336 -0.2997
29562W        W45636  12.920  10.829  15.719 -0.4394  0.0907  0.0745
29563W        W45637   6.965  12.894   4.129 -0.2740  0.1214  0.0162
29564W        W45638  15.055  14.621  12.763  0.2220  0.0145  0.0264
29565W        W45639   1.865   7.748  15.918  0.1031 -0.1129  0.1426
29566W        W45640  10.913  14.418   2.309 -0.3185 -0.1583  0.0358
29567W        W45641  10.547  11.369   5.238  0.1052  0.0783  0.2350
29568W        W45642  14.558   3.884   5.278 -0.2980  0.2154 -0.0096
29569W        W45643   0.611   6.065   4.712  0.1958 -0.0715  0.0058
29570W        W45644  15.835   8.413  13.854 -0.0228  0.1336 -0.0957
29571W        W45645   2.988   0.979  12.041 -0.0447  0.1895 -0.0630
29572W        W45646   3.519  15.903  16.397 -0.1362 -0.1992 -0.1062
29573W        W45647   2.863  13.188   0.297  0.1804 -0.0617 -0.1042
29574W        W45648   8.849  13.547   3.884 -0.2425  0.1028 -0.1814
29575W        W45649  11.816  10.482  16.557 -0.1605 -0.1464  0.0180
29576W        W45650  11.136  12.651   2.224 -0.2560 -0.2185  0.1037
29577W        W45651  15.374  17.655   4.042 -0.0837 -0.0865 -0.0020
29578W        W45652  11.112   3.804  12.368 -0.2692 -0.1046 -0.0053
29579W        W45653  16.219   4.538  14.924 -0.3581 -0.1526  0.3035
29580W        W45654  10.838  14.753   1.951  0.0075  0.0305 -0.2375
29581W        W45655  15.907   3.966   5.816  0.2230  0.1943  0.6500
29582W        W45656  14.262   1.517   5.741  0.1233  0.0104  0.1422
29583W        W45657  13.084  12.645  12.499 -0.1979 -0.0408 -0.1338
29584W        W45658  10.468   6.701  11.661 -0.3721  0.1278 -0.1391
29585W        W45659  15.772   2.018  14.871 -0.0088  0.0513  0.2900
29586W        W45660   8.800  15.003  11.947 -0.0043  0.2537  0.3406
29587W        W45661  14.636   0.438   3.893 -0.0504  0.2962  0.0673
29588W        W45662  10.578   8.133   5.181 -0.2773  0.1068  0.2646
29589W        W45663  13.334  14.451  12.288  0.3740  0.1307 -0.1285
29590W        W45664   2.054  16.608  14.841 -0.0039 -0.1510  0.4481
29591W        W45665   5.335   8.904  15.855  0.1644  0.0885 -0.0723
29592W        W45666   7.023  15.012  14.482  0.1797  0.0404  0.0275
29593W        W45667  16.738  13.252  16.291  0.1020 -0.2494 -0.1764
29594W        W45668   6.557   0.655  14.611  0.2775 -0.1810 -0.0253
29595W        W45669  14.799  12.827  16.376 -0.2375 -0.0261 -0.2109
29596W        W45670   3.344   7.821   2.049 -0.1544  0.0037  0.3847
29597W        W45671  12.320  13.718  15.072  0.1613 -0.0933 -0.0303
29598W        W45672   5.832  12.317   6.302 -0.1933  0.1879  0.1368
29599W        W45673  15.273   2.235  16.725  0.0322  0.1527  0.1807
29600W        W45674   8.815   1.050  13.928  0.2719 -0.0932 -0.0264
29601W        W45675  10.599   6.204  11.758  0.2466  0.0349  0.1404
29602W        W45676   5.660   2.536   2.966  0.2597  0.1708 -0.2018
29603W        W45677   3.448   5.167   2.786  0.1963  0.0596  0.0659
29604W        W45678  16.268   2.739   1.059  0.0275  0.1089 -0.2056
29605W        W45679  16.376  11.127   5.242  0.3519  0.2795 -0.0502
29606W        W45680   3.155   4.558  11.824 -0.0550 -0.0096 -0.1983
29607W        W45681   1.600  10.334  12.910  0.2426 -0.1166  0.5015
29608W        W45682   9.273   7.010   1.107 -0.1296 -0.1766 -0.1426
29609W        W45683   7.092  15.870  13.556 -0.1914 -0.2453 -0.2517
29610W        W45684   5.781  16.720   1.085  0.1363 -0.0122 -0.0178
29611W        W45685  14.035  16.333  15.412 -0.1235 -0.1326  0.0924
29612W        W45686  12.193   7.237   2.752  0.0173 -0.1135  0.2419
29613W        W45687   9.120   1.642  12.447  0.0453 -0.1660 -0.1006
29614W        W45688  12.955   1.663  16.461 -0.2295  0.1418  0.2891
29615W        W45689   0.514   6.682   5.936 -0.3971  0.0449 -0.1359
29616W        W45690   0.816  15.957  12.181  0.1365 -0.0936  0.1899
29617W        W45691  15.734   6.746  12.809 -0.0039 -0.1139  0.3492
29618W        W45692   5.229   6.956  11.589 -0.2025 -0.1182  0.0882
29619W        W45693   5.021   9.664   2.356 -0.2640  0.2965 -0.0403
29620W        W45694   7.313   3.918   2.041  0.0730  0.0167 -0.1808
29621W        W45695  16.346   9.969  16.027 -0.0901 -0.0379  0.1424
29622W        W45696   0.131   8.972  16.073  0.0223  0.1201 -0.2008
29623W        W45697  16.842   5.246  15.492  0.1032 -0.1877  0.1402
29624W        W45698   8.504  12.056  15.535  0.1225 -0.0840  0.1503
29625W        W45699  14.121   7.430   3.132  0.0184  0.0623 -0.0388
29626W        W45700   7.924  10.705   2.067  0.1501 -0.2239  0.1857
29627W        W45701  12.474   2.373   5.905 -0.0368 -0.1226 -0.0994
29628W        W45702  10.551  14.038   0.696 -0.0531  0.1477  0.0963
29629W        W45703  16.646   7.690  16.445  0.4999 -0.1094  0.1026
29630W        W45704  12.779  15.576  15.398 -0.0180  0.1014  0.2463
29631W        W45705  17.758  17.728   0.041  0.2367  0.2757  0.0922
29632W        W45706  11.245   8.130  14.350 -0.3617 -0.1535 -0.1287
29633W        W45707   4.835   2.398   2.677  0.3273 -0.0111  0.2705
29634W        W45708  17.830   3.570  14.899 -0.0066  0.3202 -0.0860
29635W        W45709  11.621   4.177  15.821  0.1260 -0.1964  0.1270
29636W        W45710   9.607  12.526  14.156  0.1882  0.1690  0.2042
29637W        W45711   8.608  15.619   4.382 -0.2382 -0.2210  0.1982
29638W        W45712   8.875   8.877   0.112  0.1126  0.3592 -0.3639
29639W        W45713   6.719  14.612   1.344  0.4204  0.0017 -0.1472
29640W        W45714   0.735   2.925   1.474  0.0465 -0.3496  0.0574
29641W        W45715   2.863  14.714  14.419 -0.0527 -0.0797 -0.0834
29642W        W45716   5.068   3.509  12.030 -0.3139 -0.0890 -0.1676
29643W        W45717  15.026   6.325  14.806  0.1892  0.3273 -0.0397
29644W        W45718  12.159   1.097   2.199  0.0334  0.0271 -0.0633
29645W        W45719   0.770   3.684  16.126 -0.1179 -0.4473  0.2231
29646W        W45720  13.116  12.238   5.318  0.2114 -0.1472 -0.0293
29647W        W45721   7.720   6.978  15.855 -0.3266  0.0087 -0.0327
29648W        W45722   6.623   5.338  14.759 -0.2740 -0.2522 -0.0364
29649W        W45723  13.053   3.142  16.320 -0.3368 -0.0683  0.0537
29650W        W45724   6.753  12.920  16.826  0.0539 -0.0099  0.2923
29651W        W45725  11.963  16.886   4.371  0.3018  0.0268  0.1700
29652W        W45726  14.788   8.412  15.510  0.0982 -0.0076 -0.1326
29653W        W45727  14.791  12.767   2.571  0.0312 -0.1957 -0.2911
29654W        W45728  10.856  16.404  16.922 -0.0546  0.2130  0.2973
29655W        W45729   8.430  16.454   3.375 -0.0944  0.2226  0.1272
29656W        W45730   8.397   9.960   0.818  0.1835 -0.3887  0.1262
29657W        W45731  16.537   4.947   3.517  0.1735  0.0475  0.2611
29658W        W45732   0.944   6.021  11.924  0.3823  0.1267  0.1058
29659W        W45733  14.263  12.512   1.316  0.0828  0.1156  0.1293
29660W        W45734  16.271   9.496  12.480  0.2160 -0.0783  0.0523
29661W        W45735   9.054  15.468   4.706 -0.1634 -0.2594  0.0003
29662W        W45736  14.775  10.830   5.846  0.0615  0.0785 -0.3390
29663W        W45737  13.704   0.659  15.896  0.3722  0.0541 -0.0016
29664W        W45738   9.959  14.816  12.296 -0.1340  0.1655  0.1222
29665W        W45739   9.010  11.357  15.065  0.1988  0.4036 -0.1835
29666W        W45740  11.079  12.426  13.680 -0.3609 -0.2354  0.1219
29667W        W45741   1.904  12.231  12.800  0.0650 -0.1030 -0.1105
29668W        W45742  16.729   1.726   0.739 -0.1763  0.1648 -0.2821
29669W        W45743   0.004  10.796  15.824  0.0858  0.3100  0.0500
29670W        W45744   8.014   4.151  14.908  0.2061 -0.1550 -0.1574
29671W        W45745  12.911  11.739   5.063 -0.3629 -0.3321  0.1818
29672W        W45746   2.716  15.984   1.349  0.0496  0.4183  0.1124
29673W        W45747   3.468  13.649   2.821  0.2749  0.0834 -0.1125
29674W        W45748  16.540   0.305   5.678 -0.0737 -0.1564 -0.0138
29675W        W45749   3.149  15.074   5.258  0.1926 -0.0395 -0.1013
29676W        W45750   5.434   2.533   4.571  0.0459 -0.2263 -0.0615
29677W        W45751  15.983   6.618   3.930  0.1589  0.1420 -0.0391
29678W        W45752   6.421   0.052   5.691 -0.0031  0.0675 -0.4265
29679W        W45753   0.419  17.406   2.222 -0.0415 -0.0992  0.5344
29680W        W45754  13.339   2.153  12.713  0.1550 -0.1774 -0.1932
29681W        W45755   2.788   4.010  16.649  0.0418  0.1595  0.0943
29682W        W45756   2.704  13.728  13.570 -0.1479  0.0734 -0.0294
29683W        W45757  15.454  15.962   3.851  0.1048  0.0040 -0.0188
29684W        W45758  15.958  17.612  13.814  0.0008  0.0474 -0.0468
29685W        W45759  12.656  17.072   1.095 -0.0605 -0.0474  0.0370
29686W        W45760  17.845  13.499   3.750 -0.1379 -0.0670  0.1523
29687W        W45761  10.837  16.535  11.531  0.1396  0.3272 -0.3368
29688W        W45762  14.453  10.919   1.457 -0.0033  0.0801  0.3205
29689W        W45763   1.264   4.047   0.012 -0.2709 -0.1162  0.0397
29690W        W45764   6.287  10.569   3.237  0.4082  0.3722  0.1991
29691W        W45765  14.513   7.331  15.009 -0.2425 -0.0977  0.0939
29692W        W45766   6.470   8.027  11.782  0.0327  0.0880 -0.0139
29693W        W45767   7.677   5.232   5.060  0.2045  0.0473  0.0376
29694W        W45768   1.979  11.922  16.350 -0.3643 -0.1764 -0.1000
29695W        W45769   0.219  17.720   5.199  0.0520 -0.0901 -0.0945
29696W        W45770  13.938  15.277  16.374 -0.0963 -0.0400  0.2986
29697W        W45771  16.823   8.606   2.989 -0.1908 -0.3715 -0.2048
29698W        W45772   9.923  17.370   2.366 -0.2633  0.0086  0.0350
29699W        W45773  17.311   5.209   2.125  0.0618  0.1799  0.2565
29700W        W45774   5.758   7.626  14.206  0.0330 -0.1757  0.0589
29701W        W45775   6.076   9.326  12.041  0.0416  0.0278 -0.1974
29702W        W45776   3.218  11.081  13.506  0.1731 -0.1144 -0.1888
29703W        W45777  12.394   4.970  12.020  0.0749 -0.0067  0.0003
29704W        W45778  13.541  14.963  15.129  0.1618  0.0056 -0.0681
29705W        W45779   4.419   4.504   0.160 -0.6075 -0.1539  0.2919
29706W        W45780  17.841   7.853  16.565 -0.1930 -0.2011 -0.0343
29707W        W45781  16.609  13.654  14.603 -0.0431  0.0079  0.0010
29708W        W45782  15.301   5.956   0.859 -0.0660 -0.0141 -0.0762
29709W        W45783   0.122   5.903   3.624  0.0590 -0.0233 -0.0785
29710W        W45784   8.755   9.945   2.986 -0.0310 -0.5105  0.1329
29711W        W45785   1.501  16.805  16.143  0.1133 -0.0691 -0.1374
29712W        W45786   4.544  14.784  15.170  0.2953  0.0823 -0.2327
29713W        W45787   5.259   8.198   5.722 -0.0700  0.2247 -0.0933
29714W        W45788  15.648   1.030  14.597 -0.0731  0.2641 -0.0550
29715W        W45789  14.936  15.072  12.050  0.0859  0.1621  0.1684
29716W        W45790   2.318  16.356  11.434 -0.2489  0.0193  0.0682
29717W        W45791  11.563   8.336   1.222  0.1530 -0.0589  0.0381
29718W        W45792   8.842   3.196  15.264 -0.0803  0.2597  0.1797
29719W        W45793   5.986  10.594  16.407  0.3388  0.5483  0.1548
29720W        W45794  17.126   4.159  16.401  0.0923 -0.1363  0.0306
29721W        W45795  12.552   4.642  13.179 -0.2145  0.1514 -0.0031
29722W        W45796   2.835  13.562  13.063  0.0583 -0.1428  0.1640
29723W        W45797   1.733  15.559  15.220 -0.2170 -0.0459 -0.1506
29724W        W45798   9.723   4.538  12.398 -0.1291  0.3167 -0.2986
29725W        W45799   8.996  12.089  12.895  0.1806  0.2367  0.1408
29726W        W45800   5.749   9.746   1.297  0.1353  0.1590  0.1006
29727W        W45801   1.627  14.883  14.270 -0.1604 -0.1061 -0.0709
29728W        W45802   9.030  11.488   1.047 -0.1083  0.1272  0.0159
29729W        W45803  11.450   4.383   4.376  0.0400 -0.4320 -0.1527
29730W        W45804   7.075  16.411   4.878 -0.1290  0.0657 -0.0775
29731W        W45805   3.707  10.966  15.126  0.0972  0.0897 -0.0636
29732W        W45806  17.373  11.955  15.406  0.2153  0.0292  0.2720
29733W        W45807   7.615  13.840   5.339  0.2523 -0.1668  0.1769
29734W        W45808   0.126   0.552   2.847 -0.0195 -0.0650  0.4043
29735W        W45809   2.859   9.674   4.501 -0.2189  0.0356  0.1762
29736W        W45810   6.572   7.718  13.121  0.0928  0.0379  0.0992
29737W        W45811  17.244  12.700   5.694  0.4735  0.0831 -0.0189
29738W        W45812  13.380  14.094  12.621 -0.0029  0.1681 -0.0939
29739W        W45813   4.543   7.746  13.991 -0.0128 -0.1590  0.1149
29740W        W45814   9.221  10.949   3.177 -0.0969 -0.1310  0.1533
29741W        W45815  12.283   5.581  16.031 -0.0344  0.2471  0.0495
29742W        W45816   5.753   0.144  11.409  0.0052  0.0683 -0.2286
29743W        W45817   2.008   0.634  15.202  0.2418  0.0368  0.0764
29744W        W45818   5.157  10.279  10.995  0.0093 -0.1189  0.1498
29745W        W45819   2.680   2.581   1.441 -0.4125  0.0448  0.3751
29746W        W45820   1.388   6.711  15.928  0.2531  0.4137  0.4225
29747W        W45821   0.772  12.773  15.049 -0.1087  0.0396  0.1473
29748W        W45822   2.326  10.369   2.955 -0.2126  0.0538  0.1253
29749W        W45823  15.603   1.921   4.220  0.1129 -0.1092  0.0723
29750W        W45824   5.107   4.148  12.593  0.1505 -0.2990  0.0679
29751W        W45825   4.017  12.760  16.036  0.1186  0.1016 -0.1880
29752W        W45826  10.059  11.222  16.674 -0.2813  0.0605 -0.1512
29753W        W45827   6.634  13.525   5.589 -0.0269  0.1689  0.2634
29754W        W45828  14.412   5.911  13.939  0.1135 -0.0993 -0.1723
29755W        W45829   6.014  13.786  16.297  0.2207 -0.0524 -0.0845
29756W        W45830  13.803   8.022  12.607  0.1505  0.0956  0.1678
29757W        W45831   8.655  10.319   5.143  0.1635  0.1972 -0.2295
29758W        W45832  16.779   9.072   2.360  0.0791  0.0328  0.0974
29759W        W45833  12.316   2.622  13.602  0.3333 -0.1989  0.3334
29760W        W45834   2.755  15.803  14.629  0.3054  0.2646  0.0324
29761W        W45835   6.387  10.366  14.512 -0.1112 -0.0182  0.1821
29762W        W45836  14.215  10.347   0.233  0.0313 -0.0418  0.3454
29763W        W45837  10.961   5.871  12.402  0.0286  0.0157 -0.1476
29764W        W45838  12.881  15.574   2.976  0.0616 -0.2257  0.0568
29765W        W45839  16.236  13.738   2.479 -0.1216 -0.0767  0.1060
29766W        W45840  15.371  15.848  12.564 -0.3020  0.2201  0.2846
29767W        W45841   2.063   6.347   0.352  0.1282 -0.0585  0.0360
29768W        W45842   3.232  10.946  14.742 -0.3159  0.1263 -0.1998
29769W        W45843   9.080  11.988   5.782  0.2570  0.3110  0.2343
29770W        W45844   9.335  17.777  15.406 -0.1598  0.3502 -0.1273
29771W        W45845   0.798   3.862   3.783  0.3489  0.4086 -0.2389
29772W        W45846   0.142   5.809  13.736 -0.1130  0.2623 -0.1097
29773W        W45847  16.669   0.877  14.126 -0.0475  0.0090  0.0015
29774W        W45848   5.070  13.537  12.767  0.2785  0.1691  0.0283
29775W        W45849   6.317   2.587   5.412  0.0345 -0.0995 -0.1565
29776W        W45850   2.288  13.623  13.185 -0.0225 -0.2282  0.2294
29777W        W45851  10.196  10.410  12.238  0.0393 -0.0192 -0.2899
29778W        W45852   6.161   9.045   5.734  0.2195 -0.1294  0.0979
29779W        W45853   3.989   3.373   1.934  0.0212  0.1413  0.1127
29780W        W45854  10.307  14.762   0.646  0.1368  0.1938  0.2217
29781W        W45855   8.806   2.080   4.833 -0.1792 -0.3804 -0.0673
29782W        W45856   2.442  16.353  12.875  0.1004  0.0346 -0.0062
29783W        W45857   8.348  12.183   1.111  0.2347 -0.1806  0.1249
29784W        W45858  16.362   5.117  14.192  0.1177  0.0257  0.3824
29785W        W45859   0.266   9.278  15.550  0.0513 -0.0050 -0.1248
29786W        W45860  16.067   2.967   2.380  0.0553  0.0674 -0.0524
29787W        W45861  12.594  13.740   1.242  0.0886 -0.1297 -0.2485
29788W        W45862  10.264   5.811  13.718 -0.1522 -0.2398  0.2651
29789W        W45863   5.762   0.917   2.892  0.0861 -0.2029  0.2952
29790W        W45864   6.256   6.493   1.209 -0.1126 -0.1445  0.1232
29791W        W45865   8.704   6.197   1.720 -0.0480  0.2175 -0.1058
29792W        W45866   3.002   9.622  13.156  0.0637  0.1844 -0.2338
29793W        W45867  12.585   4.461   5.534 -0.0883  0.2067 -0.0036
29794W        W45868  17.180  15.657   1.568 -0.0846 -0.1590  0.2391
29795W        W45869   3.184   0.368  15.703 -0.0800  0.0955 -0.3425
29796W        W45870  13.253   3.495   5.037  0.2245 -0.0764 -0.0529
29797W        W45871  14.559   0.373  15.458  0.0273  0.0920  0.2206
29798W        W45872  12.168   2.791   3.897 -0.1381 -0.3716 -0.1339
29799W        W45873  12.066   0.896   5.034  0.0872 -0.0304  0.3137
29800W        W45874   1.067   3.598  14.688 -0.0468  0.0068 -0.0061
29801W        W45875  13.379  11.395   2.926 -0.0696  0.0106  0.0246
29802W        W45876  15.682  10.234  16.196  0.0562 -0.3744  0.3146
29803W        W45877  15.356   5.192  15.873 -0.0225  0.1114  0.0087
29804W        W45878   2.518   9.881  15.842  0.1981 -0.1535  0.2179
29805W        W45879   4.717   3.416   3.854 -0.1284  0.3583 -0.0140
29806W        W45880   0.056   8.573   1.419 -0.0120 -0.0160  0.2262
29807W        W45881  13.656   8.739   1.521  0.0134 -0.0870 -0.0555
29808W        W45882  12.944   9.159   1.582  0.0287 -0.3353  0.2358
29809W        W45883   1.254   1.015   0.927 -0.1306 -0.0644 -0.2550
29810W        W45884   0.353   8.647   3.330 -0.1681 -0.0807  0.1424
29811W        W45885   6.537   8.335  13.794  0.2706  0.1126 -0.2572
29812W        W45886  15.370  12.789  13.617 -0.0521  0.1311 -0.0003
29813W        W45887  10.519   3.296   0.791  0.1109  0.0763  0.0737
29814W        W45888   1.668  15.263  12.303  0.0751 -0.2645  0.2304
29815W        W45889  10.773   8.067   3.238 -0.2834 -0.0870  0.1031
29816W        W45890   5.478  15.601   4.735 -0.0627 -0.2034  0.3288
29817W        W45891  15.603   2.316  14.456 -0.1854  0.2106 -0.0020
29818W        W45892  11.228  17.157   2.867 -0.0267  0.1728 -0.0086
29819W        W45893   6.277   0.395  16.790 -0.0211  0.0993  0.0288
29820W        W45894   7.217  13.215   4.475  0.1183  0.0219  0.1727
29821W        W45895  14.647   3.383   5.541 -0.0953  0.1404 -0.4072
29822W        W45896  10.007   9.282   2.200  0.0583  0.0044  0.0684
29823W        W45897  13.720   0.426  15.335 -0.1091 -0.1701  0.3046
29824W        W45898  16.524  11.254   0.142  0.0931  0.1358 -0.1363
29825W        W45899  12.101   5.200   4.383  0.1444  0.0256 -0.0352
29826W        W45900  16.974  14.660   0.808 -0.3338 -0.1636  0.1002
29827W        W45901   5.185   2.084   4.826  0.1492  0.1052  0.1497
29828W        W45902  15.358  10.201  16.599 -0.2177 -0.0189  0.0302
29829W        W45903  11.077  14.462   5.158  0.3120  0.0457 -0.1891
29830W        W45904  12.847   8.881  16.362 -0.0646  0.0077 -0.0052
29831W        W45905   2.274  14.346   1.704 -0.1003 -0.1087  0.0593
29832W        W45906  14.261   7.692  13.794  0.0831  0.0048 -0.0363
29833W        W45907  13.850   0.929   5.042 -0.0923  0.1416 -0.1662
29834W        W45908   7.038  17.490   3.317 -0.1050  0.0522  0.1741
29835W        W45909  17.327  13.833   3.499 -0.0182 -0.0273  0.0455
29836W        W45910   3.473  15.490  16.784  0.2139 -0.1299 -0.3119
29837W        W45911   2.518   6.252   1.369 -0.0328 -0.0051 -0.1212
29838W        W45912   2.883  17.330  12.179  0.1204 -0.0895  0.2792
29839W        W45913   6.586   1.813  13.534 -0.0514  0.0770  0.1352
29840W        W45914  14.056   1.645  16.903 -0.1054 -0.0746 -0.4033
29841W        W45915   4.174   6.417   0.470 -0.0752  0.0836 -0.0838
29842W        W45916  17.377   6.236   5.065  0.2896  0.0612 -0.1419
29843W        W45917   6.997   5.232  13.671 -0.2451  0.1059 -0.0915
29844W        W45918   7.041   4.292   0.677 -0.2955  0.0462  0.4019
29845W        W45919  15.237  13.841  15.946  0.0915 -0.2958  0.1569
29846W        W45920  14.468  15.849   4.214 -0.0094  0.0192 -0.0020
29847W        W45921   4.784   4.888  15.171  0.0840 -0.0371  0.1057
29848W        W45922   2.084   3.976  12.456  0.0830 -0.1183  0.1154
29849W        W45923   5.230  15.341   6.520  0.1799 -0.0068  0.0831
29850W        W45924  10.027  12.677   2.972  0.0587  0.2845  0.0424
29851W        W45925  16.705   4.630   0.618 -0.1052  0.4145  0.1336
29852W        W45926   7.339  12.972  13.361  0.0126  0.0889  0.0776
29853W        W45927  12.375  14.684   4.976 -0.2408 -0.1657 -0.0217
29854W        W45928   9.023  13.849  12.413 -0.0341 -0.1088 -0.4231
29855W        W45929   5.711  10.834   6.355 -0.0596  0.0809 -0.1224
29856W        W45930   0.160   3.288  16.943  0.0008  0.3962  0.1949
29857W        W45931  16.271   7.817   5.172 -0.1435  0.2402  0.0106
29858W        W45932   6.968  10.219   1.129 -0.0731  0.2850 -0.1211
29859W        W45933   6.604  16.598   3.367  0.0456  0.0204  0.1017
29860W        W45934   1.488  11.021  11.987 -0.2442 -0.0646 -0.0430
29861W        W45935   7.387   2.269   5.996  0.3585  0.1606 -0.1883
29862W        W45936  15.377   6.240   3.379  0.0862 -0.2453  0.0699
29863W        W45937  14.956   3.429   5.025 -0.0891 -0.2757  0.0540
29864W        W45938   4.161   4.578   4.317 -0.3023  0.1162  0.0452
29865W        W45939  15.760  15.895   3.486 -0.1228  0.3224 -0.1311
29866W        W45940  16.433  11.345  16.570  0.0510 -0.0446 -0.0807
29867W        W45941   0.308   9.155   3.178  0.4786 -0.0710 -0.0857
29868W        W45942  10.339   7.469   3.161 -0.2022 -0.3531 -0.0730
29869W        W45943   9.729   0.436   4.275 -0.1553  0.0238 -0.0027
29870W        W45944   8.932   1.487   4.697 -0.3556 -0.2643 -0.1115
29871W        W45945  10.341  15.443  14.669 -0.3811 -0.0551  0.2225
29872W        W45946  14.042  13.403  13.660  0.2854  0.3336  0.1866
29873W        W45947  11.048   4.467   4.643 -0.1846  0.0202 -0.1685
29874W        W45948  15.085   7.988   3.771 -0.0496 -0.0364 -0.0937
29875W        W45949   8.984   5.914  13.869 -0.0145 -0.1124  0.0798
29876W        W45950  13.213  13.575  13.364 -0.3649 -0.0361  0.2648
29877W        W45951   9.960   1.775  16.487  0.0444  0.3268 -0.1913
29878W        W45952  17.517  13.655   4.444 -0.0127 -0.3951 -0.0701
29879W        W45953   2.381  10.484  15.790 -0.0419  0.3893 -0.1572
29880W        W45954   5.551   0.545  14.199  0.0732  0.0185  0.3172
29881W        W45955   7.595   1.379   5.858 -0.1035  0.0390 -0.0972
29882W        W45956   5.719   6.230   0.788 -0.3677  0.1164 -0.4760
29883W        W45957  15.174  15.761   2.394 -0.0405  0.1760 -0.0877
29884W        W45958  12.771   0.179  15.545 -0.1484 -0.1534 -0.1178
29885W        W45959   8.742  12.202  15.979 -0.1747  0.0941  0.0324
29886W        W45960  14.973  10.947   1.926 -0.1504 -0.0730 -0.3245
29887W        W45961  12.392   7.147   1.373 -0.1331  0.0932 -0.1903
29888W        W45962  13.612   4.174  14.206  0.4121  0.0034 -0.0757
29889W        W45963  11.109  14.590   3.654 -0.1909  0.0442 -0.2010
29890W        W45964  11.873  16.929   4.949 -0.1499 -0.1216  0.0924
29891W        W45965  13.378   4.075   5.351 -0.0883  0.0825 -0.3975
29892W        W45966   4.661   6.471   4.894 -0.0023  0.3391 -0.0184
29893W        W45967   8.005  12.337  13.857  0.0715  0.0784 -0.1038
29894W        W45968   6.611   0.099  15.827 -0.4173 -0.2119 -0.0294
29895W        W45969   1.393   5.338   1.965  0.0814  0.0248 -0.1970
29896W        W45970   9.528   9.901  16.216  0.0664 -0.1819 -0.1803
29897W        W45971  10.746   6.172  14.689  0.4396 -0.1624 -0.1752
29898W        W45972  12.789   2.397  12.502  0.0444 -0.2357 -0.0328
29899W        W45973   0.804  11.214  16.230 -0.0983  0.2242  0.1172
29900W        W45974   7.095   0.850  12.630  0.0740 -0.1632 -0.0994
29901W        W45975  15.460   0.092   3.059 -0.1429 -0.1169 -0.0643
29902W        W45976   8.635  10.355   1.804 -0.1247  0.0396 -0.0817
29903W        W45977   3.606   6.048   2.404 -0.0123  0.0838 -0.1947
29904W        W45978   0.265  11.890   3.853  0.0405  0.3892  0.1880
29905W        W45979   2.584  12.247   0.073 -0.1085 -0.1694 -0.1374
29906W        W45980   9.319   4.353  15.586 -0.1620  0.2488  0.0857
29907W        W45981   3.864   3.564  16.493  0.1865  0.1515  0.1484
29908W        W45982   5.327  17.452   1.555  0.0385 -0.1278 -0.0660
29909W        W45983  11.731  15.407   4.321 -0.2420 -0.1944 -0.4404
29910W        W45984   5.643  16.738   0.599 -0.2496 -0.1218  0.0227
29911W        W45985   2.207  17.222  12.156  0.1233  0.4095 -0.3556
29912W        W45986   3.515  12.963   4.869 -0.0718 -0.2899 -0.1706
29913W        W45987  12.543  10.504   0.235 -0.0495  0.2112 -0.1198
29914W        W45988   5.348   8.042   5.225  0.1878 -0.2685 -0.0092
29915W        W45989  15.220  11.724   0.696  0.0701 -0.1954 -0.1708
29916W        W45990  15.345   3.967   0.052  0.0838 -0.2202 -0.0083
29917W        W45991  16.576   5.315   6.210 -0.3088  0.0520 -0.2807
29918W        W45992  17.370   9.817  13.728 -0.0021  0.1397  0.2870
29919W        W45993   4.140  17.537  16.458 -0.2078  0.3590 -0.0472
29920W        W45994  13.110   0.479   4.801  0.1791  0.0383  0.0230
29921W        W45995   0.403   2.966  13.175 -0.0308  0.2462 -0.1856
29922W        W45996  11.229  14.953   3.920 -0.0121 -0.0532 -0.2224
29923W        W45997   8.816   4.063   0.033 -0.1396 -0.0881 -0.0161
29924W        W45998  16.884  17.570   1.189 -0.1845 -0.0980 -0.3329
29925W        W45999  15.086   3.911  15.991  0.0983 -0.2382 -0.1253
29926W        W46000  11.061   8.234   1.211 -0.3111  0.0815  0.1543
29927W        W46001  11.046  13.652  13.494 -0.4125  0.2759 -0.1355
29928W        W46002  17.077  15.538   5.034  0.2074  0.4757  0.1508
29929W        W46003  13.751  10.950  15.431 -0.0874  0.2965 -0.3852
29930W        W46004  16.563  11.935   0.438 -0.2418  0.1250 -0.3265
29931W        W46005  12.176  15.448   6.795  0.0707  0.2615 -0.0253
29932W        W46006   9.825  13.257  16.784 -0.1228 -0.0456  0.2264
29933W        W46007   5.014  13.228  15.116 -0.0870 -0.1482 -0.0478
29934W        W46008   6.073  13.157  16.950 -0.1145  0.1381 -0.2968
29935W        W46009  11.070   6.070  11.926 -0.0097 -0.1176 -0.1349
29936W        W46010  12.432  12.357   2.296 -0.4489 -0.0153 -0.0516
29937W        W46011   1.209  13.611   1.799  0.4624 -0.0909  0.2539
29938W        W46012  17.260  12.364  10.839  0.1647  0.0844  0.0671
29939W        W46013   5.988  16.225   1.454 -0.1795 -0.2886 -0.2648
29940W        W46014   4.785   2.660   0.704 -0.0911  0.2420 -0.0329
29941W        W46015   7.755   0.813   3.479  0.1917  0.2637 -0.2330
29942W        W46016  17.603  13.613  12.828  0.2218 -0.2855  0.2364
29943W        W46017  13.258   8.042   2.096 -0.1201  0.0124 -0.0758
29944W        W46018   1.257   1.705   3.903 -0.2347  0.1959 -0.0916
29945W        W46019  14.874   6.266   0.911  0.0768  0.1672  0.1259
29946W        W46020   9.065   7.976   2.273  0.1951 -0.0033  0.1525
29947W        W46021   7.425  10.769   0.497 -0.0492 -0.1865 -0.1251
29948W        W46022   1.440  13.571   3.917 -0.2544  0.1771 -0.2990
29949W        W46023   4.991  17.473   2.917  0.0126 -0.0935 -0.0892
29950W        W46024   3.325   3.985   4.879  0.0075 -0.0068  0.1005
29951W        W46025   1.583   8.300   2.280  0.1064  0.1912  0.1622
29952W        W46026   8.093  16.760  12.517 -0.3439  0.0343  0.2351
29953W        W46027   1.713  15.279   4.972 -0.2426 -0.2939  0.0977
29954W        W46028  15.257  14.926   5.025 -0.0548 -0.0985 -0.1389
29955W        W46029   6.133   2.811   3.010 -0.0635 -0.1123  0.0391
29956W        W46030   9.495  14.614   2.757 -0.3164  0.0312  0.0158
29957W        W46031   2.376   4.534   4.346  0.3776 -0.0360 -0.1302
29958W        W46032  16.343   7.467   1.517 -0.0391  0.0824  0.1497
29959W        W46033   6.522   9.034  16.856  0.0868 -0.0406 -0.2085
29960W        W46034   8.633   0.759   5.382  0.0633 -0.0472 -0.1183
29961W        W46035  10.343   0.541   4.613  0.1024 -0.0282 -0.0437
29962W        W46036  11.376  15.672   3.212 -0.0174  0.3333  0.1358
29963W        W46037   1.785  13.411  11.286  0.1027 -0.1300 -0.0792
29964W        W46038  14.063   0.439   5.136 -0.0900  0.0235  0.0202
29965W        W46039   8.604  14.585   2.104  0.3195  0.1469 -0.1606
29966W        W46040   6.608   1.878   4.301  0.3061  0.0842 -0.2499
29967W        W46041  13.776   2.640  15.267  0.2393  0.2345  0.1331
29968W        W46042  16.149   9.853   4.227 -0.0266 -0.1406  0.0804
29969W        W46043   8.764  13.355   2.522  0.1733 -0.0567 -0.0737
29970W        W46044   4.099   0.902   3.655 -0.1407 -0.1228 -0.5804
29971W        W46045   5.284   9.847   4.161  0.0379  0.1973  0.0191
29972W        W46046   7.862  17.041   2.200  0.2301 -0.1137 -0.1280
29973W        W46047   0.894  12.464  12.838  0.0074 -0.1146 -0.1491
29974W        W46048   3.949   1.341   1.089  0.0526 -0.2393  0.2030
29975W        W46049  17.639   7.970  13.305 -0.1868  0.2518 -0.1193
29976W        W46050   2.169   5.583  11.953  0.0206  0.2466  0.2749
29977W        W46051   4.256  13.161   5.300  0.0213  0.4309 -0.2872
29978W        W46052   2.690  14.687   3.484  0.0526  0.0198  0.0017
29979W        W46053   4.246   8.356   1.733  0.0509  0.2762  0.0902
29980W        W46054   3.586   2.001  12.803 -0.2432 -0.2425 -0.1200
29981W        W46055   0.301   1.745   2.872  0.1463 -0.0297 -0.0818
29982W        W46056   1.285  14.445  16.488  0.1038  0.1141 -0.0706
29983W        W46057  13.049   4.309  12.601 -0.2633 -0.1109 -0.2637
29984W        W46058  14.200   5.821  15.331 -0.0146 -0.0064 -0.0655
29985W        W46059   0.220   6.647   2.264 -0.3396  0.3295 -0.1606
29986W        W46060   1.376  15.323   0.605  0.0488 -0.0107  0.1539
29987W        W46061   4.773   5.283  11.711  0.2409 -0.0608  0.3491
29988W        W46062   6.525   8.042   4.305  0.1265  0.2619  0.2712
29989W        W46063  16.032   7.465   4.287  0.0150 -0.0312 -0.1750
29990W        W46064   3.041   8.662   4.361 -0.1849 -0.2849  0.1478
29991W        W46065  13.345   8.562  15.393 -0.1825  0.0935  0.0621
29992W        W46066  15.209   3.431   3.091  0.4231  0.3435  0.0856
29993W        W46067  15.763   2.375  16.591  0.0010 -0.1164 -0.2159
29994W        W46068   8.853  11.737  16.171 -0.1318  0.3126  0.2952
29995W        W46069   7.019   7.168  15.635  0.0021  0.0753  0.1565
29996W        W46070   6.315   9.266  16.432  0.0498  0.0894 -0.0073
29997W        W46071  15.091   5.480   0.870 -0.3408 -0.0429 -0.2170
29998W        W46072   5.299   0.590   1.532  0.1602  0.0571  0.0395
29999W        W46073   2.052   5.987  16.521  0.1586  0.2280 -0.1942
30000W        W46074   2.154   9.309   1.887 -0.2600  0.0027  0.3116
30001W        W46075  15.886  14.487  16.477 -0.0868  0.1841  0.0144
30002W        W46076   1.791   9.846   3.283 -0.0652  0.0190 -0.0214
30003W        W46077   1.718  13.784   3.338 -0.0480  0.0076  0.1197
30004W        W46078  14.880   0.431   1.485  0.2783 -0.1527 -0.1467
30005W        W46079   7.177  12.644  14.285 -0.2984 -0.1554 -0.2410
30006W        W46080   6.605   2.645   4.948 -0.0585 -0.0525 -0.0722
30007W        W46081   8.425  12.445   4.582  0.0305  0.0716 -0.1252
30008W        W46082  13.473  10.827   0.123 -0.0170  0.0265  0.1745
30009W        W46083  14.515  16.428   1.410  0.0490  0.0771 -0.0126
30010W        W46084  12.573   7.668   3.068 -0.1984 -0.3485 -0.0667
30011W        W46085  10.544   2.968   5.325  0.1499  0.1295  0.0282
30012W        W46086  17.569   7.423  15.884 -0.0787  0.2477 -0.0885
30013W        W46087  10.998  11.304  11.841 -0.1911  0.0178 -0.1143
30014W        W46088   4.475   6.157  14.176 -0.1296  0.1234 -0.2547
30015W        W46089  12.968  15.876  11.474 -0.0271 -0.0957 -0.2762
30016W        W46090   5.838  13.113   2.862  0.2171 -0.1552 -0.0155
30017W        W46091   3.672  10.429  14.229  0.1246 -0.0882 -0.1034
30018W        W46092   4.968   0.487   2.587  0.1572  0.1789 -0.2041
30019W        W46093   7.881   1.394  13.740  0.0874  0.1409 -0.2709
30020W        W46094  13.953   0.972   3.050 -0.0848  0.1299  0.1051
30021W        W46095  15.902  10.935   4.060  0.0100 -0.2624  0.2048
30022W        W46096   0.937   8.173  16.657 -0.0111  0.3103  0.1410
30023W        W46097  11.363   1.600   5.028  0.0032  0.2737 -0.0778
30024W        W46098   9.472  16.227   4.243  0.2281  0.1558 -0.0355
30025W        W46099   9.727  10.124   5.014  0.1056  0.0993 -0.2201
30026W        W46100  16.927   9.151   2.831 -0.0182  0.0431 -0.0373
30027W        W46101  10.567  13.198   2.939 -0.0861 -0.0685 -0.1624
30028W        W46102  11.014   4.228   4.116 -0.1445 -0.1473  0.1161
30029W        W46103  17.631  16.770  13.287  0.1925 -0.1394  0.3417
30030W        W46104  16.807   5.785  11.420  0.0371  0.1391 -0.0729
30031W        W46105  12.768  17.495   4.669  0.1949 -0.1415  0.1823
30032W        W46106  15.874   3.578   4.489 -0.1451  0.1681 -0.1927
30033W        W46107  14.861  12.586   3.898  0.0472 -0.0845  0.0721
30034W        W46108   7.998   0.343   2.940  0.1144  0.0992 -0.0088
30035W        W46109   4.207   1.193  12.835  0.0649  0.0655  0.3292
30036W        W46110  10.541   4.715   2.409  0.0808  0.2261  0.0037
30037W        W46111  15.658  10.588   3.805 -0.0651  0.1056 -0.1433
30038W        W46112   0.949   1.852  12.768 -0.2297 -0.0804  0.1244
30039W        W46113   0.215   3.748   4.144  0.1568  0.2890 -0.0320
30040W        W46114   0.453   1.460  11.818 -0.0163  0.1379 -0.1227
30041W        W46115   8.273  17.345  16.577  0.1020  0.0568  0.2037
30042W        W46116  12.716   9.130  11.482 -0.1044  0.1880 -0.0495
30043W        W46117   9.621  14.203   1.342  0.0350 -0.2843 -0.2505
30044W        W46118  15.149   4.282   5.603  0.2417  0.0214 -0.0502
30045W        W46119   0.191   5.107  14.576 -0.2058  0.0670 -0.1792
30046W        W46120   8.700  12.250  15.017 -0.1399  0.4197 -0.0403
30047W        W46121  11.313   2.759  14.155 -0.2659  0.0138 -0.1096
30048W        W46122   7.705   2.378  16.718  0.1594 -0.1532  0.0630
30049W        W46123  15.447   5.962  15.977  0.1478 -0.3420 -0.0470
30050W        W46124   4.698  15.372  12.692  0.0056 -0.1270 -0.1364
30051W        W46125   9.859   5.325  16.186  0.0630  0.0407 -0.0844
30052W        W46126   5.502  14.872   1.420 -0.1204 -0.2985 -0.3000
30053W        W46127  16.417   3.577   0.044 -0.1427  0.0538 -0.2030
30054W        W46128  17.059   8.568  16.257  0.1503  0.2758 -0.3484
30055W        W46129   0.721   6.550   1.046  0.4175 -0.0298 -0.1219
30056W        W46130   7.540  14.508   4.689 -0.0618 -0.2769  0.1289
30057W        W46131  15.241  14.285   4.962  0.2012  0.0073  0.1321
30058W        W46132  10.903   0.785  14.939  0.3371  0.0546  0.2437
30059W        W46133   0.578  12.198   4.069  0.0951 -0.0216 -0.3828
30060W        W46134  12.361   3.734   2.203  0.0287 -0.1301  0.0595
30061W        W46135   1.870   1.460  14.949 -0.2990  0.2092 -0.1362
30062W        W46136  13.987   7.947   1.568  0.1210 -0.1137 -0.0664
30063W        W46137   3.205   1.971  15.972 -0.2339  0.1721 -0.3015
30064W        W46138  10.101   6.020  11.615 -0.0165 -0.3125 -0.1131
30065W        W46139  11.868   1.998  12.487  0.0935  0.0196 -0.0522
30066W        W46140   7.356   1.619   1.698  0.2881 -0.0818 -0.2371
30067W        W46141  13.066  14.984  16.696  0.0701 -0.2251 -0.5568
30068W        W46142   5.559  10.645  11.894 -0.0475 -0.4647  0.0189
30069W        W46143   1.162   4.200   5.740 -0.0366 -0.0160 -0.0121
30070W        W46144  16.270   0.602   5.349 -0.2438  0.0418 -0.0469
30071W        W46145   7.994  13.380  15.784  0.0803 -0.0972 -0.0330
30072W        W46146  17.379   4.671  14.312  0.1888 -0.1292 -0.3569
30073W        W46147  11.497   7.743  11.902 -0.0727  0.2574  0.2875
30074W        W46148  11.492   4.925   3.798  0.1555  0.0869 -0.0866
30075W        W46149  10.044   8.820   1.111  0.1149  0.0355 -0.1280
30076W        W46150   5.215  11.354   0.520 -0.0365 -0.1437 -0.2318
30077W        W46151   8.349   3.582   1.278 -0.1105 -0.0643  0.0482
30078W        W46152  14.622   1.876   5.792  0.0403 -0.0238  0.0543
30079W        W46153  10.492   0.432  13.921  0.1257  0.1030 -0.3759
30080W        W46154   5.572  14.291   5.197 -0.1012  0.1681  0.4327
30081W        W46155   4.548  15.241  14.993  0.0329 -0.4049  0.1897
30082W        W46156   7.509  10.860   3.876  0.2057  0.1421  0.2473
30083W        W46157   0.204   8.860   5.112  0.3150 -0.1133 -0.0482
30084W        W46158   2.350  15.752   5.397  0.0032  0.1751  0.1132
30085W        W46159   1.101   7.766   4.886 -0.3169 -0.1734  0.1944
30086W        W46160   0.634   2.251   0.629 -0.1532 -0.0934 -0.2912
30087W        W46161   5.239   0.232  12.693  0.0851 -0.1957 -0.1333
30088W        W46162   0.522   2.285  13.790 -0.0259  0.1705 -0.0743
30089W        W46163   6.204  17.600  11.614 -0.0272  0.0836 -0.1767
30090W        W46164  13.315   1.751  12.969  0.1007  0.0630 -0.1017
30091W        W46165   1.737  14.556  12.319 -0.0413  0.0369  0.2002
30092W        W46166   7.036   5.322  12.330  0.2923 -0.0959  0.4042
30093W        W46167  14.897   2.273  11.681 -0.1273 -0.1154 -0.2785
30094W        W46168  13.513   6.188   3.841 -0.2411  0.2195 -0.0567
30095W        W46169   6.208   4.141  16.568 -0.0773  0.0012 -0.1669
30096W        W46170  16.600   2.876   1.418 -0.4519  0.1438 -0.0930
30097W        W46171   2.611   7.214   3.945  0.0479  0.1242 -0.2245
30098W        W46172   2.320  11.995  12.104 -0.0488 -0.2157 -0.0309
30099W        W46173   6.952   1.329   4.696  0.0019  0.2510  0.0218
30100W        W46174  17.101  16.011   0.628 -0.1078 -0.2361  0.3288
30101W        W46175  15.045  10.908  15.693 -0.2055  0.0158  0.1145
30102W        W46176   1.551  15.013   5.373 -0.1425 -0.1234  0.0622
30103W        W46177  13.711   5.551   1.366 -0.1010 -0.0100 -0.2304
30104W        W46178   7.410   7.879   0.187 -0.2248 -0.3028 -0.0422
30105W        W46179   3.891   9.118   4.403  0.0191 -0.1401 -0.0308
30106W        W46180  15.458  14.573  13.262  0.2131  0.0955  0.0480
30107W        W46181  13.676  12.194  13.859  0.3352 -0.0046 -0.2211
30108W        W46182   8.516   9.878   2.550 -0.0072  0.1205  0.1072
30109W        W46183   2.651   2.709   5.921 -0.0459  0.1123  0.0522
30110W        W46184  16.494  10.203   0.183  0.1792  0.1833 -0.4049
30111W        W46185   5.287   1.852   2.533 -0.0710 -0.1336 -0.0092
30112W        W46186   2.225  13.658  14.237 -0.4764 -0.1441  0.0626
30113W        W46187  13.418   5.587   2.131 -0.1400  0.0988 -0.0241
30114W        W46188  12.647  16.962   1.959 -0.0401 -0.1718  0.2122
30115W        W46189   9.132  13.810   2.444  0.0402  0.1224 -0.3711
30116W        W46190  16.094   3.537   1.146 -0.2866 -0.1677 -0.2953
30117W        W46191  13.869  13.203   0.457  0.1039 -0.1557 -0.0383
30118W        W46192  16.957   2.756   4.651  0.2769  0.0762 -0.1354
30119W        W46193   5.635  16.537   3.101  0.2617  0.0907  0.1273
30120W        W46194  10.981   6.320  14.249  0.1693 -0.1283 -0.0180
30121W        W46195  12.853  14.802   0.140  0.1839  0.2364 -0.1412
30122W        W46196  17.588   7.035   1.568  0.0638 -0.0171 -0.0472
30123W        W46197  15.020  11.681   4.475 -0.1311  0.2918  0.0303
30124W        W46198   4.681   6.293   2.634  0.1648 -0.1418 -0.3190
30125W        W46199   7.103  17.217   5.386 -0.0777  0.1099  0.0580
30126W        W46200  10.328   0.228   3.194 -0.0602 -0.3427  0.2359
30127W        W46201  17.388   5.617   1.469 -0.3719 -0.3670 -0.1699
30128W        W46202   3.882  13.877  11.473  0.1399  0.1146  0.0523
30129W        W46203   4.998  15.196  15.899  0.1183 -0.2359  0.1096
30130W        W46204   9.534  11.714   2.966 -0.2529  0.0615 -0.1070
30131W        W46205  15.421   5.906  13.172 -0.1477 -0.1475  0.2095
30132W        W46206  14.067   8.839   3.107  0.1675  0.3467 -0.0836
30133W        W46207   6.422  11.170  16.280 -0.0866  0.2300  0.0246
30134W        W46208   6.394   5.101  15.118  0.3818 -0.0731  0.4517
30135W        W46209  16.207   6.110   5.339 -0.0893  0.0101 -0.2192
30136W        W46210   2.643   6.628   1.644 -0.0239 -0.0420  0.2349
30137W        W46211   9.835   2.028   0.279 -0.2456  0.1226  0.1439
30138W        W46212   2.638   9.025   4.445 -0.1458  0.1144 -0.1586
30139W        W46213  10.087  13.644  16.800  0.0227 -0.0597  0.1858
30140W        W46214   1.953  16.575   0.002  0.2284  0.2796 -0.3526
30141W        W46215   7.808   7.989   3.725 -0.0318  0.1029  0.0307
30142W        W46216   2.399  10.350  12.333 -0.1518  0.2025  0.0016
30143W        W46217  15.575   8.380  15.776 -0.0249  0.0534  0.0000
30144W        W46218  15.188   0.896  11.467 -0.0842  0.0657 -0.3267
30145W        W46219   3.696  11.997   1.917 -0.0252  0.3807  0.0532
30146W        W46220   7.829  13.765  13.382 -0.0191  0.1313  0.0740
30147W        W46221   1.098  16.552  16.018  0.0009  0.1514 -0.0633
30148W        W46222  17.519  15.178  11.914  0.2824 -0.2466  0.0922
30149W        W46223   0.612  16.024   0.152 -0.1837  0.1746 -0.2975
30150W        W46224   6.206  11.355   0.776 -0.4284 -0.2365  0.0167
30151W        W46225  16.149  14.001   1.321  0.1754  0.0155 -0.3988
30152W        W46226  12.075  13.881   3.004  0.0736 -0.0183 -0.1559
30153W        W46227  12.767   4.550   1.966 -0.3182  0.1475  0.2181
30154W        W46228  16.906  16.138   1.586  0.0310  0.2724  0.1403
30155W        W46229   0.267   7.072  12.386  0.0475  0.1326 -0.1799
30156W        W46230   9.635   3.132  11.274 -0.2512  0.0648 -0.0234
30157W        W46231   5.315   8.639   5.952  0.3978 -0.0566 -0.0642
30158W        W46232  13.629   6.596   5.073  0.0473  0.1594 -0.5383
30159W        W46233  14.425   4.159  13.066  0.1027  0.1374 -0.0048
30160W        W46234   2.936  17.457  14.106 -0.0581  0.0247 -0.3201
30161W        W46235   7.508   1.921  13.207 -0.0097 -0.3079 -0.2579
30162W        W46236   6.376   7.349  12.739  0.3665 -0.0389 -0.0418
30163W        W46237  10.384  10.607  15.447  0.0157  0.1268  0.1408
30164W        W46238  11.570   3.671  11.882  0.0338  0.0119  0.0859
30165W        W46239   7.326  15.659  12.595 -0.1402 -0.0877 -0.3200
30166W        W46240  13.799  16.985   3.710 -0.0337 -0.4712  0.2449
30167W        W46241   5.129   5.788   1.432  0.1981  0.0866  0.1441
30168W        W46242   2.874  16.325   0.950 -0.1155 -0.2040  0.0149
30169W        W46243  10.885   6.560  12.018 -0.0374 -0.2624  0.0960
30170W        W46244   4.769   6.994  12.900 -0.2511 -0.0332 -0.0680
30171W        W46245   7.338   8.111  11.958 -0.0265  0.0050  0.2558
30172W        W46246  11.280  12.201   2.450 -0.1890 -0.2271  0.1002
30173W        W46247  13.577   3.256  13.917  0.0930 -0.0176  0.1050
30174W        W46248   4.497  10.125  14.429 -0.3738 -0.0229  0.1253
30175W        W46249   5.687  13.206   3.699  0.1062 -0.0761 -0.1758
30176W        W46250  12.708   8.140   2.899 -0.0380  0.1573  0.2891
30177W        W46251   0.058   1.544  12.494  0.1411  0.0051  0.1341
30178W        W46252   4.859   0.696  15.388  0.0840  0.1571  0.0211
30179W        W46253   4.825  15.222  15.424  0.1569  0.2310  0.0889
30180W        W46254   6.294   6.615   4.682 -0.1361  0.0923  0.0194
30181W        W46255   6.255  16.657   1.165 -0.0610  0.0751 -0.0193
30182W        W46256  12.629   1.542   3.913 -0.2557  0.0376 -0.0049
30183W        W46257   0.211   1.373  13.585  0.0087  0.2296 -0.0228
30184W        W46258  12.024  13.591   4.084  0.1954 -0.1901 -0.3070
30185W        W46259  15.944   5.708  13.992  0.0645  0.1649  0.2572
30186W        W46260   5.265  16.790  16.665  0.4806  0.0296 -0.0754
30187W        W46261  13.769  16.538   3.487  0.2089  0.0013 -0.0140
30188W        W46262  13.001   7.171   3.607 -0.0082  0.0775  0.4502
30189W        W46263  12.059   2.206   0.175  0.0784 -0.0129  0.0609
30190W        W46264  14.729   7.919   5.209 -0.0053 -0.3496 -0.0950
30191W        W46265   5.304   1.238  14.916 -0.0101  0.0205  0.1661
30192W        W46266   4.346   7.868  12.618 -0.0506 -0.0261  0.2682
30193W        W46267   0.581  15.049   1.344 -0.2244  0.1471 -0.0519
30194W        W46268   2.674  15.046   3.037  0.0172 -0.1795  0.2828
30195W        W46269   0.760  12.201  16.857 -0.1049 -0.2209  0.0187
30196W        W46270   7.878  15.685   1.592  0.2140 -0.2774 -0.2003
30197W        W46271   3.138   3.397  14.715 -0.3989  0.1427  0.0409
30198W        W46272  17.651   9.062  15.647  0.1742  0.2047  0.3485
30199W        W46273  12.236   6.377   2.617  0.0187  0.0944 -0.1303
30200W        W46274  15.416   2.294  12.121  0.2023  0.0904 -0.1380
30201W        W46275   6.146   7.977  14.571  0.0158  0.0558 -0.2807
30202W        W46276   8.573   4.230  16.604  0.0201  0.0981 -0.1027
30203W        W46277   7.821  10.063  10.800  0.3472  0.2010 -0.2465
30204W        W46278   4.847  10.092   4.175 -0.0050 -0.0090  0.1007
30205W        W46279  12.170  15.840   3.537  0.0893  0.3426 -0.1630
30206W        W46280  17.124  15.198   3.855  0.0810  0.0780  0.1759
30207W        W46281  12.881   2.850  15.107 -0.0210 -0.0693 -0.1827
30208W        W46282   7.236  16.112  12.931  0.0675 -0.0024 -0.1519
30209W        W46283  15.775  13.050  13.780  0.2552 -0.0798 -0.0996
30210W        W46284   5.682   5.384  13.341 -0.3146  0.3498  0.0608
30211W        W46285   3.788   8.571   1.722 -0.2679  0.1268  0.0288
30212W        W46286   7.619   4.337   2.923  0.3069  0.0424  0.0345
30213W        W46287  12.768  14.517  16.374  0.2617  0.2829  0.0058
30214W        W46288  15.376   6.446   0.739  0.3483  0.0628 -0.2460
30215W        W46289  14.110  17.027  15.993 -0.1623  0.1414 -0.2755
30216W        W46290   8.636   6.194  14.739 -0.2488  0.1303 -0.0516
30217W        W46291  14.265   4.428   5.375  0.0733  0.1733 -0.2103
30218W        W46292   8.777  14.148  13.410  0.1160 -0.1678 -0.2561
30219W        W46293   4.597   7.360  16.609  0.0816  0.0143 -0.0238
30220W        W46294  12.574   2.267   6.418  0.1317  0.0976  0.1917
30221W        W46295   0.437  16.756   2.226  0.3192  0.3299  0.0218
30222W        W46296   0.751  10.166  12.501 -0.2473  0.3421  0.1636
30223W        W46297   9.336  15.177  16.150 -0.0708  0.0132 -0.1635
30224W        W46298   3.610  13.898   0.341  0.2404  0.3150  0.2271
30225W        W46299  11.930  11.038  15.119 -0.1643 -0.3530  0.0312
30226W        W46300   0.802   8.485   3.361 -0.1737 -0.1638 -0.1313
30227W        W46301  11.256   9.141  14.578  0.2043  0.2182 -0.1071
30228W        W46302   2.522   3.912  14.731  0.2001  0.0666 -0.0495
30229W        W46303  14.052   0.064  13.134  0.0097  0.1375  0.0465
30230W        W46304   7.201  14.378   0.306  0.2666  0.0496 -0.3033
30231W        W46305   6.914  12.347   3.242 -0.0656 -0.3154  0.0033
30232W        W46306   1.427  13.089   5.372  0.0931  0.1594  0.1186
30233W        W46307   7.560  13.900  15.368  0.0021 -0.0914  0.1671
30234W        W46308  14.326  16.414   2.438 -0.0206  0.0798 -0.0774
30235W        W46309   8.319   2.675   4.009 -0.0882 -0.2641 -0.0497
30236W        W46310  17.353  11.413   4.284 -0.0678  0.0589  0.2411
30237W        W46311   5.814   7.730   3.381 -0.0335  0.1119 -0.3077
30238W        W46312   1.902   1.633  16.826 -0.1506  0.0002 -0.0355
30239W        W46313   5.298  15.426  16.237 -0.0104 -0.1586 -0.2204
30240W        W46314  16.309  13.608  15.083  0.0622 -0.1809  0.0736
30241W        W46315  10.558  12.441   0.814 -0.3491 -0.1157  0.1328
30242W        W46316   2.173  12.338   1.542 -0.0116  0.1156  0.1857
30243W        W46317  16.272   9.098  14.519  0.0151 -0.2259 -0.0489
30244W        W46318  17.714   9.451   1.877 -0.0499 -0.3115  0.3283
30245W        W46319  10.144   8.474   5.192  0.0015  0.1562 -0.2202
30246W        W46320   7.442   0.309   3.797 -0.1192 -0.3136 -0.0387
30247W        W46321   4.362  10.789   1.445  0.2580  0.1408  0.0134
30248W        W46322   9.640  17.543   0.750  0.0864 -0.0543 -0.0149
30249W        W46323  15.140   4.317   1.357 -0.0085  0.0201 -0.1963
30250W        W46324   6.027   1.873   1.220  0.2848 -0.1609 -0.2380
30251W        W46325  12.724   5.180  14.707  0.1388  0.2301 -0.0211
30252W        W46326   1.350   7.570   4.134 -0.2391 -0.2027  0.1266
30253W        W46327   3.161  16.466   1.419 -0.2421  0.0814 -0.0054
30254W        W46328   0.321  16.088  15.327  0.1341 -0.2663  0.0772
30255W        W46329  11.636  16.861   6.776 -0.1606  0.2814  0.0645
30256W        W46330   8.656   3.773   2.755  0.1331  0.0403  0.1124
30257W        W46331  10.601   5.238  14.371 -0.1758 -0.0560 -0.0425
30258W        W46332   7.298  11.824  13.252 -0.0409 -0.4177  0.2913
30259W        W46333   6.050   6.259   0.379  0.2109 -0.0565  0.1397
30260W        W46334   2.431  13.528   3.768 -0.0518 -0.0883  0.3769
30261W        W46335   2.434  12.498   4.132 -0.0485 -0.0626  0.2001
30262W        W46336   1.430   4.055  14.707 -0.0673  0.1735  0.2697
30263W        W46337   7.690   6.156   0.129  0.1545 -0.2285 -0.1567
30264W        W46338  16.623  11.720   2.017  0.0448  0.1726  0.1214
30265W        W46339   3.791  14.065  12.060  0.1235  0.4202  0.2055
30266W        W46340   3.110  10.058   0.251 -0.0519 -0.1754 -0.3461
30267W        W46341  12.293   9.811  16.010 -0.0500 -0.0243  0.2962
30268W        W46342   6.453   2.678  12.709  0.2965 -0.0712  0.2510
30269W        W46343  10.039  14.605   1.281  0.3227 -0.0999 -0.0197
30270W        W46344   0.655  14.722   5.040  0.0608  0.2119 -0.1111
30271W        W46345  12.363   0.182   3.478 -0.1560 -0.0381 -0.0123
30272W        W46346   8.103  12.312   5.806 -0.0313 -0.0239 -0.0980
30273W        W46347  10.531  12.958   0.843 -0.2941  0.3317 -0.0521
30274W        W46348   6.552   0.443   4.708  0.1372 -0.0025  0.3709
30275W        W46349  13.153   8.437  16.462  0.2829 -0.2303  0.1071
30276W        W46350   2.916   9.609   2.805  0.1832 -0.0551  0.4261
30277W        W46351   0.958  15.379   1.334  0.1918  0.1404 -0.0024
30278W        W46352   6.214  15.363   3.481  0.0892  0.1148  0.1415
30279W        W46353  10.855  14.234   5.767  0.1804 -0.0182 -0.1193
30280W        W46354   2.276  10.119   3.397  0.0102  0.1315  0.3495
30281W        W46355  14.478   2.054   1.785 -0.0776 -0.0214  0.0972
30282W        W46356   9.460   7.345  11.887 -0.0020 -0.1300  0.0167
30283W        W46357  10.028   7.634  11.939 -0.3455 -0.1125  0.0463
30284W        W46358   6.926   3.666   1.929 -0.1443 -0.0173 -0.0175
30285W        W46359   6.250  10.301  15.040 -0.0530 -0.0911 -0.1295
30286W        W46360   5.476  11.520  13.015 -0.1041 -0.2442  0.3301
30287W        W46361   8.764   3.945   3.822  0.2555 -0.0722 -0.1173
30288W        W46362   6.664   8.869   2.693 -0.3473 -0.0238  0.1234
30289W        W46363   1.620   0.166   1.962  0.2266 -0.2043 -0.0817
30290W        W46364  14.140  13.568  14.951  0.2973  0.2996 -0.2681
30291W        W46365   5.676  13.841   4.444  0.1789 -0.0156 -0.1988
30292W        W46366  16.067  16.154   2.180  0.1313 -0.2569  0.2783
30293W        W46367   1.741   6.781  13.947 -0.2068  0.1089 -0.1473
30294W        W46368  13.075  14.673   3.325  0.1040  0.3169  0.1133
30295W        W46369   1.412  10.654   5.367  0.0903 -0.1580 -0.1884
30296W        W46370   8.948  12.950  11.787  0.5022 -0.1493 -0.2697
30297W        W46371  12.680  17.307  14.527  0.1195  0.1467  0.1430
30298W        W46372  15.462  15.977   5.622  0.0872  0.0648 -0.0562
30299W        W46373   2.603   7.122   1.891  0.0513 -0.0853 -0.0438
30300W        W46374  14.857  10.268  11.964  0.1257 -0.2127  0.1636
30301W        W46375   6.614   7.595  12.052 -0.2059 -0.0882  0.2147
30302W        W46376   5.835   3.376   4.186  0.1804  0.0784 -0.1589
30303W        W46377  16.947  12.166  12.712  0.2431 -0.3398 -0.1282
30304W        W46378   2.807  12.781  16.207  0.0253  0.2351 -0.1041
30305W        W46379   7.671  12.234  15.333 -0.1701  0.0192 -0.0425
30306W        W46380   6.755   3.707  15.894  0.1803  0.1279  0.1702
30307W        W46381   6.003  10.154   1.415  0.0488 -0.0057  0.0103
30308W        W46382  10.410   1.517  15.676  0.0438 -0.1569 -0.2573
30309W        W46383   2.608   4.128   0.209  0.2798  0.0956  0.2030
30310W        W46384   0.668   7.578   2.640 -0.2275 -0.0115  0.0924
30311W        W46385   0.483  12.742  15.665 -0.1020 -0.2552 -0.1258
30312W        W46386  16.707   5.145  11.959 -0.0365 -0.2920 -0.0736
30313W        W46387  15.863   9.146   5.608  0.0614  0.1421  0.0628
30314W        W46388  14.260  14.846  13.882  0.2412  0.1794 -0.0726
30315W        W46389   3.978  13.038   2.545  0.0445  0.1654 -0.2133
30316W        W46390  10.236   2.261   2.408  0.0499  0.2135 -0.0720
30317W        W46391  12.651  14.057  14.107 -0.0690 -0.0280 -0.4115
30318W        W46392   4.824   8.355   6.700  0.3516 -0.1093  0.2406
30319W        W46393  16.809   7.963   1.114 -0.1982 -0.1840  0.2194
30320W        W46394   1.210   9.252   1.678  0.1645  0.2411  0.2334
30321W        W46395  11.479  13.516   4.238 -0.0373  0.1953  0.0008
30322W        W46396   2.692   5.931   5.368  0.0117 -0.1287  0.1146
30323W        W46397   1.276   9.888   3.276  0.1625  0.0828 -0.0750
30324W        W46398   0.258   8.269   3.010 -0.0186  0.0098  0.1088
30325W        W46399   6.807   7.553  15.903 -0.0753 -0.2479 -0.3424
30326W        W46400  12.672   4.447  15.201  0.2715 -0.1323 -0.0011
30327W        W46401   2.080  17.672  13.282  0.2470 -0.1663  0.1268
30328W        W46402   9.049  13.210   2.941  0.1519 -0.0579 -0.7163
30329W        W46403  13.359  15.879  13.555  0.1316 -0.1788  0.5454
30330W        W46404  17.811   6.016  14.364  0.2749 -0.0933  0.0352
30331W        W46405   9.448   0.214   4.618 -0.0209 -0.0159  0.3639
30332W        W46406   4.600   4.070  12.628 -0.1633  0.4524  0.4178
30333W        W46407  17.191  12.558  14.065 -0.4432  0.0202  0.1600
30334W        W46408  14.256   0.028   3.854 -0.1763 -0.0962  0.2267
30335W        W46409  11.726  14.083  14.452  0.2678 -0.4003  0.0456
30336W        W46410  15.292   7.778   2.501 -0.1569  0.0865 -0.0518
30337W        W46411  11.619   3.069   2.290  0.0404  0.0242 -0.0778
30338W        W46412   9.080   8.886  14.518 -0.2739  0.4754  0.1928
30339W        W46413  14.323  10.340  12.655  0.1887  0.0440  0.2882
30340W        W46414  12.295   2.467   3.444 -0.2538 -0.2592 -0.1248
30341W        W46415  16.824   3.244  13.293  0.0435 -0.1891  0.1906
30342W        W46416  10.459   7.052  13.992 -0.2024  0.4772  0.0419
30343W        W46417  13.195   7.985  16.680  0.5316  0.0608  0.0164
30344W        W46418   2.116  16.069  14.168  0.1505  0.1596 -0.2694
30345W        W46419  12.842   3.832   0.799 -0.0938 -0.2088  0.4839
30346W        W46420  11.870  16.274   2.849  0.0457  0.3536  0.0410
30347W        W46421   1.076   6.727   3.127 -0.1899  0.1349 -0.1011
30348W        W46422   5.593   2.161   2.246 -0.0190 -0.1244 -0.0763
30349W        W46423   1.736  17.778  14.003  0.1737  0.1849  0.1610
30350W        W46424  12.690  10.573  15.355 -0.3456  0.0224  0.2920
30351W        W46425  16.028  14.806   4.391  0.3246  0.1915  0.0997
30352W        W46426  16.965   1.588   1.197 -0.1889  0.4105  0.1622
30353W        W46427   6.420   7.436  14.999 -0.0762 -0.0260  0.1038
30354W        W46428   2.318   3.372  15.945 -0.1582  0.3687  0.0712
30355W        W46429   2.787  14.469  13.497  0.0484 -0.2334 -0.0261
30356W        W46430   6.820  13.166  15.127 -0.2383 -0.1198  0.2188
30357W        W46431  12.042  12.123  15.485  0.1561 -0.2180  0.1620
30358W        W46432  10.123   1.214  15.270 -0.0447 -0.1790 -0.0533
30359W        W46433   0.689   8.771   5.801  0.2805 -0.0461  0.1866
30360W        W46434  12.228   3.454  16.566  0.2370 -0.1321  0.3964
30361W        W46435  15.899  12.852  11.678  0.0369  0.2071 -0.1458
30362W        W46436   8.488  17.722  14.245 -0.3298 -0.1127 -0.0529
30363W        W46437  16.514  10.247   6.399  0.0221 -0.3083  0.1578
30364W        W46438   6.468   4.449   0.354 -0.0812 -0.0855 -0.2367
30365W        W46439  14.106  10.501   2.233 -0.2902  0.0377 -0.0400
30366W        W46440  10.098   3.353  13.843  0.1658  0.2073  0.0604
30367W        W46441  17.503   0.478  11.555  0.2376 -0.1377  0.0726
30368W        W46442   2.130  16.187  13.270 -0.1501 -0.0628  0.0034
30369W        W46443  14.791   0.581   2.413 -0.0132 -0.3051 -0.4677
30370W        W46444  17.018   0.388   1.929  0.1306  0.0834 -0.0815
30371W        W46445   5.695  15.651   3.334  0.2012 -0.1319 -0.1373
30372W        W46446  11.346   0.458   4.428 -0.1368 -0.1888  0.0971
30373W        W46447  11.081  11.565   0.561  0.1374  0.1230  0.0574
30374W        W46448  17.235   1.468   3.119 -0.2127 -0.0284  0.0782
30375W        W46449   1.397   0.110  15.265  0.2571 -0.2595 -0.1135
30376W        W46450  14.128   7.554   1.896 -0.3943 -0.2043  0.2377
30377W        W46451   0.309  10.913   5.412  0.0637  0.2646  0.1330
30378W        W46452   1.417   8.320   6.680 -0.3411 -0.2044  0.2493
30379W        W46453  11.028   3.207  16.627  0.3633  0.1355 -0.0475
30380W        W46454   6.585   3.484  11.537  0.1378  0.1383  0.2634
30381W        W46455  11.150   2.880  12.321  0.0496  0.2469 -0.1763
30382W        W46456   6.215  14.415   6.423  0.0217 -0.0544 -0.0520
30383W        W46457   5.785   1.219  14.687  0.0506  0.0969  0.0968
30384W        W46458   4.008  13.228   5.807 -0.0388 -0.0339 -0.1447
30385W        W46459  14.557   6.644  13.698 -0.0110 -0.0028  0.1188
30386W        W46460  16.200   4.666  12.416 -0.1333 -0.0880 -0.0503
30387W        W46461  11.534  10.313   2.057  0.2278  0.1580  0.1484
30388W        W46462  17.328   3.666   0.457 -0.0895  0.1747 -0.0623
30389W        W46463  16.625  14.237   3.764 -0.0206  0.0477 -0.0819
30390W        W46464   7.877   7.230  13.154  0.0557  0.0417  0.1332
30391W        W46465   7.927  12.688  15.197  0.0585 -0.1062  0.4368
30392W        W46466   7.335   2.047   2.660  0.1839  0.0662  0.1247
30393W        W46467   7.575  11.193   1.186  0.1698 -0.0888 -0.1660
30394W        W46468   7.067   0.561   4.051  0.1822  0.0527 -0.0256
30395W        W46469   2.286   5.923  15.136  0.0463 -0.4239  0.0748
30396W        W46470   2.099   1.280   1.183  0.1152  0.0933  0.0083
30397W        W46471   8.875   1.547   3.867  0.0364 -0.1581  0.0627
30398W        W46472   8.156   3.266   5.325 -0.0511 -0.0727  0.1958
30399W        W46473  15.420  15.489   3.220  0.1011 -0.0878 -0.0480
30400W        W46474   6.575  12.538   5.640  0.0441  0.1512 -0.1931
30401W        W46475   3.930  14.154  16.864  0.4306  0.0027  0.0130
30402W        W46476   1.241  10.440   1.292 -0.0191  0.3210  0.1248
30403W        W46477   9.950  17.247  12.939 -0.2129  0.0378 -0.1831
30404W        W46478   9.064   9.699   4.627  0.1950 -0.0333 -0.0027
30405W        W46479   2.614   1.813  10.309 -0.0300 -0.1784 -0.2111
30406W        W46480   4.968   9.638  12.901  0.0487 -0.2394  0.1037
30407W        W46481  15.232  13.053  16.207 -0.1013  0.3086  0.1042
30408W        W46482   6.214   2.802  13.194 -0.3115  0.0397 -0.0128
30409W        W46483   1.288  14.933   6.284 -0.0702  0.0350  0.1071
30410W        W46484  14.065  13.623   5.616  0.0529  0.0805  0.1806
30411W        W46485   7.563   4.377  13.190 -0.1994 -0.0807  0.0411
30412W        W46486  16.996  15.544   2.995  0.2240 -0.0282  0.0166
30413W        W46487  14.933  11.385  12.765 -0.1904 -0.0182 -0.0177
30414W        W46488   4.134   1.224   0.551  0.0401 -0.1209 -0.0671
30415W        W46489  12.237   0.142   1.225  0.1678 -0.0614 -0.0925
30416W        W46490   5.226   2.179  16.021 -0.1786 -0.3757 -0.1805
30417W        W46491  14.329  16.258  16.673  0.1494  0.3932  0.1296
30418W        W46492   5.723  15.942   5.297 -0.0160  0.0695  0.0739
30419W        W46493  11.780   9.416   0.207  0.0079 -0.3039  0.0243
30420W        W46494   8.822  14.060  15.070  0.0807 -0.1143  0.1653
30421W        W46495  10.058   4.456   2.162  0.0438  0.1402  0.1982
30422W        W46496  12.211  17.846  16.775 -0.0534 -0.4512 -0.1311
30423W        W46497   3.767   2.287   3.405  0.0985  0.0390 -0.3913
30424W        W46498   1.953   4.380  15.783 -0.0159  0.0906  0.3247
30425W        W46499  16.140  16.048  11.098 -0.3120 -0.0782  0.0397
30426W        W46500   4.524   5.732   0.848 -0.3485 -0.0459  0.4579
30427W        W46501   8.449  16.566  12.813 -0.2331 -0.3452  0.0554
30428W        W46502   7.745   3.355  13.639 -0.0449  0.3401  0.0067
30429W        W46503   3.646   5.120  13.937 -0.0261 -0.1169 -0.0076
30430W        W46504  10.881  15.547   0.426 -0.1590  0.0698 -0.3921
30431W        W46505  13.006   0.280   3.961 -0.2256  0.0172 -0.0319
30432W        W46506  15.428   0.549  13.785  0.0567 -0.1165  0.3610
30433W        W46507   7.989  16.220   1.506 -0.4091  0.0118 -0.0713
30434W        W46508   5.075   5.820  12.394  0.1164 -0.2694  0.2970
30435W        W46509   7.333   1.259   0.417 -0.0084 -0.2125 -0.2045
30436W        W46510  17.525  11.402  12.846  0.2344 -0.1060 -0.1997
30437W        W46511  13.287   2.576  12.484  0.2595 -0.2029  0.0397
30438W        W46512   1.729   6.212  16.895  0.0901  0.1965 -0.1678
30439W        W46513  17.743   1.130   1.075 -0.0328 -0.2511  0.0380
30440W        W46514  13.471   9.651  14.833 -0.0134  0.0170 -0.0899
30441W        W46515  16.045   2.424   4.766 -0.4317 -0.2503  0.0422
30442W        W46516   1.918  15.657   2.146  0.1208 -0.1185  0.1693
30443W        W46517  14.899   3.952   4.873  0.0756 -0.3557 -0.1097
30444W        W46518  14.830   1.034  16.010 -0.0927  0.0512  0.0718
30445W        W46519   0.672   1.716  13.675  0.1510 -0.3062 -0.1518
30446W        W46520   1.350  10.210  14.951 -0.0956  0.0255  0.1444
30447W        W46521   4.088  13.443  11.444 -0.3039 -0.1307 -0.1504
30448W        W46522  13.033   6.865  13.352 -0.0991  0.3988 -0.0473
30449W        W46523   2.344   2.121  16.419 -0.1394 -0.3153 -0.0309
30450W        W46524   2.043  16.700   2.399  0.2061  0.0753 -0.1409
30451W        W46525   5.667  17.649   5.124  0.0048 -0.0445 -0.0242
30452W        W46526   3.972  16.353   3.167 -0.2840  0.3301 -0.2707
30453W        W46527   7.776  16.100   3.081 -0.1053 -0.0706 -0.0255
30454W        W46528   8.385  13.489  13.188 -0.3185 -0.2486 -0.2508
30455W        W46529   5.268   6.371   1.776 -0.1341 -0.0063  0.0090
30456W        W46530  12.926   6.743  12.506  0.5274 -0.1477 -0.0843
30457W        W46531  10.654  12.237  13.488 -0.0079  0.0315 -0.0880
30458W        W46532   6.870   7.236  11.749  0.1351 -0.2439 -0.2001
30459W        W46533  10.656   5.327   2.637  0.0817  0.0155 -0.0448
30460W        W46534   7.625  11.983   2.622  0.1188 -0.3862 -0.2992
30461W        W46535   0.043   4.841   2.492  0.0471  0.0350  0.1542
30462W        W46536   6.846  15.822  12.671  0.0654  0.0590  0.0156
30463W        W46537   2.030  14.025  12.990 -0.1353 -0.0189 -0.1781
30464W        W46538  17.212   3.251   1.544  0.2521 -0.2256 -0.0322
30465W        W46539  12.580  13.401   5.321  0.1512  0.1200  0.1044
30466W        W46540   3.107  13.085   4.164  0.1159 -0.0848  0.0486
30467W        W46541   4.012  12.751  12.521  0.2383  0.2802  0.1161
30468W        W46542   3.641   9.582   5.531 -0.0780 -0.3365  0.4081
30469W        W46543   3.189   9.569   0.495 -0.0616  0.1983  0.0840
30470W        W46544   4.263  15.090  15.563  0.3179 -0.0476  0.2778
30471W        W46545  11.525  10.229  15.134 -0.0661  0.3757  0.0616
30472W        W46546   3.579   9.633   1.616 -0.1878 -0.1597  0.4440
30473W        W46547   0.815  10.369  14.683 -0.1108 -0.1787  0.0807
30474W        W46548   9.338   4.982  13.651 -0.1983 -0.0840 -0.1072
30475W        W46549   1.197   0.962  16.626  0.1175 -0.0294  0.0412
30476W        W46550  12.264  11.372   0.064 -0.2019 -0.2764 -0.0229
30477W        W46551  13.542  11.510  11.652  0.1350 -0.0703 -0.1722
30478W        W46552   6.537  11.983   4.352  0.0232 -0.0003 -0.1258
30479W        W46553   2.506   8.851  13.432  0.1471  0.0691 -0.0157
30480W        W46554  14.861   1.125  14.565 -0.0727  0.1271 -0.2203
30481W        W46555  16.336   4.135  12.556 -0.1516  0.0363 -0.1750
30482W        W46556  14.761  14.791  11.384 -0.2917 -0.0192  0.1130
30483W        W46557  12.193   2.753   0.893 -0.1463 -0.1633 -0.2020
30484W        W46558  14.219   3.386  15.131  0.1620  0.1381  0.1664
30485W        W46559   3.227  15.366   1.832  0.1360  0.0576 -0.0071
30486W        W46560   6.688  15.228  14.212  0.2034 -0.1109  0.2786
30487W        W46561   5.414  10.671  13.926 -0.1074 -0.1228 -0.0980
30488W        W46562  11.533   2.167   2.273  0.0434 -0.1415  0.1049
30489W        W46563   4.005  16.825  15.070  0.1897  0.0699 -0.0240
30490W        W46564  17.592   6.156  13.449  0.0117  0.0552 -0.0569
30491W        W46565  10.391  15.505   0.269  0.1531 -0.1097  0.2516
30492W        W46566   4.809   9.278  15.067 -0.2049 -0.2305 -0.3675
30493W        W46567  17.128   6.949  13.238 -0.0767 -0.1922  0.1293
30494W        W46568   7.862   4.808  11.720 -0.1922  0.1007 -0.0756
30495W        W46569   1.091  11.481   4.232 -0.0360  0.0080  0.2225
30496W        W46570  10.871  10.684  15.226 -0.0068  0.2517 -0.1551
30497W        W46571  10.460  13.055  12.373  0.0446  0.1305  0.2168
30498W        W46572  12.413   4.994  14.340 -0.1168  0.1573 -0.2136
30499W        W46573  17.297  17.341   3.666  0.5055  0.0262  0.0694
30500W        W46574   4.943   7.146  12.049 -0.1199 -0.1485 -0.0998
30501W        W46575   0.177  15.183   5.156  0.0140 -0.1302  0.0056
30502W        W46576  17.212   7.785  15.180  0.2158 -0.1618  0.2081
30503W        W46577  16.118  14.393   3.715  0.0345 -0.0431  0.0916
30504W        W46578  13.689   5.925   0.564 -0.0910  0.2087  0.0522
30505W        W46579  13.242   5.022   6.301 -0.3024 -0.0527 -0.1998
30506W        W46580   1.391   5.678   5.176  0.1709  0.0408 -0.0312
30507W        W46581   8.509  17.106   4.289 -0.0587  0.2075 -0.0898
30508W        W46582   2.478   0.626   5.932  0.2254  0.2743  0.0240
30509W        W46583   4.760  10.104  16.160  0.0747  0.0142  0.2684
30510W        W46584  16.649  11.123  12.168 -0.0879 -0.1505 -0.0206
30511W        W46585   8.460  10.181   4.392 -0.0617  0.2908  0.0059
30512W        W46586  13.120   0.299   5.245 -0.3374 -0.0450 -0.0951
30513W        W46587   7.932  15.995   2.005  0.1853  0.2374 -0.3580
30514W        W46588  16.073  17.247   4.231  0.0355 -0.2787  0.0625
30515W        W46589  14.658   0.551  13.252 -0.0518  0.2703  0.1556
30516W        W46590  15.577   8.354   5.345  0.0708  0.1890 -0.2407
30517W        W46591   8.909  10.764   3.606 -0.1301 -0.1061  0.0610
30518W        W46592  12.090   3.923   1.520 -0.0979  0.2161 -0.0260
30519W        W46593  10.575   4.079   1.941 -0.0260 -0.4172 -0.1783
30520W        W46594   9.772   5.587   5.391  0.1470 -0.1246 -0.4236
30521W        W46595  17.670  16.903  14.232  0.0894  0.0708  0.0179
30522W        W46596   5.232  13.121   3.535 -0.0253 -0.0862 -0.1539
30523W        W46597   1.487  11.551  16.494  0.1909  0.3851 -0.0176
30524W        W46598  14.554   9.480  16.342 -0.0057 -0.2663  0.0251
30525W        W46599  17.763   2.686  14.225  0.0384 -0.0224  0.0678
30526W        W46600   7.542   7.789  16.304 -0.0410  0.1797  0.0996
30527W        W46601   7.689  16.194  15.918  0.0096  0.0071  0.1007
30528W        W46602   7.305  11.751   3.146 -0.0446 -0.1055 -0.2498
30529W        W46603  15.334   4.729   1.784 -0.4194  0.0301  0.2124
30530W        W46604  12.958   5.744   3.181 -0.1779 -0.2050  0.0175
30531W        W46605  17.268  17.116  15.926 -0.0059 -0.1237 -0.0488
30532W        W46606   2.476  10.770   1.515 -0.0180 -0.1201  0.1114
30533W        W46607  10.342   9.458  14.717  0.0582 -0.0415 -0.2244
30534W        W46608   5.723  11.131   1.931  0.0346  0.1444  0.0773
30535W        W46609  11.874   5.495  10.918  0.4715  0.1833 -0.1447
30536W        W46610   8.270  11.478   3.627 -0.4570 -0.1913  0.0518
30537W        W46611   1.117   7.869  12.130 -0.3523 -0.0175 -0.1087
30538W        W46612   7.746   7.972  11.753 -0.0537  0.1935 -0.0975
30539W        W46613   6.239  10.557  16.006 -0.1962 -0.0123 -0.2966
30540W        W46614   6.334  12.832   3.482  0.0052  0.1189  0.0232
30541W        W46615   1.463   0.315   3.680 -0.2655 -0.0442 -0.2308
30542W        W46616  17.382   7.887  15.615 -0.2520  0.0320  0.0309
30543W        W46617   6.263  10.824  16.763  0.0625  0.2949  0.1864
30544W        W46618  14.602  13.660  12.925  0.0216 -0.0272 -0.0293
30545W        W46619   8.346   1.823   2.964  0.1235  0.1101  0.0480
30546W        W46620  14.996   0.071  16.335 -0.0107 -0.4347  0.1352
30547W        W46621  17.376   9.252   4.332 -0.2311  0.0126 -0.3163
30548W        W46622   8.072   7.227  11.862  0.1213  0.1152 -0.0609
30549W        W46623  17.721  15.799   2.199 -0.6255 -0.1232 -0.2820
30550W        W46624   4.367   5.700  13.314  0.3963 -0.0333 -0.0430
30551W        W46625   0.263  16.291   0.991 -0.1129  0.1165 -0.1186
30552W        W46626  13.591   2.458   1.694  0.0118 -0.3631  0.0251
30553W        W46627   0.895   4.699   5.177  0.1525 -0.0809  0.3037
30554W        W46628   8.279   7.061   5.194 -0.0581 -0.0420 -0.1829
30555W        W46629  11.829  16.583  15.881  0.1503 -0.0975  0.1044
30556W        W46630   0.760   0.128  14.166 -0.0263 -0.0852  0.1925
30557W        W46631   2.648  10.170   2.596  0.0204  0.0392  0.2607
30558W        W46632   2.125  10.414  11.500 -0.0345  0.1487 -0.0155
30559W        W46633   7.226   0.822   4.863  0.0494 -0.0713  0.0685
30560W        W46634   7.027   2.738   3.482  0.2404  0.2706  0.2253
30561W        W46635   6.695  13.252   1.244  0.2093  0.3577 -0.1273
30562W        W46636   3.412   2.937  14.571  0.3696  0.0128  0.3288
30563W        W46637   4.057  14.170   4.440 -0.2759 -0.1126  0.1059
30564W        W46638  11.797   7.207   0.583  0.1254 -0.2943  0.0807
30565W        W46639  14.597   8.707   3.186  0.3184 -0.2159  0.1164
30566W        W46640   0.652  10.680  12.441 -0.4385  0.3764 -0.0801
30567W        W46641   0.383   1.400   4.075 -0.0534  0.4078 -0.3141
30568W        W46642  14.147   0.419   3.556 -0.2584 -0.1420 -0.0877
30569W        W46643   3.979  14.717  14.227  0.2815  0.1605 -0.2643
30570W        W46644  14.972   8.336  12.357 -0.1960 -0.3502  0.0253
30571W        W46645   9.620  12.610   3.253  0.0854  0.0738 -0.0038
30572W        W46646   3.176  13.711   6.364 -0.0957 -0.1107 -0.4707
30573W        W46647   5.816  15.973   4.753 -0.3820 -0.1062  0.0786
30574W        W46648   2.350  11.612   3.662 -0.1906  0.2039 -0.0651
30575W        W46649  14.749   4.390  13.621 -0.1431  0.1903 -0.2019
30576W        W46650   9.749  14.858  14.312 -0.3071 -0.2158 -0.0100
30577W        W46651   9.205  15.997   2.772 -0.0945 -0.2444 -0.1120
30578W        W46652   0.882   1.435   4.121  0.0629 -0.0189 -0.1906
30579W        W46653   4.976  13.304   4.769 -0.2133 -0.2726 -0.0293
30580W        W46654  15.574   0.440   0.926  0.2155  0.0397 -0.2427
30581W        W46655   9.956   2.706   1.124  0.0692 -0.0428 -0.1298
30582W        W46656   6.678  14.157  15.146  0.2553 -0.0465 -0.0184
30583W        W46657  10.398   3.996   2.851  0.3240 -0.0179 -0.1498
30584W        W46658  12.131  13.334   2.383  0.0678 -0.0122 -0.1990
30585W        W46659  14.871   9.176   1.873 -0.1899 -0.0480 -0.2365
30586W        W46660  11.627  11.760  16.671 -0.2411  0.2624  0.1075
30587W        W46661  13.769  17.360   0.372 -0.1337 -0.2638  0.2085
30588W        W46662   8.458  16.789  16.767  0.1092 -0.1792  0.3541
30589W        W46663   4.987   5.317  16.425  0.1086  0.0671 -0.1776
30590W        W46664   9.343  15.091   1.102  0.2757 -0.2928 -0.4085
30591W        W46665   3.833  10.705  14.644 -0.0580 -0.0365 -0.3193
30592W        W46666   1.871   6.451  15.805  0.2074  0.0807  0.0867
30593W        W46667   1.952   4.582  14.224 -0.0465  0.1389  0.1924
30594W        W46668   8.425  11.977   2.101  0.2538 -0.1301 -0.1659
30595W        W46669  16.194   3.435  14.939  0.0721  0.0804 -0.0935
30596W        W46670   6.744   1.315  15.355 -0.1315  0.0845  0.0983
30597W        W46671   0.625  10.629   3.213  0.0274  0.0874  0.0264
30598W        W46672  12.672   8.079  13.131  0.2056  0.0613  0.1779
30599W        W46673   1.274  16.208  12.393  0.0503  0.3634 -0.0149
30600W        W46674  13.259   0.670   3.747  0.2499  0.1555  0.1971
30601W        W46675   9.264  12.114  13.345 -0.0434  0.3748 -0.1340
30602W        W46676   4.495   2.169   0.234  0.1695 -0.0451  0.2359
30603W        W46677  14.989   0.750   3.907  0.1056 -0.1471  0.0148
30604W        W46678  15.264  11.144  13.079 -0.2981  0.0780 -0.0598
30605W        W46679  14.681   9.918  13.104  0.2729 -0.1291 -0.1124
30606W        W46680  13.542  13.991   1.057  0.3192  0.0437 -0.0250
30607W        W46681   7.137  11.303   3.989  0.1865 -0.1324 -0.0575
30608W        W46682   1.319   6.978  11.793 -0.3533 -0.0144  0.2284
30609W        W46683  10.821   2.089  16.477 -0.4075  0.1009  0.2140
30610W        W46684  13.109  13.256  15.991  0.5183 -0.1398  0.2118
30611W        W46685   3.736   1.937  11.498  0.1691 -0.4950 -0.1590
30612W        W46686   0.337   9.641   2.918  0.1929 -0.1363  0.0479
30613W        W46687   0.872  10.527  15.137  0.0728  0.2371 -0.1110
30614W        W46688   9.610   0.735  14.766  0.0422  0.1084 -0.2501
30615W        W46689  17.562   7.203   0.350  0.1235  0.1333 -0.1232
30616W        W46690   3.232  15.028   4.249 -0.1549 -0.0128  0.1123
30617W        W46691   7.377   2.904  14.638 -0.1455 -0.3914  0.0407
30618W        W46692   2.658   1.661  13.121  0.0096 -0.0085  0.0254
30619W        W46693   5.529  12.358  12.535  0.3057 -0.1571  0.3407
30620W        W46694  15.312   2.978  11.012 -0.1787 -0.0146  0.3439
30621W        W46695   9.285  17.302   5.635 -0.2119 -0.1533  0.2013
30622W        W46696   5.349   4.130   3.209  0.0992  0.1737 -0.1836
30623W        W46697  15.675   2.555   2.250 -0.1999  0.0618  0.0348
30624W        W46698  14.536   6.154   3.761 -0.0722 -0.1430 -0.2024
30625W        W46699   2.048   7.184   3.293  0.2133 -0.0174 -0.0463
30626W        W46700  16.033   1.011   5.109 -0.2159  0.3139  0.4039
30627W        W46701   1.032   5.021  16.092 -0.0090 -0.0914 -0.0617
30628W        W46702   8.471   9.597  16.897  0.0493  0.1338  0.1210
30629W        W46703   1.731   8.642  15.325 -0.1965 -0.0669  0.1145
30630W        W46704   8.072   3.470  11.720  0.0999 -0.2228  0.0846
30631W        W46705   6.830   9.071   1.832 -0.0936 -0.2293 -0.4569
30632W        W46706  16.174  15.000   4.924  0.1270 -0.2173 -0.0187
30633W        W46707   2.262   2.524  15.778 -0.1966 -0.2948  0.2220
30634W        W46708   9.498  16.258   4.744  0.1496 -0.1638 -0.1492
30635W        W46709  10.598  13.846   0.100 -0.0234  0.1591 -0.0496
30636W        W46710  13.893   8.001  13.509  0.2221 -0.3260 -0.1374
30637W        W46711   9.296  10.906   1.339  0.1263  0.0209 -0.2671
30638W        W46712   8.627   9.677   0.407 -0.1291 -0.1332  0.3727
30639W        W46713   3.621   2.439   0.501 -0.0740  0.2010  0.3867
30640W        W46714   5.555  12.020   2.885 -0.1004 -0.0164 -0.3266
30641W        W46715  13.161   5.144  11.860  0.1778  0.1041 -0.1160
30642W        W46716   7.462  10.962   2.006  0.1358 -0.1430  0.1961
30643W        W46717   9.288   3.815   1.486  0.1261 -0.2447  0.2184
30644W        W46718   8.022   9.950   2.335 -0.1047 -0.0904  0.1120
30645W        W46719   1.096   0.882  13.960 -0.1305  0.0131 -0.0159
30646W        W46720   0.343   9.888  16.863 -0.1757  0.1617 -0.1279
30647W        W46721   2.206   2.275  14.741  0.0490 -0.0119  0.1561
30648W        W46722   4.547   6.079  12.920  0.1655 -0.0210  0.0931
30649W        W46723  13.752  12.829   2.552  0.1357 -0.1617  0.1265
30650W        W46724  16.848   0.048  14.273 -0.2959 -0.1021  0.5456
30651W        W46725   0.292   6.634   2.905  0.0376  0.2146  0.0872
30652W        W46726   8.468   5.937  16.104 -0.0142 -0.0368 -0.2126
30653W        W46727  15.816  16.082  14.422  0.2378  0.1208 -0.0623
30654W        W46728  10.498   2.084   5.745 -0.3118 -0.0286  0.0911
30655W        W46729  12.502   4.670  14.715  0.0923  0.1417 -0.1723
30656W        W46730  11.836   9.947   4.779  0.2081 -0.0859  0.1234
30657W        W46731  14.131  10.922   0.231 -0.2524 -0.1445  0.1426
30658W        W46732  11.346   4.266   0.330  0.0212  0.4227 -0.1326
30659W        W46733   2.378  11.694   2.196 -0.0050 -0.1444 -0.0633
30660W        W46734   0.324   2.683   1.556 -0.1643  0.0011  0.0392
30661W        W46735  11.221   7.124  16.217 -0.1345 -0.1413 -0.2850
30662W        W46736   3.430   9.321  14.501 -0.2428  0.0685 -0.3245
30663W        W46737   0.418  16.847   0.157  0.0527  0.2073 -0.2333
30664W        W46738  17.154   0.837  14.105 -0.0993  0.1032  0.2067
30665W        W46739  12.703   0.652  12.779 -0.0211 -0.1292  0.0219
30666W        W46740  15.322  16.059  14.391  0.0654 -0.1997  0.0453
30667W        W46741   8.904   6.147  15.196 -0.0809 -0.0965  0.0003
30668W        W46742   4.786   1.647  13.577  0.2129 -0.1071 -0.3235
30669W        W46743   5.731   0.264  15.468 -0.0754  0.0698  0.0388
30670W        W46744  11.828   5.759  12.661  0.1584 -0.2308  0.0652
30671W        W46745   4.807  11.610   0.372  0.1775 -0.4272 -0.1908
30672W        W46746  16.630   8.905  15.858 -0.1591 -0.1483 -0.2107
30673W        W46747   4.173  12.807   0.911  0.5086 -0.0285 -0.0405
30674W        W46748  16.945   8.963  13.649  0.0364 -0.1781 -0.4327
30675W        W46749   8.258  17.795  12.388 -0.0065 -0.0011 -0.0464
30676W        W46750  11.043  15.471  15.518  0.1889  0.0606 -0.1655
30677W        W46751  15.966   2.287   1.003  0.0647  0.2325 -0.0033
30678W        W46752   5.245   7.846   0.354  0.0961 -0.0599  0.1628
30679W        W46753  11.481   1.000   3.775  0.1649  0.0112  0.2654
30680W        W46754  14.565  17.695   2.796  0.4936 -0.1878  0.1562
30681W        W46755   2.745   9.709  11.774 -0.0800 -0.1019  0.1765
30682W        W46756  14.846  10.746   4.933 -0.0213  0.0342  0.2326
30683W        W46757  11.578  17.667  13.395  0.0407  0.1395  0.0185
30684W        W46758   2.994   3.507   0.771  0.0314 -0.1840 -0.0134
30685W        W46759   1.085  10.952  15.882  0.0465  0.1004  0.0883
30686W        W46760   5.309  12.912   4.571  0.0446 -0.0438 -0.1048
30687W        W46761  16.351  15.303  16.743  0.0856  0.0390 -0.4390
30688W        W46762   3.284  11.098  15.892  0.0360 -0.2017 -0.0901
30689W        W46763   8.840   9.752  11.727 -0.3553  0.0350  0.0209
30690W        W46764   8.178   0.144   3.981 -0.0338  0.0672  0.0464
30691W        W46765  13.163   2.557   4.905  0.0183 -0.1762  0.0012
30692W        W46766  11.339  11.884  11.937 -0.0869  0.0945 -0.1521
30693W        W46767   7.391  16.776   0.328  0.2017 -0.0621 -0.2114
30694W        W46768   3.010   8.461  14.591  0.2666 -0.0152  0.2045
30695W        W46769  12.552  14.323   4.129 -0.0032 -0.1430  0.0827
30696W        W46770   4.872  12.780  16.692  0.4948 -0.1002 -0.0743
30697W        W46771  15.221   8.543  13.125  0.0959 -0.1365 -0.2898
30698W        W46772   6.811   9.894   2.574  0.0829 -0.1019  0.4176
30699W        W46773   3.209  10.250  16.678  0.0452  0.1682  0.1288
30700W        W46774  14.088  16.206  13.929 -0.1645 -0.1992 -0.0208
30701W        W46775  12.319   1.384   6.489  0.0048 -0.2850  0.3445
30702W        W46776   2.871   5.418  12.092 -0.1096  0.0876 -0.1986
30703W        W46777   6.482  14.129   1.582  0.0277  0.0897 -0.0027
30704W        W46778  16.543   9.657  15.667 -0.0081  0.0414 -0.1382
30705W        W46779  15.206  10.760  12.123  0.1676 -0.2898 -0.1542
30706W        W46780   2.784   6.295  16.376  0.0078  0.1696 -0.1686
30707W        W46781  17.355   5.854  12.971 -0.2859  0.2391  0.3784
30708W        W46782   8.245   0.470  15.497  0.2101 -0.0546  0.1632
30709W        W46783   8.846   5.875   0.046  0.1730  0.1134  0.2856
30710W        W46784   0.153  17.310   4.076  0.2181 -0.2230 -0.4118
30711W        W46785   1.420   5.779  16.946 -0.1206  0.0515 -0.0450
30712W        W46786   5.882   0.852  12.850  0.0149  0.0600 -0.0962
30713W        W46787   2.388  11.527   3.137 -0.2659 -0.1465 -0.2990
30714W        W46788   3.941   4.533  12.544  0.2653  0.0782 -0.5288
30715W        W46789  17.289   9.420   1.587  0.1616 -0.2390  0.2665
30716W        W46790   3.700  17.732  11.824 -0.0283 -0.3699  0.0287
30717W        W46791   8.590   2.740   2.954  0.0801 -0.5175 -0.0732
30718W        W46792  15.201  14.133  13.466 -0.0339  0.1890 -0.2374
30719W        W46793  14.166   6.650   2.462  0.4509 -0.3428 -0.4344
30720W        W46794  10.708   8.966   4.794 -0.1911 -0.0373  0.3646
30721W        W46795   8.565   0.240  14.983  0.0467 -0.0613 -0.1306
30722W        W46796   6.188   3.421   4.946  0.1501  0.0257 -0.5140
30723W        W46797   6.250  12.870  11.839  0.2606  0.0005 -0.1906
30724W        W46798   2.377   1.881  11.706  0.1093  0.1654  0.1583
30725W        W46799   0.239   8.536  12.093 -0.0498 -0.3071 -0.0890
30726W        W46800   6.622  16.264  11.387  0.1199 -0.0606  0.0426
30727W        W46801   8.872  10.947   4.164  0.0824  0.2132  0.1267
30728W        W46802   5.989  16.716  11.183 -0.2124 -0.0823 -0.0507
30729W        W46803  11.090   8.820   3.881  0.0274  0.0901  0.3813
30730W        W46804  17.808  13.773  15.049 -0.2774 -0.2201  0.1624
30731W        W46805   5.034   6.161  14.549 -0.3257 -0.1097  0.0271
30732W        W46806   7.223  12.246  15.674  0.1445 -0.0272  0.0338
30733W        W46807   6.143   1.748   0.184  0.0149 -0.1460  0.0107
30734W        W46808  13.445   1.921   1.551  0.1662  0.0766 -0.2409
30735W        W46809   5.135   2.743  16.964  0.1145  0.2673  0.1394
30736W        W46810  16.400   2.753  16.003  0.1869  0.1084  0.1002
30737W        W46811   8.900   1.830  16.083 -0.2683 -0.2085 -0.0163
30738W        W46812   8.135   3.204   2.268 -0.0220 -0.0821  0.2136
30739W        W46813  17.518   0.957  16.939  0.0295 -0.4938 -0.5540
30740W        W46814  16.545  17.334  12.072  0.2131  0.0674 -0.0732
30741W        W46815   9.870   5.313   1.132  0.1456  0.1322  0.0692
30742W        W46816  17.231   2.833   0.333  0.1768 -0.1623 -0.0958
30743W        W46817  15.976   1.971  14.372  0.0904  0.0912 -0.3496
30744W        W46818  12.746   9.801   4.533  0.1566 -0.1744  0.0341
30745W        W46819   8.165  11.085  15.458  0.0116  0.1376 -0.1904
30746W        W46820  17.002   9.580  12.915  0.4078  0.1169 -0.1710
30747W        W46821   1.812   2.704  12.066  0.0830 -0.0448 -0.1960
30748W        W46822  10.948   3.108   3.815  0.0829 -0.0141  0.0856
30749W        W46823   2.930   6.326  11.928  0.0797 -0.0510 -0.4776
30750W        W46824   5.541  14.195   2.787  0.1265  0.1523  0.1783
30751W        W46825  11.322  14.579   1.981  0.1693 -0.2200 -0.0481
30752W        W46826   7.976   3.048  15.410  0.3696  0.2903  0.0281
30753W        W46827   7.902   9.180   5.219  0.0000 -0.0199  0.3510
30754W        W46828  17.693   3.354   1.378 -0.1544 -0.1895 -0.4454
30755W        W46829  14.323  11.205  13.465  0.2055 -0.0219  0.0167
30756W        W46830   8.764   6.587  12.053 -0.0625  0.1514 -0.4218
30757W        W46831   5.023  13.566  11.413 -0.1152  0.2009 -0.2613
30758W        W46832   1.269   6.583  13.804  0.2531  0.2974 -0.0143
30759W        W46833  11.507   8.660  16.272 -0.1595 -0.0391 -0.0768
30760W        W46834  11.159   7.274   5.502  0.1623 -0.0036  0.1550
30761W        W46835   5.339  16.855   1.445 -0.0690  0.1717 -0.3841
30762W        W46836  14.850  14.360  16.750 -0.1186 -0.1214  0.1493
30763W        W46837   1.689  11.868   2.585 -0.2384  0.0233 -0.0551
30764W        W46838   1.466  12.750   0.352 -0.1718 -0.1294 -0.0787
30765W        W46839  12.704   1.325  14.646 -0.1355 -0.0353 -0.2457
30766W        W46840   0.107   8.474  14.403 -0.0374 -0.0711 -0.0968
30767W        W46841  15.359   5.417   4.062 -0.0844 -0.2313 -0.2532
30768W        W46842   2.030   5.231   4.332  0.1096  0.2480 -0.1514
30769W        W46843   2.992   4.132  14.323 -0.0676  0.3459  0.1407
30770W        W46844  13.615   8.305   1.249  0.1947  0.1547  0.0128
30771W        W46845  16.303   0.304   1.275 -0.1086  0.2705 -0.3298
30772W        W46846  12.666   0.372  16.025  0.1794 -0.0166  0.2589
30773W        W46847   1.641  15.813  15.712 -0.1276  0.1186  0.3501
30774W        W46848  13.145  10.605   3.810  0.1703 -0.0397 -0.0444
30775W        W46849  15.304  14.115   3.628 -0.0282 -0.0789 -0.3436
30776W        W46850  17.067   4.579   5.374  0.0764  0.1195  0.0382
30777W        W46851   0.637   1.512   5.790 -0.2199  0.2360  0.0150
30778W        W46852   6.780   0.212  14.511  0.2609 -0.1161  0.1362
30779W        W46853   6.408   3.226   2.796 -0.0502  0.2832  0.3741
30780W        W46854   0.812   3.198  16.944  0.0925 -0.0490  0.0658
30781W        W46855  13.954  13.737  12.440  0.0673 -0.0279  0.0980
30782W        W46856   4.890  15.373   2.154  0.1001 -0.2067 -0.0062
30783W        W46857  10.935   4.280  14.564 -0.3122  0.0316  0.4926
30784W        W46858  14.822   6.734   2.376  0.2680  0.4045  0.0410
30785W        W46859  12.243  16.179  14.386  0.3913 -0.0955 -0.2626
30786W        W46860  17.800   8.268  15.690 -0.0788  0.2253 -0.4334
30787W        W46861   2.759   0.500  15.439  0.0019  0.0609  0.0192
30788W        W46862   5.957  13.722  12.697 -0.1745  0.1563 -0.0756
30789W        W46863   0.043  14.994   3.283  0.0387 -0.2160 -0.1642
30790W        W46864   8.408   3.753  16.448 -0.1825 -0.2330 -0.0928
30791W        W46865  13.345   3.969  15.130  0.1223  0.1220  0.0226
30792W        W46866  13.036   6.716  14.366  0.1227  0.1470  0.0176
30793W        W46867   9.017   2.548   1.614 -0.1364  0.2326 -0.0629
30794W        W46868  11.271  11.180  16.087 -0.3741  0.2313  0.0590
30795W        W46869   3.006  11.378   1.584  0.0141  0.2827 -0.0893
30796W        W46870   2.775   1.724   5.670  0.0020  0.0118  0.0568
30797W        W46871   9.359  14.110  12.170 -0.0545  0.0153 -0.0013
30798W        W46872  14.228   8.239  16.139 -0.1754  0.0532  0.1133
30799W        W46873   4.884  16.063  13.851 -0.1453  0.0425  0.1376
30800W        W46874  15.686  14.203  13.612  0.2740  0.1431  0.1413
30801W        W46875   7.773   6.928   6.543 -0.0815  0.0956 -0.1345
30802W        W46876  16.526   8.673   5.805  0.1152  0.2134  0.1048
30803W        W46877  15.964   4.069   1.339 -0.1290  0.0327 -0.0712
30804W        W46878  16.695  11.445   3.594  0.0927 -0.0616  0.0490
30805W        W46879  14.480   2.926   0.759 -0.0129 -0.4277 -0.2287
30806W        W46880   3.853   8.232   0.120  0.2728  0.1075 -0.0991
30807W        W46881   2.125   8.900   3.712 -0.0859  0.0903 -0.1865
30808W        W46882  17.404  14.273  13.260 -0.0034 -0.2860 -0.2722
30809W        W46883   0.224   1.747   5.888 -0.3385 -0.2088  0.0588
30810W        W46884  16.380   4.563  13.150  0.1621  0.0125 -0.3316
30811W        W46885  13.902   2.757   3.806  0.5361  0.0295  0.1581
30812W        W46886  14.825   1.284  16.418 -0.0672  0.2141  0.3161
30813W        W46887  16.526  14.671  14.887 -0.2516  0.0125  0.0498
30814W        W46888   5.220   8.334   0.579  0.2885  0.1785  0.0853
30815W        W46889  11.990   7.607   4.170 -0.1451  0.4196 -0.1079
30816W        W46890  10.129  12.222   5.292 -0.0108  0.2598 -0.0204
30817W        W46891   0.520  10.957  15.781 -0.1227 -0.3916 -0.1072
30818W        W46892   1.616  10.209  16.590  0.1185 -0.4792  0.0618
30819W        W46893  12.102   8.489   1.207 -0.1340  0.1427 -0.0663
30820W        W46894   5.799   9.506  15.154 -0.1996 -0.2599  0.1229
30821W        W46895  15.123   8.167  15.797  0.2011  0.1279  0.1742
30822W        W46896  15.763  10.147   2.956 -0.2571 -0.2976  0.3789
30823W        W46897   3.872   1.947  12.056  0.3424 -0.3635  0.3884
30824W        W46898  14.524   2.283  11.301 -0.0682  0.0877 -0.0778
30825W        W46899   0.176   8.412  11.127  0.0622 -0.4406 -0.1869
30826W        W46900  15.007   9.489   2.463  0.2093 -0.2413  0.0706
30827W        W46901   1.436   1.899  15.626  0.1621 -0.1995 -0.1390
30828W        W46902  17.766   5.250  12.461  0.0745 -0.0987 -0.0959
30829W        W46903   8.455   1.817   3.943  0.0106 -0.1306  0.0447
30830W        W46904  15.397   6.439  13.139  0.0452  0.1410 -0.1832
30831W        W46905   3.932   0.883   2.399  0.1871  0.2178  0.0366
30832W        W46906  13.179  12.330  10.619  0.3957 -0.5119 -0.3396
30833W        W46907   5.260   4.574   4.852  0.2232  0.2058  0.0443
30834W        W46908  16.370   0.786   1.350  0.0435 -0.2842 -0.1912
30835W        W46909  11.736  13.797   4.521  0.1908 -0.0991 -0.1227
30836W        W46910  17.720   0.367  13.800 -0.0810 -0.1323  0.0744
30837W        W46911  12.042   9.585   5.500 -0.2769  0.0374  0.1094
30838W        W46912  14.847   4.078  14.962 -0.0494  0.1865  0.0122
30839W        W46913  10.629  10.228   3.272 -0.0796 -0.4026  0.2686
30840W        W46914   8.196   8.902   1.835 -0.1400  0.0070  0.4948
30841W        W46915   4.896   9.598  16.875  0.0180 -0.0056 -0.1075
30842W        W46916   5.866  11.112  12.197 -0.0016  0.0997  0.0146
30843W        W46917   7.825  12.014   5.399 -0.2115 -0.1562 -0.0750
30844W        W46918   7.220   6.897  16.125 -0.0876 -0.0049 -0.2641
30845W        W46919  15.412   2.311  15.114  0.1639 -0.0069  0.1673
30846W        W46920   4.870   3.505   0.253 -0.4435 -0.1327 -0.0567
30847W        W46921   2.036   0.726  10.487 -0.0231  0.3070  0.1430
30848W        W46922  12.338  13.029   5.045  0.0881  0.2066 -0.0445
30849W        W46923   2.684   8.612  16.555 -0.1466  0.0697 -0.0947
30850W        W46924   5.206  17.049  15.429  0.1184  0.0096  0.0219
30851W        W46925   6.066  13.795  13.300  0.1616  0.0018  0.1243
30852W        W46926   6.957   5.498  15.764  0.1373 -0.0396  0.1467
30853W        W46927   4.602   2.965   6.067 -0.0191 -0.2304  0.1934
30854W        W46928  17.739  13.391  16.203  0.1478 -0.1147 -0.0340
30855W        W46929   6.557   1.040  11.877 -0.0911 -0.0787  0.1875
30856W        W46930  13.914  12.079   3.346  0.3303 -0.3915  0.3648
30857W        W46931  17.687   9.109  12.447 -0.1096 -0.1203  0.3575
30858W        W46932   3.288  10.488  15.828  0.0384 -0.0734 -0.2733
30859W        W46933  16.668  12.206  15.266 -0.0918 -0.2099 -0.3609
30860W        W46934   4.789   6.163   1.809  0.0192  0.2730  0.1978
30861W        W46935   0.864  14.130  12.087  0.0450  0.0888 -0.3740
30862W        W46936   3.913   9.577  16.801  0.2303 -0.0486 -0.0303
30863W        W46937   7.056  16.683   3.141 -0.2794  0.2640  0.1835
30864W        W46938   5.839   8.072  12.409 -0.1981 -0.1020  0.1048
30865W        W46939   9.375   7.223   4.093  0.0447 -0.0116  0.1905
30866W        W46940  10.777  13.097   5.487  0.2018  0.0624 -0.2160
30867W        W46941  15.287   7.783  16.031 -0.2418 -0.0488 -0.0873
30868W        W46942   5.131  11.986   0.186 -0.0113  0.2431  0.1146
30869W        W46943  12.822   1.913   5.834  0.3970  0.1473  0.1973
30870W        W46944   4.986   7.014   4.690  0.2301 -0.0655  0.2659
30871W        W46945  17.341   6.992   3.503 -0.1095 -0.2784  0.0040
30872W        W46946   2.635  12.814  13.704 -0.1053  0.2155  0.1076
30873W        W46947  11.198   0.475   3.011  0.0472  0.0276 -0.1721
30874W        W46948  16.143   1.175   1.014 -0.0799 -0.1481  0.0033
30875W        W46949   8.089   3.249  13.272  0.0038 -0.1710  0.3061
30876W        W46950  13.979   9.906   1.188 -0.2268  0.1256 -0.0502
30877W        W46951  14.588  11.549   6.236  0.0722  0.0104  0.0014
30878W        W46952   9.858   4.098  12.157  0.1290  0.1645  0.3528
30879W        W46953   6.990  14.804  16.242 -0.5052  0.0513 -0.1222
30880W        W46954   0.456   7.661  13.675  0.2151  0.1813  0.0999
30881W        W46955   8.723   9.295  14.659  0.1821  0.1291  0.0956
30882W        W46956   6.482   0.193  12.244 -0.1036 -0.0207 -0.1477
30883W        W46957  16.140   5.140  14.616  0.1268  0.1560  0.0283
30884W        W46958  13.386   4.199  13.769  0.0768  0.0902  0.0349
30885W        W46959  16.526   8.690  16.727 -0.0839 -0.3759  0.0773
30886W        W46960  10.855   5.932   3.627 -0.1446 -0.1110 -0.2737
30887W        W46961  14.546   9.527  15.809 -0.2327  0.2011 -0.1106
30888W        W46962  10.309   6.954   4.356  0.1278  0.0218 -0.0551
30889W        W46963   2.100  13.511   1.519 -0.0264 -0.2781 -0.0602
30890W        W46964   3.026  16.379  15.342 -0.0120  0.4197 -0.1132
30891W        W46965  15.589   9.169   2.075 -0.0640  0.2506  0.2762
30892W        W46966   4.307   0.860   0.148  0.1507 -0.0523  0.2858
30893W        W46967   1.153   0.186   0.282  0.1729 -0.1701 -0.0259
30894W        W46968   1.877  15.460   4.486  0.0958  0.0830  0.0323
30895W        W46969   6.075   7.404  15.503  0.0905 -0.0010  0.1009
30896W        W46970   1.033  15.690   0.819 -0.0472  0.1494 -0.1319
30897W        W46971   8.345  15.622  14.844 -0.1007  0.0081  0.3733
30898W        W46972  12.584   8.419  13.541  0.0894 -0.0336 -0.0361
30899W        W46973  14.674   6.730  14.787  0.0734  0.0455  0.1198
30900W        W46974   0.975   0.089  15.663 -0.1665  0.2315 -0.0063
30901W        W46975   3.995  12.197   3.099 -0.0780 -0.2170 -0.0357
30902W        W46976   4.659   2.089   5.026 -0.2567  0.3676  0.2172
30903W        W46977  11.312  12.520  15.097  0.0808  0.0344 -0.0428
30904W        W46978  10.180   5.053   4.563  0.1507  0.2453  0.1556
30905W        W46979  15.758  10.845   0.808 -0.1077  0.1545 -0.3557
30906W        W46980   3.639   8.029   5.551  0.0072 -0.1968 -0.1490
30907W        W46981  15.658  10.713  13.840  0.0713 -0.1811  0.3179
30908W        W46982  16.146  14.222  16.851 -0.3375 -0.2151 -0.0274
30909W        W46983   5.694   6.224   3.307 -0.0566  0.2139 -0.1562
30910W        W46984   0.067   0.874  15.983 -0.0830 -0.1177 -0.1652
30911W        W46985   9.271  13.970   0.984  0.3916  0.3403  0.0448
30912W        W46986  11.358  13.314   0.317  0.3258 -0.0672  0.3981
30913W        W46987   6.242   9.658   5.744 -0.1269  0.2713 -0.1625
30914W        W46988   2.454   3.211  16.406  0.0683  0.0863 -0.1604
30915W        W46989  16.878   8.717   1.924  0.1205 -0.1132  0.4137
30916W        W46990   9.003  10.383  16.551 -0.2544 -0.0032  0.2636
30917W        W46991   5.225  10.354  15.922  0.3228 -0.2037  0.0791
30918W        W46992   7.508  11.472   2.151  0.1454 -0.1707 -0.0270
30919W        W46993  16.484  16.551   1.393 -0.0617 -0.0523  0.0578
30920W        W46994   9.427   1.155  15.614 -0.1214 -0.1060  0.1494
30921W        W46995   3.713  10.910  12.897  0.1720 -0.4366 -0.3066
30922W        W46996  13.471  16.097   4.545 -0.2402  0.1811 -0.3753
30923W        W46997   2.382   0.161   3.995  0.0935  0.0571 -0.0683
30924W        W46998   9.700  13.953   0.740  0.1777 -0.0870 -0.1206
30925W        W46999   8.202   4.561  16.354 -0.0603  0.0563  0.1622
30926W        W47000  13.791  12.987   3.549  0.1855  0.0285  0.0269
30927W        W47001   5.330  17.378  11.709 -0.1052 -0.1433 -0.3122
30928W        W47002  11.083   1.611  12.597 -0.5794  0.1209  0.0794
30929W        W47003   1.583  15.537  14.629  0.1832  0.2049  0.1872
30930W        W47004   3.038  12.157   2.959  0.0938 -0.2815 -0.5695
30931W        W47005   5.683  16.801   4.415 -0.0836 -0.1045 -0.1210
30932W        W47006   5.178   0.374   4.346 -0.0215 -0.0373  0.0557
30933W        W47007   8.624  17.474   0.930 -0.1055  0.0417  0.2699
30934W        W47008  15.673   7.505   2.501 -0.1863 -0.1113  0.1852
30935W        W47009  14.169   9.572  15.329 -0.0327  0.0166 -0.2552
30936W        W47010  12.330  11.786  14.669 -0.1094  0.3593 -0.0195
30937W        W47011   7.478   8.731   3.351  0.1088  0.0963  0.0036
30938W        W47012   9.233   0.486  13.327  0.2982 -0.1595 -0.1525
30939W        W47013  16.528   5.793   3.572 -0.1175 -0.3766  0.1171
30940W        W47014  10.853   4.029   6.426 -0.1827  0.1530  0.3876
30941W        W47015  10.716  16.299  13.853  0.0453  0.3660  0.0468
30942W        W47016   3.860  17.348   4.762  0.1681  0.0266 -0.2181
30943W        W47017  17.741   7.906   0.975 -0.0789 -0.1726 -0.2300
30944W        W47018   2.469   4.562   0.311  0.0879  0.0545 -0.0492
30945W        W47019  11.890   2.871  16.150  0.1530 -0.0136  0.0541
30946W        W47020  13.331  12.924   5.867 -0.3702  0.1170  0.0418
30947W        W47021   0.275   6.424  12.590 -0.1653  0.1353 -0.0535
30948W        W47022  14.360   5.132   4.769  0.0514  0.0529 -0.1936
30949W        W47023  16.332  13.900  11.570 -0.0040  0.1978  0.4950
30950W        W47024  13.189   9.665  12.927  0.0841  0.2203 -0.1700
30951W        W47025   5.125  12.729  14.010  0.2742 -0.0874  0.2306
30952W        W47026  11.957  11.617  13.009  0.1230  0.0497  0.0505
30953W        W47027   0.091  10.576   1.852 -0.0633  0.2566 -0.1066
30954W        W47028   0.987   7.824  16.224  0.0578  0.1709  0.4368
30955W        W47029   8.916   2.056   3.839  0.3925  0.2245  0.1104
30956W        W47030   3.289  11.807  14.870 -0.1787  0.3402  0.1699
30957W        W47031   4.797   7.575  15.644  0.0001 -0.0045 -0.0353
30958W        W47032   6.988   0.613   3.060  0.0794  0.0323  0.0203
30959W        W47033   3.896  13.525   2.407 -0.1351  0.0440  0.1816
30960W        W47034  16.232  15.099   5.901  0.1547 -0.1817  0.3456
30961W        W47035   6.944  10.511  15.640 -0.0156  0.0490 -0.3117
30962W        W47036   1.714   4.471   1.030 -0.1356 -0.0910  0.3333
30963W        W47037   1.509  14.191   0.510  0.0312  0.3303 -0.2222
30964W        W47038  13.534   8.891  12.650 -0.0233  0.0356 -0.5016
30965W        W47039  16.337  12.363  12.609 -0.0990  0.0137 -0.2020
30966W        W47040   9.944  10.564   3.664  0.2667 -0.0167  0.3020
30967W        W47041  12.837   6.338   0.528 -0.1913  0.1669  0.1969
30968W        W47042   7.694   4.567  14.969  0.1503 -0.0552  0.1259
30969W        W47043  16.610  12.092   5.674  0.0689  0.2011 -0.1481
30970W        W47044   1.300  10.099   0.873  0.0250 -0.0742 -0.0544
30971W        W47045  14.166   1.175   5.390  0.1761  0.0863 -0.2371
30972W        W47046   4.408  17.333  13.088 -0.2798  0.0749  0.2364
30973W        W47047   9.221   0.345  12.352  0.1615 -0.1368  0.2388
30974W        W47048   8.016   8.652  16.219 -0.0157 -0.1755  0.2041
30975W        W47049   7.686   2.072   5.655  0.2482 -0.1125 -0.0916
30976W        W47050   9.730  13.760  13.143 -0.0786  0.2949 -0.0553
30977W        W47051   7.860  14.712  11.756 -0.1167 -0.0398  0.0575
30978W        W47052  12.704   7.651   5.005 -0.0782  0.4092 -0.1946
30979W        W47053   0.954  11.820   1.237  0.1316  0.2248 -0.1755
30980W        W47054   0.258  11.795   5.132  0.1510  0.1873 -0.2444
30981W        W47055   2.875  12.821   4.994  0.0288  0.1689 -0.2280
30982W        W47056   8.564  11.160   0.017  0.2059  0.1951 -0.0059
30983W        W47057   7.759  12.598   3.999 -0.2448  0.1517 -0.0814
30984W        W47058  16.617   3.301  14.705 -0.2020 -0.2120 -0.1632
30985W        W47059  12.162   9.121   0.517 -0.2217  0.0609 -0.5329
30986W        W47060   6.943   1.498  15.817 -0.2565  0.2488  0.0974
30987W        W47061   8.019  11.108   3.975 -0.3302  0.0980 -0.0941
30988W        W47062  14.866  13.445  16.590  0.1177 -0.0199 -0.0197
30989W        W47063   9.349  10.788   4.302  0.0788 -0.1997 -0.1297
30990W        W47064  17.734   1.326   3.936  0.1727 -0.0991  0.1687
30991W        W47065   0.797  13.867   1.761  0.2030  0.0759  0.2355
30992W        W47066   5.450   1.667   5.027  0.1062 -0.0088 -0.2219
30993W        W47067   4.336   3.168   0.225 -0.0174  0.3009  0.1990
30994W        W47068  15.945  16.193  15.610  0.0011 -0.2406 -0.2481
30995W        W47069   6.270  10.717  12.134  0.0938  0.1574  0.0441
30996W        W47070   0.539  16.719   3.241  0.0375  0.1049  0.2325
30997W        W47071   4.630   2.512  15.861  0.2392 -0.1571  0.4377
30998W        W47072   6.801  13.550   0.781 -0.2394 -0.0719  0.2193
30999W        W47073   7.726   3.095   0.252 -0.1286  0.1647 -0.0191
31000W        W47074   5.391   0.812   2.452  0.1160  0.1068 -0.0806
31001W        W47075   8.916  13.643  13.366 -0.3356  0.2287  0.1478
31002W        W47076   6.616  16.282   2.468  0.3619 -0.0010  0.1006
31003W        W47077   8.648   3.931   3.250 -0.2592  0.1182  0.1587
31004W        W47078   9.003   9.501   5.989 -0.1232  0.0540  0.0153
31005W        W47079   8.360  10.953   0.658 -0.1143 -0.0301  0.1315
31006W        W47080   9.483   0.716   0.866  0.3175  0.1175 -0.1695
31007W        W47081  16.733   2.307  12.387  0.1725 -0.2440  0.2458
31008W        W47082  12.080   2.414  12.629  0.0632  0.0368  0.1683
31009W        W47083   8.787   7.112   3.284 -0.0140  0.1341  0.0555
31010W        W47084   6.064   9.100  14.782  0.0679  0.0662 -0.0288
31011W        W47085  16.574   9.123  15.371  0.0872  0.0694 -0.0508
31012W        W47086   8.451   3.031   1.616 -0.2504  0.1403  0.1413
31013W        W47087   4.257  16.442   0.188  0.3725 -0.0469  0.2710
31014W        W47088   4.298  13.114  11.724  0.0844 -0.0950 -0.3085
31015W        W47089   4.462   0.102   2.575  0.0333  0.3239 -0.2496
31016W        W47090  11.762   7.040   2.013 -0.0701 -0.2804 -0.1991
31017W        W47091   2.936   6.572  11.431 -0.0803  0.1124 -0.1023
31018W        W47092  13.176   4.203  15.596 -0.1120  0.3166  0.0875
31019W        W47093   6.938  17.198  14.009  0.3822 -0.1565  0.1418
31020W        W47094   2.096   9.410  16.728 -0.1125 -0.0440 -0.2319
31021W        W47095  11.847   1.786   1.540 -0.2658  0.1342 -0.0575
31022W        W47096  11.294   8.550   2.602  0.0746  0.0331 -0.2439
31023W        W47097   1.422  16.252   4.484  0.0120  0.1780 -0.4526
31024W        W47098  14.920   7.847  11.491  0.0226  0.0844  0.0729
31025W        W47099  14.300   5.861   3.081  0.0299  0.3963 -0.3323
31026W        W47100  10.662  12.820  12.837 -0.0074 -0.1612  0.0004
31027W        W47101   3.779   8.483  13.711 -0.0495 -0.3338  0.2864
31028W        W47102  10.141  15.524  15.188 -0.1634 -0.0975 -0.3477
31029W        W47103  13.394  12.931   6.420  0.0121  0.0697 -0.0207
31030W        W47104   3.090   9.569   5.486  0.0732 -0.0774  0.0412
31031W        W47105   3.666   5.417   2.414 -0.2105  0.0897  0.0331
31032W        W47106   8.842   1.218  14.439  0.0383  0.0684  0.0965
31033W        W47107   9.769   1.743   0.709  0.0563  0.0911 -0.1859
31034W        W47108   7.717   5.076   2.124  0.2902 -0.0801 -0.2509
31035W        W47109  14.503  16.690   5.823 -0.2740 -0.0389 -0.0337
31036W        W47110   7.555   2.114   0.260 -0.1417  0.0111  0.0868
31037W        W47111  15.382  12.767   1.822  0.0411 -0.0093 -0.2452
31038W        W47112   3.333  14.008   1.441  0.0339 -0.0425  0.0230
31039W        W47113  16.480  13.209   1.685 -0.2156 -0.1729  0.0588
31040W        W47114  13.489  10.503   4.670  0.0972  0.0096 -0.0619
31041W        W47115   1.125  13.146   1.480 -0.3431  0.0423 -0.1415
31042W        W47116  15.922   5.687   0.224 -0.0096  0.4035  0.0233
31043W        W47117   8.089   2.317   0.125 -0.0692 -0.1137 -0.3365
31044W        W47118  11.106  13.268   3.279 -0.2398 -0.2340 -0.2272
31045W        W47119  17.604   7.010  13.157 -0.1350 -0.0246 -0.0214
31046W        W47120  16.239  17.154   3.100 -0.1865 -0.3039  0.1272
31047W        W47121  12.873  16.658   3.930 -0.0810 -0.0935  0.0454
31048W        W47122  17.019  10.122  12.419  0.3371  0.1204  0.0455
31049W        W47123   1.673   0.239   5.603 -0.2177  0.0877 -0.0057
31050W        W47124  15.254  10.410  13.034  0.1629  0.0919  0.0430
31051W        W47125   7.017   6.056   4.247 -0.0648  0.2741 -0.0608
31052W        W47126   9.150  10.899  15.262  0.1328 -0.0152 -0.0225
31053W        W47127   0.851  15.954  15.207 -0.2251 -0.0438  0.0839
31054W        W47128   2.525   9.863  12.271  0.0357 -0.0721  0.1366
31055W        W47129   8.502   2.628   0.264 -0.0076  0.3336 -0.0885
31056W        W47130  11.607   0.569   3.425  0.3197  0.0948 -0.0129
31057W        W47131  15.964   8.818  13.113 -0.0458  0.0189 -0.1914
31058W        W47132   0.404  14.595  12.186 -0.4280 -0.0660  0.0751
31059W        W47133  10.448   3.437   1.291 -0.2855  0.0999 -0.2301
31060W        W47134  14.211   4.684   4.820  0.0066 -0.0360  0.0347
31061W        W47135  10.724  16.635  12.998 -0.0566  0.0647  0.1097
31062W        W47136  15.658   4.947   5.246  0.2047 -0.0248 -0.0551
31063W        W47137  10.357  11.690   2.519 -0.3648 -0.1222  0.1194
31064W        W47138  14.415   1.327  15.083 -0.0050 -0.0908  0.5345
31065W        W47139  16.465   9.874   1.610 -0.1056  0.2093 -0.0267
31066W        W47140   8.127   3.244  16.102 -0.0647  0.0072  0.0305
31067W        W47141  15.783  13.462  12.895 -0.3220  0.0074  0.1329
31068W        W47142   2.365   8.631  16.942  0.0248  0.2391  0.2366
31069W        W47143  17.393   7.109   2.578  0.1242 -0.0169 -0.1632
31070W        W47144   0.461   7.999  12.854 -0.1108  0.0175  0.0887
31071W        W47145  14.570   1.979   6.822  0.1113  0.1402 -0.0522
31072W        W47146   8.091  16.851  13.016  0.0658  0.0189  0.2300
31073W        W47147   2.237   5.361   3.047  0.1449  0.0166 -0.2745
31074W        W47148   1.499   9.965  11.865  0.3099 -0.1667 -0.1569
31075W        W47149   7.443   1.482  13.499 -0.2554  0.0060  0.0043
31076W        W47150   8.405  13.689   0.474  0.1451  0.0192 -0.0194
31077W        W47151   2.747   0.205  12.282  0.2822 -0.1276 -0.1020
31078W        W47152   9.662  14.529   4.078  0.3586 -0.0739  0.3656
31079W        W47153   4.710   3.623  16.751 -0.0972  0.1910 -0.2611
31080W        W47154   4.548  14.509  12.950 -0.1182  0.1151  0.0709
31081W        W47155  10.160   0.186  11.989  0.0644  0.0779 -0.1219
31082W        W47156   2.322   9.817   5.029 -0.1047 -0.2465  0.2266
31083W        W47157   9.951  14.521  13.105 -0.0120  0.0353 -0.0752
31084W        W47158   5.032  10.721  13.360  0.0041  0.0111 -0.1775
31085W        W47159  10.016   9.320   5.191 -0.0042 -0.0581 -0.0094
31086W        W47160  14.162   6.253   4.638 -0.2415  0.0090  0.2591
31087W        W47161   2.732  17.775  10.459  0.1415 -0.0497 -0.0896
31088W        W47162  10.970   5.302   5.166  0.1572  0.1413 -0.4081
31089W        W47163  10.725   1.115  16.304  0.0107 -0.1796 -0.3568
31090W        W47164   5.660  10.601   3.015 -0.1408 -0.1249 -0.4212
31091W        W47165  14.360  11.738   1.579 -0.0624  0.1252  0.0808
31092W        W47166  14.727   2.529  14.023  0.0530 -0.0131  0.3049
31093W        W47167   6.576   3.300   1.613  0.0846  0.1890 -0.1532
31094W        W47168   3.850  16.410  12.841 -0.0914 -0.1895  0.2213
31095W        W47169   4.784   8.630   3.665 -0.0344 -0.4852 -0.0780
31096W        W47170   6.386   3.987  12.363  0.0710 -0.1619 -0.3383
31097W        W47171   9.086   9.995   1.668  0.0423  0.2318 -0.1712
31098W        W47172   7.755  15.118   5.646 -0.1659  0.1926  0.0810
31099W        W47173  15.186   5.805  13.722  0.1538 -0.3039  0.1021
31100W        W47174  17.425  10.211  16.564  0.3887  0.2842  0.1165
31101W        W47175   1.026  14.462  15.641 -0.0057 -0.2156 -0.0108
31102W        W47176   1.994  11.452  14.958 -0.1666  0.0153 -0.0517
31103W        W47177   2.296   5.217   0.950  0.0616  0.5185  0.3104
31104W        W47178  13.385   8.686   0.863 -0.3147  0.0258  0.1430
31105W        W47179  10.896  11.837   1.599  0.1608 -0.0209 -0.2834
31106W        W47180   2.072  12.608  14.479  0.0060 -0.1268 -0.2273
31107W        W47181   8.467   4.942  12.424 -0.0620 -0.3233  0.1405
31108W        W47182   0.815  14.388  16.784 -0.0431  0.0907  0.2218
31109W        W47183   6.528   8.267   3.885 -0.1287  0.2316  0.0596
31110W        W47184  15.190  12.099   3.449  0.3212 -0.2364 -0.3785
31111W        W47185  12.276   8.643  12.800 -0.1640 -0.0137 -0.2052
31112W        W47186   8.775  17.510  16.402  0.0455  0.0919 -0.2341
31113W        W47187  11.074  15.973   0.191 -0.3593  0.2044  0.2371
31114W        W47188   2.735   4.127   1.729 -0.1763  0.1816  0.0190
31115W        W47189   5.457   4.227   5.567  0.1912  0.0343  0.0987
31116W        W47190  11.911  13.776  12.286  0.0904  0.1899 -0.0998
31117W        W47191   2.032   8.109   4.903  0.3541 -0.0824  0.2727
31118W        W47192   7.649  14.908   3.404  0.2223  0.0688  0.2432
31119W        W47193   0.786  14.883  15.854 -0.2173 -0.2331 -0.1505
31120W        W47194   0.691   0.549   2.012 -0.0825 -0.1526  0.0616
31121W        W47195   0.127  16.986   4.911 -0.0266  0.2078 -0.3652
31122W        W47196  14.240   5.295  14.559 -0.1448  0.0149 -0.0298
31123W        W47197  11.471   2.592   3.086 -0.2639 -0.1068  0.1187
31124W        W47198  17.587  17.191   2.960 -0.1283  0.0266 -0.0244
31125W        W47199   3.367   2.270  16.349  0.0192  0.0106  0.1140
31126W        W47200   1.750   3.726   4.481 -0.1953 -0.1209  0.0530
31127W        W47201   3.397  16.248  12.004 -0.2187  0.3060 -0.2282
31128W        W47202   8.792  13.053  11.308 -0.0117 -0.2283  0.1076
31129W        W47203  11.564   5.140  15.620  0.0308 -0.2231  0.3399
31130W        W47204   0.618  10.436   4.743 -0.0052 -0.2282 -0.0180
31131W        W47205  17.474  17.356   5.674  0.1036 -0.0269  0.1074
31132W        W47206  15.539   9.518   3.910 -0.0314 -0.0651  0.0882
31133W        W47207   6.624  17.639   3.166 -0.1370 -0.4410 -0.0341
31134W        W47208   8.939   6.110   5.673  0.0584 -0.1084 -0.0947
31135W        W47209   2.088  17.267   5.791 -0.0450  0.0248  0.1088
31136W        W47210   9.456   1.751  14.754  0.0061  0.2487  0.2034
31137W        W47211   4.182   0.809  15.217  0.0319 -0.3105  0.1565
31138W        W47212  11.728   6.136  15.774  0.1343 -0.2307 -0.0343
31139W        W47213  17.726  16.196  11.861  0.3837 -0.1647 -0.2186
31140W        W47214  17.503  10.715   2.399 -0.0208  0.0886 -0.0224
31141W        W47215  15.015   9.619  16.032  0.1814  0.0038 -0.3165
31142W        W47216   0.080   4.670  12.658  0.0329  0.2232 -0.3518
31143W        W47217  16.833   6.380  16.156  0.1219 -0.0953 -0.0392
31144W        W47218   7.811  13.207  12.030  0.1641  0.0089 -0.0411
31145W        W47219  11.797  13.934  13.393 -0.1968  0.1204  0.1508
31146W        W47220   8.752   7.063  14.093  0.0234  0.1253  0.1229
31147W        W47221  14.088   4.379  12.405  0.3416 -0.0438  0.2937
31148W        W47222  15.928  15.327   1.065  0.0386  0.0052 -0.0670
31149W        W47223  16.449   0.129  15.139  0.1286  0.3912  0.2126
31150W        W47224  17.097  16.329  13.443 -0.2791 -0.0416  0.0383
31151W        W47225   4.099   4.084  12.319 -0.1361 -0.1736  0.0451
31152W        W47226   2.898   7.102   3.512 -0.2702 -0.2319 -0.1271
31153W        W47227   5.445  13.312   2.257  0.0060 -0.0270 -0.0339
31154W        W47228   3.570  15.271   0.910 -0.1183  0.3442 -0.0866
31155W        W47229   6.188  16.123   5.088 -0.0867  0.0190  0.0068
31156W        W47230   4.448  11.335   5.410  0.0465 -0.3216  0.0569
31157W        W47231  15.963  17.402  14.274  0.0754  0.0142 -0.4021
31158W        W47232   9.536  11.004  15.557 -0.3237  0.0404 -0.0279
31159W        W47233  10.192   1.132   3.246  0.4169 -0.2208 -0.2086
31160W        W47234   1.304   1.534   0.848  0.4571  0.2080 -0.0320
31161W        W47235   3.251   0.007   4.143  0.1770  0.1085  0.1340
31162W        W47236   8.774   6.977  14.687 -0.0015  0.0347 -0.2045
31163W        W47237   4.344   7.865   1.822 -0.1404 -0.0557  0.0613
31164W        W47238  16.755   0.045   0.165  0.1552  0.0891  0.0699
31165W        W47239  11.116   5.406   5.638 -0.0793  0.0517 -0.3355
31166W        W47240  11.982   9.155  13.585  0.0912 -0.3006 -0.1577
31167W        W47241   1.955  17.688  16.328  0.0226 -0.1825  0.0685
31168W        W47242  17.283  17.227   2.144  0.0661  0.2407 -0.0347
31169W        W47243   8.140   4.387   2.136  0.2514 -0.0410 -0.1659
31170W        W47244   4.703   3.466  11.713 -0.0331  0.2649  0.1065
31171W        W47245  14.480  11.546  13.829 -0.2414  0.0445  0.4164
31172W        W47246   4.190   2.033   3.972 -0.0035  0.3485  0.0035
31173W        W47247   3.637  16.649   1.122  0.3480  0.0601 -0.2208
31174W        W47248   2.955   1.359   1.594 -0.1762 -0.2432 -0.2725
31175W        W47249  15.849   2.534  14.972 -0.0581  0.2030 -0.2684
31176W        W47250   4.976   7.414  13.926  0.0481 -0.1024 -0.1810
31177W        W47251   0.094  17.254  16.937  0.0074 -0.0512 -0.0955
31178W        W47252  12.915  14.427   4.516  0.0186 -0.1595 -0.2257
31179W        W47253  10.765   6.866  15.124  0.1551  0.0464 -0.2649
31180W        W47254  14.924   3.936  14.450  0.1836  0.1446 -0.1527
31181W        W47255   3.022  17.795   3.111 -0.2930  0.0375  0.0817
31182W        W47256   1.766  11.528   5.442 -0.0307  0.1105 -0.0895
31183W        W47257  17.431   5.718   5.119 -0.0713 -0.0282 -0.2950
31184W        W47258   2.809  17.572   0.522 -0.1081  0.1929  0.1015
31185W        W47259  10.366   0.317  12.936  0.1780  0.1006  0.1925
31186W        W47260  14.420   5.444  14.088  0.1367  0.0511 -0.2080
31187W        W47261  10.386  14.198   3.982  0.3128 -0.1278 -0.0547
31188W        W47262   7.793   5.435   5.514  0.0265 -0.0225  0.4154
31189W        W47263   6.418  15.830  16.473  0.1510  0.1193 -0.0600
31190W        W47264   6.452  14.383  15.626  0.0177  0.1554 -0.0596
31191W        W47265   3.016   1.814   1.358 -0.2208 -0.0725  0.1184
31192W        W47266   0.777  12.473  16.448  0.1814 -0.1434  0.1166
31193W        W47267  11.741  11.977   5.101 -0.3136  0.0377  0.1202
31194W        W47268  17.151   5.691  15.719 -0.0335  0.1485  0.1570
31195W        W47269   4.804  14.725  15.635  0.2369 -0.3080 -0.2160
31196W        W47270   8.583  13.855  14.412 -0.2064  0.0121  0.1263
31197W        W47271   7.546  16.738   3.776  0.0681  0.2417 -0.3664
31198W        W47272   7.859  17.611  12.086  0.0625  0.0788  0.1936
31199W        W47273   2.490  13.177   1.561 -0.2733 -0.1472 -0.0752
31200W        W47274   9.929  13.568  15.633 -0.0521 -0.1804  0.0240
31201W        W47275   8.534   4.086   2.388 -0.0478 -0.0515 -0.2919
31202W        W47276  12.148  13.477  16.209 -0.3078 -0.2974  0.0015
31203W        W47277  10.874   9.763   2.121  0.3688 -0.0190 -0.1182
31204W        W47278  12.180   9.557  16.901 -0.0647  0.1707 -0.0647
31205W        W47279   4.395   0.359  12.788  0.0255 -0.0303  0.2975
31206W        W47280   7.141   9.383   4.121 -0.2946 -0.0289  0.0673
31207W        W47281   5.096   9.903   5.224 -0.1924 -0.0944  0.0423
31208W        W47282   6.776   8.551  15.993  0.1451 -0.2785 -0.4378
31209W        W47283   3.186   9.473  16.355 -0.0875 -0.3289  0.2430
31210W        W47284  17.143  14.485   1.328 -0.0523  0.1129  0.1719
31211W        W47285   0.077   9.208   6.260  0.1761 -0.2669  0.1193
31212W        W47286   1.830  13.690  16.114  0.1477 -0.0186 -0.3314
31213W        W47287  14.872   9.091  16.076 -0.0195  0.0003  0.3508
31214W        W47288   4.720   6.305   5.391 -0.0313 -0.1884 -0.0725
31215W        W47289   6.210  14.927   1.951  0.0370  0.1274 -0.0630
31216W        W47290  15.446   6.597   0.254  0.0849 -0.0008 -0.4147
31217W        W47291  14.478  13.608  16.171  0.1232  0.1831  0.0898
31218W        W47292  15.369  15.441   2.110 -0.1676 -0.0108  0.2747
31219W        W47293  13.996   3.258  14.646  0.2877 -0.0972  0.0717
31220W        W47294   9.635   3.384  15.366 -0.1238  0.0402 -0.1183
31221W        W47295  17.769  16.393   6.185  0.2430  0.1896  0.2506
31222W        W47296   7.307   6.389  13.720  0.1728 -0.1703  0.0547
31223W        W47297   1.576   0.161   0.614  0.1923 -0.0141 -0.0050
31224W        W47298   2.570  14.597   4.234  0.0349  0.1034  0.0715
31225W        W47299   7.879   9.637   3.441  0.1219  0.0451 -0.1057
31226W        W47300  11.725  17.683   2.935 -0.2752  0.0908 -0.1000
31227W        W47301   8.537   5.956  16.647  0.0290  0.1579  0.2368
31228W        W47302  10.614   2.099   5.293  0.0426  0.0597 -0.2474
31229W        W47303   8.430   2.055  12.837 -0.2063 -0.2579 -0.2033
31230W        W47304  12.809   2.983   5.232  0.0775 -0.1644 -0.0309
31231W        W47305   8.404   4.666   2.445  0.2459 -0.0018  0.1380
31232W        W47306   5.258   3.720  16.436 -0.2572  0.0623 -0.0667
31233W        W47307  13.521   1.741  11.572  0.1965 -0.1748 -0.3425
31234W        W47308   6.688   7.134  14.145  0.0199  0.2674  0.3938
31235W        W47309  17.653  16.894   5.382 -0.0970 -0.2173 -0.0605
31236W        W47310  11.591  15.047   3.226  0.1297 -0.2978  0.1878
31237W        W47311   6.694  14.696  12.505 -0.1446  0.0344  0.0296
31238W        W47312   6.636  14.917   2.223  0.2126  0.0581 -0.2234
31239W        W47313   6.350  10.354   2.499  0.0588 -0.1243  0.1337
31240W        W47314   3.341   5.501   4.933 -0.1818  0.1402  0.0719
31241W        W47315   8.262   7.178  12.655  0.1197  0.0346  0.0950
31242W        W47316   6.479   0.129  16.377  0.0724 -0.1023 -0.4673
31243W        W47317   2.278  10.612  14.536 -0.0294  0.1956 -0.0494
31244W        W47318  17.234   4.800   0.649 -0.2424 -0.2209 -0.2012
31245W        W47319  15.687   6.683  16.692  0.1386 -0.0826 -0.3092
31246W        W47320  11.501   6.808   0.440 -0.1650 -0.0555 -0.0987
31247W        W47321   7.894  15.361   1.979  0.1373 -0.2199 -0.2504
31248W        W47322  10.288   7.284   1.642 -0.0309 -0.1102 -0.0274
31249W        W47323  11.960   1.777   0.426 -0.2015  0.1788 -0.1146
31250W        W47324  16.946   5.898   5.094  0.1988 -0.0551 -0.2257
31251W        W47325  12.280   4.618   2.061 -0.2370 -0.0375  0.2166
31252W        W47326  16.961   7.897   5.384  0.4706 -0.0416  0.2751
31253W        W47327   4.281  14.627   2.054  0.0751  0.1551  0.1017
31254W        W47328   5.029   0.367   5.219 -0.0355 -0.0190 -0.0847
31255W        W47329   8.968   8.680  13.998  0.1991  0.0711  0.0410
31256W        W47330   7.663   1.640   3.366 -0.1905  0.2805 -0.0715
31257W        W47331  14.279  13.124   1.729 -0.0225 -0.4313 -0.0412
31258W        W47332   7.716  10.427   1.655 -0.0405 -0.0481 -0.1393
31259W        W47333   3.572  10.139  12.916  0.0574  0.2175  0.3214
31260W        W47334   3.577   7.978   0.668 -0.2127  0.1564 -0.2451
31261W        W47335   6.502  14.549  13.389  0.2751 -0.0732  0.1389
31262W        W47336   2.167  10.528   1.132 -0.2005 -0.1634 -0.0393
31263W        W47337  10.563  17.742   1.844 -0.1401  0.2052 -0.1198
31264W        W47338  13.509   2.006   2.119 -0.0101 -0.1815  0.0044
31265W        W47339  11.829   0.719   0.715  0.3548  0.0020 -0.0311
31266W        W47340  15.556  10.116  12.741 -0.3932 -0.0107 -0.0464
31267W        W47341   5.082   4.022   1.046  0.0320 -0.0232  0.0170
31268W        W47342   3.846  12.760   1.889  0.0201  0.0192 -0.0078
31269W        W47343  15.096   2.901   3.460  0.2028  0.0141 -0.0556
31270W        W47344  11.729   6.769  11.585  0.1164  0.0818 -0.0386
31271W        W47345   9.779   8.788  12.655 -0.0566  0.0254 -0.2091
31272W        W47346   6.000  13.389  14.544  0.0443  0.0482 -0.0675
31273W        W47347   1.900  17.211  14.049 -0.1155  0.1516 -0.3662
31274W        W47348   9.808  11.429  13.807  0.1334 -0.1250 -0.0614
31275W        W47349   0.468  15.777  13.953  0.0379  0.1424  0.2300
31276W        W47350  14.362  16.812  12.552  0.2527  0.2980  0.0366
31277W        W47351   0.590  14.846  16.734  0.0946  0.2330 -0.2637
31278W        W47352   2.587   6.456   5.456  0.0255  0.0039 -0.3333
31279W        W47353   0.639   1.224  13.703 -0.1296  0.0653  0.0367
31280W        W47354  17.214   8.660   5.062 -0.1614  0.1842 -0.2332
31281W        W47355   7.176  12.682   3.677 -0.0362  0.0140  0.2435
31282W        W47356  10.090   0.611   3.101 -0.0620  0.0423 -0.1541
31283W        W47357   5.247  14.133   3.749  0.0614 -0.2592  0.1681
31284W        W47358  15.158   8.628  15.914 -0.3396 -0.3453 -0.1011
31285W        W47359  14.163  13.999  15.225 -0.2841  0.3456 -0.1132
31286W        W47360   8.247   6.345   3.446 -0.2411  0.0906  0.2944
31287W        W47361   6.219   1.006   2.688  0.2662 -0.1605 -0.1981
31288W        W47362  14.465  13.166  13.127  0.0481  0.2027 -0.2985
31289W        W47363   4.255  11.719   3.471 -0.1326 -0.0870 -0.0885
31290W        W47364   9.835   3.349   4.127  0.0059 -0.1046  0.0364
31291W        W47365  14.454   1.260  12.225  0.2031  0.2145 -0.4004
31292W        W47366  10.248   3.626  10.403 -0.3003  0.0185  0.0035
31293W        W47367   9.213  17.116  13.790 -0.2657  0.0188 -0.1615
31294W        W47368   3.995   3.764  13.760  0.3885  0.1892  0.0788
31295W        W47369   1.077   4.529  16.811  0.4265  0.0679  0.0974
31296W        W47370   9.282   1.100  11.757 -0.1586  0.0554  0.0740
31297W        W47371  10.558   5.723   0.179 -0.0672  0.1064  0.1702
31298W        W47372   8.685   1.307   0.818  0.0573 -0.1950 -0.2432
31299W        W47373   8.528   4.530   3.539 -0.0622 -0.2883 -0.2126
31300W        W47374   4.762   3.424   4.850  0.0181 -0.1342 -0.1806
31301W        W47375   5.884   6.076  11.782 -0.0867  0.0422 -0.1026
31302W        W47376   6.632  13.330  14.508 -0.2264  0.2641 -0.0509
31303W        W47377   3.044   0.104  14.062 -0.0501 -0.0660  0.3304
31304W        W47378   5.245  16.559   5.287 -0.1094 -0.0955  0.0379
31305W        W47379  16.829  15.882  13.684  0.0544 -0.0095  0.2366
31306W        W47380   6.759   2.682   2.224  0.1786 -0.0024 -0.0387
31307W        W47381   5.931  12.143   0.414  0.1052  0.0624 -0.1055
31308W        W47382  15.341   1.778   0.651 -0.2029  0.3917 -0.2453
31309W        W47383  16.491  11.766  13.882  0.1872 -0.2381  0.2546
31310W        W47384  11.565  10.476   3.675  0.0865  0.0184 -0.0379
31311W        W47385  16.730   4.219  15.106 -0.0883 -0.0176  0.0575
31312W        W47386  17.099  12.943   5.288 -0.1436 -0.0290 -0.0669
31313W        W47387   9.359   9.452  16.482 -0.0821 -0.1694  0.0755
31314W        W47388  17.559   1.207  12.413 -0.0540 -0.0874  0.1473
31315W        W47389  15.281   0.553   4.743 -0.0385  0.0233 -0.3876
31316W        W47390  12.477   3.044   2.963 -0.1031 -0.3385  0.0770
31317W        W47391   3.790  15.719   0.121 -0.2206  0.1055 -0.2982
31318W        W47392  15.055   2.565   1.631 -0.0889 -0.0102 -0.0968
31319W        W47393  14.879  11.779   1.665 -0.1053  0.0105 -0.1159
31320W        W47394  11.892   9.544  14.238 -0.0190  0.0287 -0.3787
31321W        W47395   0.189   1.935  11.812 -0.1268  0.0799 -0.1679
31322W        W47396   7.720   4.899  14.003 -0.0939 -0.5416 -0.3319
31323W        W47397   1.811  17.584   5.463  0.3796 -0.0310 -0.0080
31324W        W47398  12.846   3.104   1.508 -0.1592  0.0724  0.0257
31325W        W47399   0.861  17.104  12.189  0.1210  0.0001  0.4477
31326W        W47400   3.351   2.059   4.719  0.0383  0.0398 -0.1468
31327W        W47401   8.905  13.818   3.433  0.2119  0.1873  0.1912
31328W        W47402  16.576   7.162   6.536  0.2022 -0.3371  0.2484
31329W        W47403   4.916   0.954   2.676  0.0895 -0.1053  0.3180
31330W        W47404  17.655   0.882  11.889 -0.0502 -0.1104 -0.0769
31331W        W47405  10.818   8.701   4.324 -0.0160  0.1353  0.0024
31332W        W47406   5.630   4.291  15.369 -0.0946  0.2196 -0.1698
31333W        W47407  15.262   3.830   0.503  0.1773 -0.1942  0.0421
31334W        W47408  15.436   3.821  15.684  0.0027  0.0511  0.1942
31335W        W47409  11.694  15.902  14.343 -0.1826  0.0238 -0.1127
31336W        W47410   9.648  11.510  12.762 -0.3155  0.0407 -0.1167
31337W        W47411   6.673   5.754   2.837 -0.1158  0.1326 -0.2161
31338W        W47412   5.299   3.168   2.891 -0.1850  0.0894 -0.1565
31339W        W47413   7.750   2.487   1.747 -0.1855  0.0589  0.1150
31340W        W47414   6.746   0.205   2.803 -0.1132 -0.1122  0.1869
31341W        W47415   8.314   6.484  11.896 -0.2829 -0.0487  0.0239
31342W        W47416  10.025   5.653  13.165  0.0440  0.0869 -0.0721
31343W        W47417   1.896   4.570  16.481  0.1743  0.2628  0.1754
31344W        W47418  11.595   3.458   3.231  0.1563 -0.1374 -0.0868
31345W        W47419   3.755  15.209   3.189 -0.0054 -0.1038  0.2250
31346W        W47420  15.930   7.961   5.515 -0.3500 -0.0517 -0.0612
31347W        W47421   1.779   4.740   0.383  0.2064  0.2548  0.0563
31348W        W47422   5.668   0.910   0.416 -0.1941  0.1608  0.2714
31349W        W47423   8.921   3.099   1.691 -0.1018 -0.0173 -0.2340
31350W        W47424  16.985   1.416   4.642  0.0204  0.1712 -0.1329
31351W        W47425  12.126   6.050   2.050  0.0878  0.0611 -0.1010
31352W        W47426   9.204  17.614   3.721  0.0019 -0.0924  0.0528
31353W        W47427   0.401   8.489   1.004  0.3809  0.1388 -0.1268
31354W        W47428  11.628   8.431  12.986 -0.0636 -0.0796  0.1359
31355W        W47429  12.094   8.042  16.074 -0.1807 -0.2358  0.1632
31356W        W47430   6.589   8.012  15.856 -0.0655 -0.1851 -0.1985
31357W        W47431   8.142   1.214   2.412  0.1693 -0.3009  0.3108
31358W        W47432   0.512   3.465   0.336  0.0248 -0.0141  0.1960
31359W        W47433   8.243  15.921   5.982  0.3690 -0.2876  0.0196
31360W        W47434   5.497   5.442  14.099 -0.1165  0.1047 -0.1413
31361W        W47435  15.707   1.327  12.095  0.3338 -0.2583 -0.0889
31362W        W47436   0.953   1.579   6.158 -0.3676  0.2716 -0.0322
31363W        W47437  15.137  13.654   5.901  0.1528  0.1292  0.2034
31364W        W47438   8.456   7.632   4.191  0.0701 -0.0382 -0.0105
31365W        W47439   2.449   0.422   5.346  0.1961  0.2251  0.0906
31366W        W47440   1.375  14.080  15.544  0.2245  0.1321  0.2769
31367W        W47441  15.011   6.137   6.350 -0.0474 -0.0115 -0.0187
31368W        W47442  12.841   3.762   2.123 -0.3049 -0.0318 -0.1367
31369W        W47443   1.627   4.693  15.534 -0.1892 -0.1287 -0.2177
31370W        W47444  14.344  10.568   5.015 -0.1285 -0.1013 -0.1543
31371W        W47445   7.208  17.842  13.528 -0.1898 -0.1044 -0.0729
31372W        W47446   0.702  14.570   4.518  0.0026 -0.1587 -0.1584
31373W        W47447  10.305   7.979  12.997  0.2859 -0.0798  0.3131
31374W        W47448  12.511  13.236  13.039  0.1286 -0.2208 -0.1176
31375W        W47449   5.514   2.198   3.386  0.1071  0.0853 -0.1660
31376W        W47450  14.537   5.956   0.058 -0.1133  0.2457  0.0714
31377W        W47451  11.582  10.315  16.134 -0.2109 -0.2818  0.2050
31378W        W47452  11.167  10.949  15.546  0.1751 -0.3175  0.0982
31379W        W47453  10.404   3.279  11.897 -0.3049 -0.0929 -0.0553
31380W        W47454  13.479   4.170   5.829 -0.1865 -0.1454 -0.1760
31381W        W47455   8.255  16.380   1.896  0.2137 -0.2677  0.3099
31382W        W47456   2.088   4.006   4.175 -0.2293 -0.1802  0.0848
31383W        W47457   2.279   4.439  12.332 -0.1926 -0.2498  0.1597
31384W        W47458  16.174   2.773   1.876  0.0755  0.0520  0.1385
31385W        W47459   3.100  10.732   3.179 -0.0812 -0.1458 -0.1659
31386W        W47460   2.248  12.717  15.437 -0.0975  0.0551 -0.0590
31387W        W47461   2.124   1.246  16.554  0.0516 -0.1285  0.0365
31388W        W47462  12.780  12.168  12.698  0.3012  0.0081  0.3353
31389W        W47463  14.752   2.736  11.530 -0.1724 -0.1402 -0.2932
31390W        W47464  13.861  12.543  16.400 -0.3777 -0.0134  0.1244
31391W        W47465   6.707  14.896   4.742  0.1861  0.2899  0.0192
31392W        W47466   0.166   0.662  12.110  0.1096  0.0411 -0.0775
31393W        W47467   1.713   2.059  16.546  0.0111 -0.0134  0.3131
31394W        W47468   3.568   5.103   4.759 -0.3404  0.1067 -0.1405
31395W        W47469  17.710  16.063  16.517 -0.2061  0.0514  0.3951
31396W        W47470   0.160  10.822   3.741 -0.0524 -0.1425 -0.0870
31397W        W47471   2.029   8.765   1.721 -0.2037  0.2246  0.1125
31398W        W47472  16.395   7.433   3.205 -0.0405  0.0001 -0.2661
31399W        W47473   3.657  16.776  11.569  0.0913  0.2372  0.0192
31400W        W47474  15.336   8.127  14.775  0.4103  0.3100 -0.0263
31401W        W47475   3.411   2.959   6.239  0.2553 -0.1113 -0.3747
31402W        W47476  11.167  11.425  12.818 -0.3103 -0.1428 -0.1258
31403W        W47477   0.447   6.029  14.090  0.0206  0.1154 -0.2702
31404W        W47478  10.478  12.266   0.292  0.2159  0.0066  0.4158
31405W        W47479  14.018  16.222   2.101  0.0235  0.1283  0.0885
31406W        W47480  12.400  16.078   3.167 -0.1575 -0.1285  0.0741
31407W        W47481   4.884   5.525  13.371 -0.1522 -0.0581  0.2502
31408W        W47482  15.099  17.626  14.412  0.0182 -0.0352 -0.1114
31409W        W47483   2.355   8.380   1.863  0.2867 -0.2223  0.0912
31410W        W47484  15.097   6.694  13.848 -0.3517  0.2112 -0.0388
31411W        W47485   7.114   9.891   2.981  0.3004  0.0112  0.3851
31412W        W47486  17.253  12.930   4.822  0.1700 -0.1080  0.0467
31413W        W47487   3.571  16.661   4.194 -0.2407 -0.3719  0.0453
31414W        W47488   9.637  10.444   4.665  0.0541  0.2285 -0.1847
31415W        W47489   4.895   7.366  15.219  0.0936 -0.1725 -0.2824
31416W        W47490   9.442  15.677   0.719 -0.0413 -0.2121 -0.4138
31417W        W47491   6.735  16.679  16.354 -0.1490 -0.2317 -0.2693
31418W        W47492  12.169  11.350   2.111  0.0247 -0.1924  0.0414
31419W        W47493  13.423   6.687  15.294 -0.0307 -0.1343 -0.1770
31420W        W47494   0.349   7.774   2.967 -0.0452 -0.2132 -0.2852
31421W        W47495  10.074   3.546   3.715 -0.1908 -0.1786  0.1473
31422W        W47496   0.596  12.597   4.486 -0.1315 -0.1682 -0.1542
31423W        W47497   4.474   0.346  15.089 -0.0966  0.0844 -0.0429
31424W        W47498   5.998   4.315  14.680 -0.1175  0.1852 -0.0483
31425W        W47499  12.169   7.911  15.575  0.2959  0.1880 -0.0994
31426W        W47500  12.135   8.968   4.875  0.1709  0.0746  0.1952
31427W        W47501   1.389  13.340   2.897  0.0398  0.0682 -0.1022
31428W        W47502   5.240   4.967  12.280 -0.1353 -0.0857  0.0002
31429W        W47503  12.677   0.940   2.363  0.1359 -0.2386 -0.1768
31430W        W47504  15.274   9.800   5.289  0.0126 -0.0529  0.0600
31431W        W47505   0.926   8.449   0.933 -0.0263  0.0357 -0.0827
31432W        W47506  15.574  13.418  14.069  0.1712 -0.0993 -0.0890
31433W        W47507  11.987  11.685   2.609  0.0583  0.1443 -0.0360
31434W        W47508  10.617  16.312   3.452 -0.4667  0.2139  0.0519
31435W        W47509   8.899   1.915   2.490 -0.0364  0.3192 -0.0660
31436W        W47510   0.569   7.427  15.053  0.0817  0.0154 -0.0111
31437W        W47511   4.082  15.983  15.493 -0.0706 -0.1633 -0.2459
31438W        W47512  16.737   0.561   1.552  0.0683 -0.0685 -0.0758
31439W        W47513   7.081   9.852   3.886 -0.3463 -0.1711 -0.2174
31440W        W47514   7.807   8.311  14.818 -0.2629 -0.3505  0.1359
31441W        W47515   5.419  10.342  12.273  0.1812  0.0376 -0.0793
31442W        W47516  13.699   9.569   5.786 -0.1474  0.0523 -0.0945
31443W        W47517   8.945   0.258   3.850  0.0747  0.4447  0.0264
31444W        W47518   9.945  15.672  15.590  0.1831  0.0529 -0.1751
31445W        W47519   1.999  11.145  15.727  0.1068 -0.2145 -0.1213
31446W        W47520  13.300   2.132   4.792  0.1742  0.0409 -0.1345
31447W        W47521  10.353   7.125  12.600  0.1067 -0.2503  0.0511
31448W        W47522  12.311  15.427   0.465  0.2858  0.0047 -0.2949
31449W        W47523  10.706   4.877   1.461 -0.0671  0.4472  0.1263
31450W        W47524  12.492  12.885   2.351  0.3786  0.0158 -0.0810
31451W        W47525  16.301   6.194   3.683  0.2794 -0.0662  0.1984
31452W        W47526  13.812   6.949   6.570  0.2187 -0.0213 -0.1799
31453W        W47527   5.264  16.428  16.173 -0.0792  0.1250  0.0723
31454W        W47528   1.370  15.762  16.228  0.0397  0.1143  0.1149
31455W        W47529  12.668   0.518   3.033 -0.0320  0.1870 -0.0685
31456W        W47530  16.388   8.023   1.459  0.2691  0.5288 -0.3238
31457W        W47531   2.605   0.144   3.462 -0.0579 -0.0056  0.1381
31458W        W47532  13.556   2.729   5.634 -0.0497 -0.0537  0.0249
31459W        W47533   1.790   6.214  14.007 -0.0758  0.1489 -0.0648
31460W        W47534   8.520   3.418  14.979  0.1491 -0.1340 -0.0148
31461W        W47535   0.906  12.546   3.475  0.5983 -0.3405  0.0369
31462W        W47536   4.399  16.178   5.673  0.0842 -0.1357  0.0882
31463W        W47537   3.461   7.236   0.933 -0.0794  0.0862  0.0102
31464W        W47538  14.894   8.644  16.382  0.2410 -0.2140  0.0031
31465W        W47539  14.139  11.255  16.345  0.2376  0.0990 -0.2417
31466W        W47540   5.391  11.266  16.156 -0.1676  0.1492 -0.1859
31467W        W47541   8.770  16.992  16.487 -0.2253 -0.0737  0.1620
31468W        W47542  10.051   3.208   1.057  0.1731 -0.1316 -0.0840
31469W        W47543  13.065   2.029  15.130 -0.2116 -0.0344 -0.1890
31470W        W47544   5.059   4.594   5.320 -0.0285 -0.0522  0.2045
31471W        W47545  14.812  12.951   1.167 -0.0528 -0.0249  0.1078
31472W        W47546  15.403   3.335   4.776  0.2681  0.1042  0.2049
31473W        W47547  13.389  15.923   2.958 -0.1291 -0.1173  0.1080
31474W        W47548  14.790  15.647  16.151 -0.3167  0.0244 -0.2392
31475W        W47549  11.094   0.213  14.376  0.4137 -0.0585 -0.2405
31476W        W47550  13.414  10.892  13.571 -0.0574 -0.1894  0.0335
31477W        W47551  15.037   5.535  12.374  0.2321 -0.4097  0.0476
31478W        W47552   1.870   1.818   2.536  0.3577 -0.1107  0.0697
31479W        W47553  11.610   1.208   2.158 -0.2428  0.3422  0.0969
31480W        W47554  14.108  14.219   2.783 -0.1130  0.1412  0.0180
31481W        W47555   6.461  17.016   0.495  0.0747 -0.1810 -0.3367
31482W        W47556   5.292   7.788  16.751  0.1246 -0.1921  0.0302
31483W        W47557  11.235  17.729  16.755 -0.0439  0.1099  0.0362
31484W        W47558   4.099  10.606   3.450 -0.0619  0.4728  0.0637
31485W        W47559   5.493   5.519  14.995 -0.2575  0.2891  0.2179
31486W        W47560  13.337  14.033  15.613 -0.0260 -0.2829 -0.0440
31487W        W47561   0.887   8.328  16.091  0.2362  0.0230 -0.0620
31488W        W47562  14.462   2.551   3.050  0.0098  0.0567  0.1579
31489W        W47563   9.697  16.097   2.667 -0.0739 -0.1802 -0.1090
31490W        W47564  14.471   4.746   0.620 -0.1676  0.0841 -0.1464
31491W        W47565   4.749   2.978   3.443 -0.1798 -0.2604  0.1081
31492W        W47566  11.281   3.668   0.957 -0.0792  0.0451 -0.2514
31493W        W47567  11.825  14.993   3.913 -0.1403  0.2469  0.0767
31494W        W47568   9.640   8.239  11.544  0.0631 -0.2888  0.1102
31495W        W47569   6.338   3.693   3.021  0.3242  0.1624  0.1292
31496W        W47570  14.127   2.159   2.974 -0.0665  0.1890  0.2493
31497W        W47571  13.064  16.547  15.186 -0.1693  0.2020 -0.1807
31498W        W47572  10.605  14.990  14.347 -0.3548 -0.0796  0.0532
31499W        W47573   1.595  13.995   2.834 -0.0238  0.1093 -0.0898
31500W        W47574  15.881   8.647  12.483  0.2876 -0.0770  0.0969
31501W        W47575   5.383   8.646   1.288 -0.0503  0.1608  0.4220
31502W        W47576  17.336   8.564   2.161 -0.1147  0.0126 -0.0975
31503W        W47577  11.682  11.202   1.082 -0.1881  0.1982 -0.0277
31504W        W47578  17.314   5.370  12.658 -0.0161 -0.1860  0.0177
31505W        W47579  15.224  13.460   4.304 -0.0980  0.1271  0.0327
31506W        W47580  14.076   0.207   1.876 -0.0844 -0.0411  0.1592
31507W        W47581   0.211  16.844   4.207 -0.0216  0.3155 -0.0550
31508W        W47582  13.654  17.129   1.165  0.1120  0.0385  0.0875
31509W        W47583  15.614  11.398   3.731  0.1418 -0.1572  0.0017
31510W        W47584   8.679  16.159  12.743 -0.2364 -0.2906 -0.0369
31511W        W47585   8.447  16.788   1.559 -0.1728  0.0418 -0.1753
31512W        W47586   3.497   6.088  12.612  0.3538  0.0176 -0.0305
31513W        W47587  11.734  10.941  16.303  0.1263  0.3394  0.0978
31514W        W47588   7.822  16.345  12.433 -0.1850 -0.3551 -0.2987
31515W        W47589  13.528   5.553  16.728  0.0807  0.1500  0.0743
31516W        W47590  10.074  10.200   4.519  0.2360  0.0318 -0.0206
31517W        W47591   1.310  13.546  13.965  0.1788 -0.0735  0.0469
31518W        W47592  12.802   0.738   1.423  0.1321 -0.0404  0.0648
31519W        W47593  12.605  10.223  12.318 -0.6208  0.0244  0.1478
31520W        W47594  12.908  14.683   2.814 -0.4071  0.1140 -0.0486
31521W        W47595   0.612  15.327   0.968 -0.1167 -0.0615  0.0239
31522W        W47596  10.990  13.120  12.600  0.0843  0.0441 -0.2175
31523W        W47597  11.966  11.016   1.743  0.0088 -0.1374 -0.1755
31524W        W47598  14.139   8.219   3.797 -0.0261  0.3725  0.2139
31525W        W47599   4.533   0.090  16.519  0.0935  0.1985 -0.3228
31526W        W47600  12.223   8.687   5.666  0.0687  0.1320 -0.0780
31527W        W47601  12.173  12.196   5.197  0.0194 -0.1028 -0.1723
31528W        W47602   0.673   8.481  15.639 -0.1622  0.1394 -0.1081
31529W        W47603  17.528  17.202  15.048 -0.0196  0.0066 -0.0133
31530W        W47604   2.207   8.754  14.498 -0.0492  0.2606  0.0899
31531W        W47605   3.508   2.579  12.762 -0.0142  0.3683 -0.0454
31532W        W47606   5.581  13.159   4.227  0.3274 -0.1640 -0.1655
31533W        W47607   3.586  15.244  11.828 -0.2438  0.0468 -0.2128
31534W        W47608  10.912   1.154  14.521  0.1000 -0.0075 -0.0930
31535W        W47609   0.712  10.809   1.993 -0.0404 -0.2676  0.1276
31536W        W47610   8.374   5.826   4.644  0.1140  0.0907  0.0879
31537W        W47611   5.075  12.407   4.587  0.0215  0.1250 -0.1800
31538W        W47612   0.424   5.856   5.511  0.0471 -0.2787  0.0948
31539W        W47613   7.767   1.273   4.228 -0.0077  0.0214 -0.2499
31540W        W47614  15.982   0.792  12.134 -0.1768 -0.0390  0.2445
31541W        W47615  16.182   7.095  13.461  0.0512  0.1711 -0.5489
31542W        W47616  13.404  15.881  15.021  0.0211  0.2905 -0.1159
31543W        W47617   8.277  13.336   4.717  0.1679  0.2229  0.0670
31544W        W47618  16.178   1.161   4.663 -0.0010  0.0846 -0.2304
31545W        W47619   4.646  12.784  11.830 -0.0130 -0.1487 -0.0306
31546W        W47620   9.051  10.051  14.914  0.1022  0.1390 -0.2683
31547W        W47621  13.871   2.945  13.660 -0.2892 -0.1646 -0.2602
31548W        W47622   1.148   9.637  13.318 -0.2368 -0.1504 -0.0726
31549W        W47623   1.122  14.314  15.161  0.2961  0.1399 -0.1872
31550W        W47624   2.140  15.791  15.051  0.3167  0.2478  0.0267
31551W        W47625   4.691  16.317   3.003  0.0412 -0.2142  0.1326
31552W        W47626  10.750   0.029   0.466 -0.1661  0.0046  0.2138
31553W        W47627  11.516  16.142   3.161 -0.1412  0.0233 -0.0093
31554W        W47628   3.467  16.086  12.801  0.0986 -0.1620 -0.0048
31555W        W47629   1.132   1.010   4.985 -0.2830 -0.1797  0.0325
31556W        W47630  13.680  11.163   2.053  0.1760  0.2240 -0.0459
31557W        W47631   8.675   9.878  12.526  0.0215 -0.1544  0.2753
31558W        W47632   9.135   4.942   1.869  0.0784  0.0035  0.1517
31559W        W47633   0.567   2.677  16.151 -0.0419 -0.1257 -0.0142
31560W        W47634  11.019   4.727   5.131  0.3191  0.0374 -0.2620
31561W        W47635   3.786  13.557  11.898 -0.0853 -0.1176 -0.0736
31562W        W47636   1.211  17.332  12.555 -0.0910  0.1088 -0.0982
31563W        W47637   1.087   7.690  13.403  0.2643 -0.0200 -0.0715
31564W        W47638   4.394   9.263  16.103  0.2274 -0.1650 -0.2502
31565W        W47639   7.226  16.948  16.862  0.0410 -0.0062 -0.0094
31566W        W47640  14.221   5.897  11.617 -0.1212 -0.1517  0.0276
31567W        W47641  17.258   4.242  14.063  0.0219 -0.1070 -0.0810
31568W        W47642   3.903   5.943   4.465  0.1841  0.0587  0.0924
31569W        W47643  14.609  13.445   1.966 -0.1438  0.0525  0.6031
31570W        W47644   8.093   9.868   0.281 -0.1076 -0.0653  0.0157
31571W        W47645   1.270   7.036  14.682 -0.2194  0.0858 -0.3524
31572W        W47646   9.879  15.381   3.306  0.1310  0.0886  0.0416
31573W        W47647  16.612  12.227   0.029 -0.0047  0.2936  0.0150
31574W        W47648  15.746   7.181  16.571 -0.2442 -0.1727  0.0317
31575W        W47649  17.832   6.726  12.008 -0.1052 -0.0429 -0.1807
31576W        W47650   3.345   2.249   3.575  0.1683  0.3362 -0.3907
31577W        W47651   2.347  15.566   3.663 -0.1535 -0.0339 -0.2557
31578W        W47652   0.428   7.005   5.550 -0.1036 -0.0625 -0.2983
31579W        W47653  16.937  17.066   1.255  0.1964 -0.0291 -0.0255
31580W        W47654  17.063   7.616  16.084 -0.2363  0.1578 -0.1175
31581W        W47655   9.880   7.104  15.589  0.1976  0.0572  0.1531
31582W        W47656   5.052  17.203  16.434 -0.0932  0.1980  0.0471
31583W        W47657   7.235  13.462  15.313 -0.1901 -0.0947 -0.3016
31584W        W47658   4.747   5.574  13.849  0.0341  0.1411  0.2861
31585W        W47659   1.327  15.284   0.115 -0.2595 -0.4965 -0.1633
31586W        W47660  14.575  10.228   0.588 -0.0377 -0.2508 -0.3181
31587W        W47661  16.394  13.286  12.255 -0.4098  0.1831 -0.0553
31588W        W47662   5.873   4.349   0.385 -0.0687  0.1183  0.0671
31589W        W47663   8.633   2.648   1.908 -0.2905  0.0210 -0.0021
31590W        W47664  11.265   8.387   6.302  0.0206  0.0092 -0.1131
31591W        W47665   5.012   5.179   4.416  0.3060 -0.4427 -0.2599
31592W        W47666   0.986   4.375  12.282  0.0895  0.0502  0.1516
31593W        W47667   5.388  15.559   0.926 -0.0620 -0.0814 -0.0163
31594W        W47668   6.277  13.506   1.442  0.0632  0.0943  0.1887
31595W        W47669  14.234  11.464   0.318  0.0445 -0.2441 -0.2166
31596W        W47670   8.211  15.919   4.287  0.0436 -0.3719 -0.0149
31597W        W47671  10.204  14.790   2.083  0.2318 -0.0464  0.0406
31598W        W47672  17.120   2.973  15.366 -0.2280 -0.1594 -0.3295
31599W        W47673  17.031  15.014  16.852 -0.3006  0.0472 -0.0446
31600W        W47674  17.031   5.306  13.567 -0.3272 -0.1100 -0.0428
31601W        W47675   8.842   0.091   0.877 -0.1963 -0.0451  0.2507
31602W        W47676   1.616   3.337   4.837 -0.1354  0.1677  0.2159
31603W        W47677   4.877   8.275   2.663 -0.0243  0.0328  0.0580
31604W        W47678  17.668   1.996   1.230 -0.0153 -0.2588 -0.0684
31605W        W47679  16.767   6.577  12.400  0.0487 -0.0104  0.0549
31606W        W47680  11.140  15.246   1.179  0.2569  0.0457 -0.0127
31607W        W47681   7.950  15.726   0.801 -0.1994  0.0880 -0.0785
31608W        W47682   3.261  15.441   5.598  0.1092 -0.1313  0.0223
31609W        W47683   2.895   1.992   3.608 -0.1696 -0.2453 -0.0150
31610W        W47684   8.784  12.801   5.183 -0.1685 -0.0659  0.1335
31611W        W47685  10.776   9.160  14.609  0.1477  0.0456  0.2219
31612W        W47686  10.040  13.733  13.577  0.3341 -0.0928  0.1920
31613W        W47687   9.461  14.067  16.426 -0.2472  0.1263  0.2421
31614W        W47688   2.171  17.609  14.322 -0.2675  0.1475  0.2855
31615W        W47689   2.706  17.232  11.700  0.2391  0.0391  0.2615
31616W        W47690   3.207   2.683   1.628 -0.2996  0.2818 -0.1387
31617W        W47691  13.655   0.834   1.392  0.0711 -0.1867 -0.1536
31618W        W47692  15.753   3.439  15.720 -0.2893  0.0152 -0.0053
31619W        W47693   8.059   4.582   2.887  0.0007 -0.1770  0.2083
31620W        W47694   7.659   5.789  16.457 -0.3130  0.1347  0.3395
31621W        W47695  14.994  16.319   3.699 -0.0468  0.0783 -0.2643
31622W        W47696   0.898  13.195  14.927 -0.3290 -0.0704  0.0170
31623W        W47697   4.927   8.329   5.107  0.0104  0.2769  0.0732
31624W        W47698  17.279   8.182   0.929  0.2049 -0.2350  0.0425
31625W        W47699  13.705   0.189   2.941  0.3007  0.0996 -0.0146
31626W        W47700  10.757   8.696  14.714 -0.1760  0.0628 -0.1755
31627W        W47701   7.914  13.088   3.716 -0.0501  0.1574  0.4154
31628W        W47702   9.348   1.422   1.351  0.1318  0.0544  0.0400
31629W        W47703  16.772   2.095   5.724  0.0815 -0.1334  0.1198
31630W        W47704  13.724  15.514  12.678 -0.2832  0.3193 -0.2436
31631W        W47705   5.364   2.425   1.804 -0.0343  0.1245 -0.2152
31632W        W47706  13.361  13.521  15.634  0.1517  0.2417 -0.1687
31633W        W47707  16.791  16.761  12.644  0.0505 -0.0202  0.0259
31634W        W47708  16.898  13.735  16.123  0.0367  0.1599 -0.0573
31635W        W47709   6.362  11.180  12.050  0.1005 -0.1178 -0.1086
31636W        W47710   2.992   3.361   3.833  0.1302 -0.1885 -0.3660
31637W        W47711   8.918   3.904  14.873  0.0983  0.1766 -0.1030
31638W        W47712  17.205   5.555   4.077 -0.1125  0.2482 -0.3833
31639W        W47713   4.275  17.327  11.684  0.1722 -0.0407  0.0836
31640W        W47714  16.132  12.522   0.650  0.1675 -0.0872  0.1343
31641W        W47715  15.266  12.031   4.810  0.2182 -0.3384 -0.2145
31642W        W47716  11.551  14.936  14.359 -0.1296 -0.1819 -0.3671
31643W        W47717   4.542   6.800   2.860  0.0460  0.0188  0.0847
31644W        W47718   6.681  16.698  13.130  0.1296 -0.3786  0.1790
31645W        W47719   0.339  13.215  15.492  0.0514 -0.1427  0.1672
31646W        W47720   3.734  12.309   4.665 -0.1294  0.1185 -0.1484
31647W        W47721  15.473  15.858  13.970  0.0030 -0.3740  0.2436
31648W        W47722  13.310   3.465  13.175 -0.1283 -0.3192  0.1102
31649W        W47723   8.107   7.036  16.697  0.2573  0.0515  0.1566
31650W        W47724  16.023  13.468   1.024  0.0808 -0.2009 -0.2769
31651W        W47725  15.356  15.349   4.732 -0.2818  0.0598 -0.1322
31652W        W47726   8.131   2.259   4.237 -0.1596 -0.2703 -0.1278
31653W        W47727   1.581  11.355   5.970  0.0766 -0.3702 -0.0212
31654W        W47728   4.584   4.735  14.683 -0.4463 -0.3474  0.0151
31655W        W47729   0.192   5.437   3.339  0.1921  0.2019  0.0626
31656W        W47730   8.326  13.977   0.838 -0.2208 -0.3184 -0.1640
31657W        W47731  16.035  13.619   4.734 -0.1274 -0.1656 -0.1028
31658W        W47732  17.351   3.566  14.056 -0.2207 -0.1470  0.1765
31659W        W47733   6.517   2.419  16.204 -0.0366 -0.3659 -0.0314
31660W        W47734   9.048  11.958  15.422  0.2775 -0.0325  0.0004
31661W        W47735  17.429  12.786   4.302  0.1109  0.0519 -0.0395
31662W        W47736   1.552  11.571   2.010  0.2363 -0.1654  0.3566
31663W        W47737   7.651  16.775   4.262  0.1381  0.0154  0.0000
31664W        W47738  12.957   4.180   5.759 -0.2705  0.4466 -0.3199
31665W        W47739  15.287  16.225   4.241  0.1269  0.2341 -0.0818
31666W        W47740   9.236  12.092   2.736  0.2299  0.1295  0.2412
31667W        W47741   3.060   2.712   1.108  0.0593  0.3024 -0.1596
31668W        W47742  12.348   4.788   5.205 -0.0026 -0.0424 -0.1524
31669W        W47743  14.412  16.428  13.336 -0.0132  0.1878 -0.0303
31670W        W47744  11.040  16.442  13.412  0.0554 -0.1161  0.0125
31671W        W47745  16.674   8.820   0.717  0.2172  0.0079  0.2647
31672W        W47746  17.272   1.927   5.762 -0.2324  0.1433 -0.0178
31673W        W47747  16.000   3.222  13.464 -0.0835 -0.1732 -0.1379
31674W        W47748  11.134  13.520  12.840 -0.4874  0.2752 -0.2293
31675W        W47749   7.951   2.313  12.795 -0.2266 -0.1335  0.0226
31676W        W47750  12.274  15.687  12.913 -0.1285  0.0507  0.2954
31677W        W47751  16.237  13.180  16.154 -0.1513  0.3331 -0.2705
31678W        W47752   3.255   7.783   1.530 -0.0452  0.4964 -0.1453
31679W        W47753   1.925  11.620  15.467  0.4410  0.4254 -0.0286
31680W        W47754  14.530   3.314   0.090  0.0739  0.2331 -0.0451
31681W        W47755   4.324   7.817   0.681 -0.3533  0.1414  0.0038
31682W        W47756  13.816   3.725  15.057  0.1166 -0.0504  0.2680
31683W        W47757   9.999   4.270  14.850 -0.0667 -0.2992 -0.0451
31684W        W47758   9.797   9.824   5.459  0.1398 -0.3927  0.0460
31685W        W47759  10.796   8.135   0.821 -0.3282  0.2283  0.3575
31686W        W47760   1.846  12.802  13.875 -0.2179  0.1595 -0.1015
31687W        W47761  14.273  16.079   1.702  0.1007  0.1991 -0.1545
31688W        W47762   5.496   4.627   0.123 -0.0207 -0.1450 -0.2594
31689W        W47763  11.765   3.866   2.958 -0.0217 -0.0380  0.2378
31690W        W47764   6.025   2.821   4.098 -0.2133  0.0799 -0.2471
31691W        W47765  15.692   9.126  13.700  0.1611  0.0864 -0.1028
31692W        W47766   1.143   1.510  14.000  0.1992 -0.2206 -0.1403
31693W        W47767   1.743   9.379  14.778  0.0630  0.1684 -0.2163
31694W        W47768   5.515   6.322   4.574 -0.1945  0.1852  0.0373
31695W        W47769  11.896   5.632  11.403  0.2539 -0.1283 -0.0854
31696W        W47770  16.462   1.416   1.342  0.1198  0.0736  0.0527
31697W        W47771  15.074   1.617  11.635 -0.1830 -0.1994 -0.0117
31698W        W47772   7.307   3.337   1.940 -0.0664 -0.0780  0.2980
31699W        W47773  17.280   8.144  14.751  0.1408  0.1269 -0.3030
31700W        W47774   0.195  15.666   4.382  0.3473 -0.2464 -0.2271
31701W        W47775  16.369   7.616   2.523  0.0318 -0.0875 -0.1805
31702W        W47776  13.028   8.770   5.945  0.0482  0.3526  0.0260
31703W        W47777  11.434   0.145  13.905 -0.2587  0.0565 -0.0660
31704W        W47778  12.811   2.900  13.659  0.0053 -0.3294 -0.1766
31705W        W47779   2.684  11.499   1.255 -0.0001 -0.0978 -0.0638
31706W        W47780   4.048   2.941  12.180 -0.0050  0.1229 -0.0144
31707W        W47781   9.607   1.407   5.179  0.0949  0.1186 -0.2184
31708W        W47782   2.043   9.372   0.328 -0.2432  0.1198 -0.0028
31709W        W47783   7.550   2.677   4.072  0.2385  0.1723 -0.2863
31710W        W47784  12.923  13.677   6.282 -0.0852 -0.0679  0.0276
31711W        W47785   3.375   1.571  14.653 -0.0788  0.0207 -0.1257
31712W        W47786   2.601   6.669  16.716 -0.0471 -0.3805  0.0018
31713W        W47787   1.393   2.682  14.117 -0.0660 -0.1809 -0.0503
31714W        W47788   0.242  13.132  16.012  0.0816 -0.0218 -0.0526
31715W        W47789   7.276   5.426   5.331  0.2236 -0.1139 -0.0350
31716W        W47790   6.058   6.575   3.142 -0.0436  0.1079  0.1617
31717W        W47791   3.996  15.237   0.511  0.0516 -0.0299  0.0871
31718W        W47792   8.457   3.896   0.831  0.4754 -0.1127 -0.2441
31719W        W47793   1.981  15.361   5.395 -0.1168 -0.0839  0.2019
31720W        W47794  14.058  16.808   5.895 -0.2736 -0.0967  0.2618
31721W        W47795  15.873  13.882  14.132  0.1293 -0.0462 -0.0836
31722W        W47796  17.013   1.934   1.993  0.2264 -0.1190  0.3018
31723W        W47797   6.974   7.582  14.287 -0.0433 -0.1366  0.3129
31724W        W47798  16.961  15.238   1.027 -0.1762  0.1571 -0.0582
31725W        W47799   2.543   9.338  13.166  0.2154  0.0031 -0.3911
31726W        W47800  11.610   5.061  16.694  0.1337 -0.1014 -0.0758
31727W        W47801  14.378   2.370   5.758 -0.0119  0.0791 -0.0783
31728W        W47802  11.168  13.626  11.924 -0.1895  0.2055 -0.2569
31729W        W47803   0.943  16.948  13.539 -0.1674  0.0904  0.1471
31730W        W47804   5.089   2.169   3.047  0.0345 -0.4363  0.0438
31731W        W47805  16.251  10.230   2.848  0.2286  0.0017 -0.1530
31732W        W47806   5.085   4.097  13.940  0.2786  0.0209 -0.3519
31733W        W47807   1.753  13.669   0.582 -0.0138 -0.1582  0.1762
31734W        W47808   4.845   9.279  13.520 -0.2150 -0.2745  0.0881
31735W        W47809   6.276  11.343  13.843 -0.1558  0.1434 -0.1250
31736W        W47810   4.874   2.370  13.235 -0.0801 -0.1158 -0.0299
31737W        W47811   8.296   4.799   4.622 -0.3026  0.0388 -0.1331
31738W        W47812  10.344  15.158   3.171 -0.0448 -0.3839 -0.0966
31739W        W47813  16.619   2.610   2.471 -0.1219 -0.1419  0.1103
31740W        W47814   3.517   8.664   4.351 -0.2303 -0.2784 -0.3171
31741W        W47815   2.006  14.080   2.576 -0.0827  0.1355  0.0938
31742W        W47816  11.233  10.668   0.193 -0.0867  0.0552  0.1344
31743W        W47817  13.058   0.974  12.939  0.2343  0.1993 -0.1370
31744W        W47818  12.879   8.735   3.746 -0.0814 -0.0266  0.1029
31745W        W47819   1.033   8.314  13.458 -0.1852  0.1120  0.0635
31746W        W47820   8.014   4.176   3.195  0.2928  0.0219 -0.2224
31747W        W47821  16.806   8.651   3.582  0.2771 -0.2538  0.0617
31748W        W47822  13.287   0.451   3.242  0.0987  0.0099 -0.0267
31749W        W47823  12.125   0.857   0.331 -0.0039  0.5935 -0.3588
31750W        W47824  13.009   8.240  13.588  0.0273  0.2451 -0.0046
31751W        W47825   4.819   4.588   6.301 -0.0700  0.2389 -0.2598
31752W        W47826  11.252  15.183   4.385 -0.1569 -0.1672 -0.0554
31753W        W47827  12.569   4.539  13.643  0.2355  0.2120 -0.1772
31754W        W47828   8.633  11.809   0.761 -0.0541 -0.1792  0.1763
31755W        W47829  12.567   9.739  15.053  0.0989  0.0581  0.1920
31756W        W47830   3.057   2.096  16.901 -0.2212  0.0243 -0.0180
31757W        W47831  17.570   4.736  11.604  0.0512  0.0054  0.0416
31758W        W47832   9.457   6.623   2.280  0.2104  0.2176  0.1820
31759W        W47833   1.392   8.663  13.614  0.1454 -0.0347  0.0762
31760W        W47834   2.218   1.063   4.610 -0.0255  0.0045 -0.0291
31761W        W47835   8.618   0.324   2.084 -0.0004  0.2306  0.1675
31762W        W47836   6.028   8.333   1.136  0.0290  0.0749 -0.1751
31763W        W47837  11.982  11.638  15.764 -0.4086 -0.0413  0.1618
31764W        W47838  14.784   7.869   2.524 -0.0763 -0.0440  0.0244
31765W        W47839  12.652  11.902   0.557 -0.4308  0.2859  0.1690
31766W        W47840  11.755   0.284   4.914 -0.2802 -0.2669  0.0909
31767W        W47841   3.260   1.206  11.643  0.3261  0.3075  0.0700
31768W        W47842  16.712   4.492  14.726 -0.0390  0.0177 -0.1236
31769W        W47843  14.356  12.507   4.068  0.0171 -0.0938 -0.0990
31770W        W47844   7.404   9.018  14.594  0.4385 -0.3474 -0.0221
31771W        W47845   5.315   0.077  10.578 -0.0947 -0.4492  0.0773
31772W        W47846   3.495   2.278  15.418  0.3416  0.3044 -0.1479
31773W        W47847   0.645   0.207   1.593 -0.1770 -0.1336  0.0372
31774W        W47848  16.469   6.874   4.228  0.1128  0.2154  0.2406
31775W        W47849  11.742  14.104   2.001  0.5259 -0.0567  0.1256
31776W        W47850   0.107   1.082   4.856  0.2098 -0.4065  0.1388
31777W        W47851  14.083   5.496   4.591 -0.2093  0.0765  0.1740
31778W        W47852   6.329   4.882   1.765  0.1476  0.2402  0.0488
31779W        W47853   6.516   5.972   4.954  0.1934  0.3585 -0.2334
31780W        W47854  16.727   3.352   6.672  0.1888 -0.1630 -0.0663
31781W        W47855  17.359   2.518  13.999 -0.2275  0.0898 -0.0945
31782W        W47856  13.914   6.592  16.825  0.1733  0.1025 -0.2511
31783W        W47857   0.644  12.860  11.937  0.1064  0.0391  0.2314
31784W        W47858   2.513   6.422  12.199  0.1672 -0.1884  0.2996
31785W        W47859   5.171   3.739   3.524 -0.1245 -0.2698  0.0805
31786W        W47860  12.449  11.835   0.080  0.2464  0.0140  0.1753
31787W        W47861  15.883  13.723  12.033  0.0890 -0.0379  0.0579
31788W        W47862   2.831   3.006  13.786 -0.1245  0.3557 -0.1653
31789W        W47863   9.321  16.463   2.699  0.0999  0.1261 -0.1074
31790W        W47864  15.927   9.688   5.520 -0.1887  0.2331 -0.0361
31791W        W47865   2.256  10.799  15.431  0.3141  0.2487 -0.3057
31792W        W47866   3.345  11.306  13.089  0.1121  0.1972 -0.0166
31793W        W47867  11.202  15.138   1.697  0.0252 -0.0541  0.3283
31794W        W47868  11.922  10.094   0.888  0.2369 -0.0134  0.2748
31795W        W47869  11.510   7.574   4.392  0.1573 -0.1178 -0.0469
31796W        W47870   9.872   8.627  16.128 -0.3254  0.0092  0.1332
31797W        W47871   9.474   3.057   2.378 -0.0334  0.0547  0.2203
31798W        W47872   6.113  13.857   2.197 -0.3812 -0.2731 -0.2598
31799W        W47873  17.193  16.155   3.382  0.2099 -0.1706 -0.1516
31800W        W47874   6.867  13.125  11.753  0.0168  0.0415  0.1808
31801W        W47875  13.947   1.021   4.567  0.0295  0.2003  0.3090
31802W        W47876   1.522  10.354  13.471  0.0243  0.2947 -0.3944
31803W        W47877  14.044  13.654   0.157 -0.0298 -0.1556  0.1915
31804W        W47878   1.074  11.779  15.237  0.0436 -0.0463 -0.0672
31805W        W47879  11.876   4.939   4.775 -0.2308 -0.0767  0.4890
31806W        W47880  14.330  13.772   4.130 -0.1016  0.1356 -0.1875
31807W        W47881   9.610   2.242  12.068 -0.0143 -0.3070 -0.1472
31808W        W47882  11.010  15.956  15.111  0.1749 -0.0973 -0.0965
31809W        W47883   5.008  16.691   3.352 -0.2947  0.3467 -0.0829
31810W        W47884   9.463  15.851  15.544 -0.3013  0.0744 -0.2566
31811W        W47885   3.919   9.003  14.521 -0.0208 -0.2370 -0.0625
31812W        W47886   1.779   5.661   4.895 -0.1848 -0.0078 -0.1268
31813W        W47887   7.970   6.400  12.279 -0.1140  0.0516  0.0441
31814W        W47888   2.540  12.960  15.190  0.0140  0.0937  0.2111
31815W        W47889   7.560   3.947  16.663 -0.0309  0.4504  0.0677
31816W        W47890   7.578  15.032  16.222  0.1930 -0.0725  0.1035
31817W        W47891   2.009  13.270  15.353 -0.1318  0.1281  0.0254
31818W        W47892  17.681  13.089   5.785 -0.2282 -0.0009  0.1233
31819W        W47893   7.579   2.638   4.584 -0.0135  0.1328 -0.3537
31820W        W47894  11.177  16.873  12.363  0.1129  0.0176  0.1031
31821W        W47895  15.542   5.700   4.458 -0.1969 -0.0980 -0.1028
31822W        W47896   7.532  15.998   1.073  0.1958  0.0477 -0.0949
31823W        W47897   0.406   9.182  14.817  0.0242 -0.2508  0.2835
31824W        W47898   4.913  11.094   1.326  0.0219 -0.0282 -0.0402
31825W        W47899   7.982   5.680  16.014 -0.4255  0.0938  0.2908
31826W        W47900   9.566   5.896  13.976 -0.3218  0.0220 -0.2078
31827W        W47901   7.154  13.471   1.129  0.0475 -0.0975 -0.1159
31828W        W47902   6.134   4.660   4.734 -0.0869  0.1336 -0.0950
31829W        W47903  11.681  14.668  15.716 -0.0069 -0.0879  0.2887
31830W        W47904  15.101   5.617  11.847  0.1391  0.0282  0.1855
31831W        W47905   2.072  13.166   4.659 -0.2657 -0.3508 -0.2930
31832W        W47906   5.519  16.562   0.068  0.2603  0.0395  0.1997
31833W        W47907   0.813  11.232   4.553  0.0273 -0.0228 -0.0965
31834W        W47908  10.299   9.061   2.632 -0.1872 -0.0549  0.0937
31835W        W47909   5.335   3.641   4.930  0.2593 -0.0193  0.0693
31836W        W47910   9.842  13.219  13.040 -0.2635 -0.1295 -0.0596
31837W        W47911  16.541   3.955   3.252  0.0004 -0.1397  0.3763
31838W        W47912   8.000   7.594  16.429  0.1095 -0.0599 -0.1088
31839W        W47913   9.847   8.157   2.512 -0.2731  0.1098  0.1087
31840W        W47914   9.012   4.421   5.536  0.2773 -0.2419  0.4517
31841W        W47915   8.334  16.549   0.524 -0.0010 -0.0461  0.3440
31842W        W47916   7.010  15.938   2.424  0.0644 -0.1245  0.0998
31843W        W47917  11.357   3.581  16.698 -0.1003 -0.1789 -0.2503
31844W        W47918  16.351   1.184   6.022  0.3060 -0.1598 -0.3085
31845W        W47919  10.113  16.849   2.438  0.0526  0.1294  0.2362
31846W        W47920   8.504   5.574   4.127  0.1667  0.1552  0.0370
31847W        W47921   9.252   2.595   4.101  0.1095  0.2666 -0.0271
31848W        W47922   1.909   4.669   3.673 -0.3113  0.1963  0.4367
31849W        W47923   3.133  10.028   2.445 -0.2260 -0.0947 -0.0304
31850W        W47924   2.628   4.016   6.415  0.0218  0.2220 -0.1192
31851W        W47925   9.658  12.282   2.560  0.0775  0.1189  0.0849
31852W        W47926   6.015  12.545   0.104  0.0734  0.2362  0.1210
31853W        W47927  14.923  16.585  15.773 -0.1705 -0.1691  0.2108
31854W        W47928  12.731  14.344   3.127 -0.2066 -0.1353  0.1102
31855W        W47929  11.666  17.038  13.018 -0.1045 -0.2253 -0.0890
31856W        W47930   9.761  13.604   3.778 -0.0300  0.1037 -0.1818
31857W        W47931   5.759  12.287  12.957 -0.0734  0.0477 -0.0287
31858W        W47932   3.995   0.560   1.007 -0.0897  0.5281  0.2089
31859W        W47933   7.651   4.453  12.694  0.0045 -0.0686 -0.1386
31860W        W47934  15.811   9.423   1.747 -0.0910 -0.3120 -0.0699
31861W        W47935   5.132   9.450   1.539 -0.3752 -0.0732 -0.3551
31862W        W47936   2.461   5.929  16.223 -0.2252  0.0567 -0.0679
31863W        W47937  10.181  17.002   0.377 -0.1782  0.2292 -0.3705
31864W        W47938   7.300   9.638   3.324 -0.1444 -0.1047 -0.0834
31865W        W47939   3.412  13.619   4.237  0.0383  0.1981 -0.0203
31866W        W47940   8.212  11.292   5.440 -0.3308  0.0230 -0.0155
31867W        W47941  15.140  10.083  14.764  0.1790 -0.1914  0.2649
31868W        W47942  13.229   0.451  15.408 -0.0055 -0.2888  0.2749
31869W        W47943  16.284   5.240   5.338 -0.0561 -0.3047  0.1934
31870W        W47944  15.353  12.423  15.108  0.1376  0.0549 -0.0950
31871W        W47945   9.720  16.077   0.488 -0.1338 -0.3324  0.0288
31872W        W47946   4.970   1.629  15.763 -0.0743  0.0519  0.2713
31873W        W47947  15.771  17.317   2.461  0.0981 -0.3453 -0.0541
31874W        W47948  16.986  10.134  13.850 -0.2388  0.4371  0.1846
31875W        W47949   6.317  11.601   5.315 -0.0168 -0.1322 -0.0650
31876W        W47950   1.564   7.949   5.326 -0.0845  0.0499 -0.2669
31877W        W47951   7.881   0.217   1.353 -0.0278 -0.1342 -0.0743
31878W        W47952  14.988  15.437   6.286 -0.0454  0.1082 -0.0433
31879W        W47953   7.526   1.671   5.382  0.1626 -0.1567  0.1656
31880W        W47954   0.514   5.727  11.821 -0.2120 -0.2064 -0.0359
31881W        W47955   3.719  17.606  16.066 -0.3392 -0.1152 -0.2639
31882W        W47956   0.080  14.201   5.166 -0.0112  0.0533  0.1855
31883W        W47957  17.414  11.623   6.321  0.3204  0.1570 -0.1963
31884W        W47958   1.658   3.278  11.945 -0.0921  0.3174 -0.1961
31885W        W47959  17.207   2.578   3.625 -0.0175 -0.0144  0.0658
31886W        W47960  13.100   7.992  11.608 -0.1594 -0.2678  0.0555
31887W        W47961   5.214   6.773   0.416  0.0538 -0.1575  0.0377
31888W        W47962   5.922   3.012  14.579  0.0878 -0.0105 -0.0707
31889W        W47963   8.806   4.508   4.600 -0.0172 -0.0906  0.0586
31890W        W47964  12.298   1.786   0.052  0.1360  0.1735  0.1932
31891W        W47965  11.736   9.664  15.131 -0.2697 -0.0506 -0.0058
31892W        W47966   7.771   4.101   2.277 -0.0644  0.2695  0.0711
31893W        W47967   5.080  12.907   2.074 -0.1072 -0.1140  0.4485
31894W        W47968   7.817   8.946  14.872 -0.0304  0.0936  0.0237
31895W        W47969   6.562   9.866   4.737 -0.0890  0.0044  0.1568
31896W        W47970   9.737  11.944   4.532  0.0028  0.0266  0.0565
31897W        W47971  14.112   2.905  15.574  0.1434  0.1424 -0.1284
31898W        W47972  11.523   1.901  13.313  0.3581 -0.0349 -0.0574
31899W        W47973  16.558   6.600   0.197  0.2093  0.0082  0.1130
31900W        W47974  12.902   4.338   4.774  0.1301  0.2123  0.1950
31901W        W47975   5.756   4.892  16.776 -0.1694  0.3640 -0.2435
31902W        W47976  16.512  13.538  15.848 -0.0639  0.0148  0.2471
31903W        W47977  16.957   1.373  15.252  0.2891  0.1382 -0.1962
31904W        W47978  12.346  17.243  15.513 -0.1649  0.1620 -0.0187
31905W        W47979  14.959   2.014  12.614  0.1303  0.0303 -0.1721
31906W        W47980  11.601   9.383   1.378 -0.0668  0.1296  0.0855
31907W        W47981  12.156   1.002  11.298 -0.0270 -0.3729 -0.1442
31908W        W47982   9.277  17.302   4.196  0.0355  0.0060  0.0605
31909W        W47983   9.949   6.474  13.433 -0.0274  0.4189  0.1845
31910W        W47984   0.955   2.540   4.564 -0.2472  0.1253  0.1594
31911W        W47985  12.775   7.055  12.927 -0.0331 -0.0722 -0.1973
31912W        W47986   6.283   9.732  14.407 -0.4337  0.2773 -0.2647
31913W        W47987  11.694   6.391   3.876 -0.0035 -0.2113 -0.1985
31914W        W47988   2.898  12.511   5.888  0.1000  0.4256 -0.1304
31915W        W47989   1.486  17.703  15.925  0.0198  0.1651 -0.0192
31916W        W47990   1.953  16.508   5.092  0.2115 -0.0865  0.2033
31917W        W47991   3.768   2.052  14.863  0.0144  0.0759  0.0305
31918W        W47992   0.504  12.025   1.434 -0.1485 -0.1351  0.0473
31919W        W47993   2.127   2.536   4.701 -0.1805  0.0176 -0.2285
31920W        W47994  14.473  17.466  16.915  0.2869 -0.2674  0.0652
31921W        W47995   1.920   1.627  15.527 -0.1620 -0.0561 -0.1398
31922W        W47996   8.502  14.109  15.598 -0.2247  0.0651  0.0211
31923W        W47997  12.517   5.229  13.909 -0.3619  0.0880 -0.2836
31924W        W47998  15.183   3.088  14.565 -0.0162  0.0541  0.1775
31925W        W47999   6.120  16.270  14.490  0.0375 -0.4717 -0.0320
31926W        W48000  15.110   6.433   2.026  0.1808  0.3557  0.0235
31927W        W48001  12.328  16.090   4.462 -0.2151 -0.1687  0.1631
31928W        W48002  15.848   0.992   3.979  0.1621 -0.3233  0.0860
31929W        W48003  11.045  10.700  12.032  0.5180  0.1463 -0.1205
31930W        W48004  10.043   4.065   0.574 -0.3157 -0.2930  0.2517
31931W        W48005  15.175   5.859  16.368  0.0169  0.2964 -0.3036
31932W        W48006   1.839  10.733  11.801 -0.0940 -0.1848 -0.0723
31933W        W48007   5.120  17.395  14.098 -0.3040 -0.1211  0.0106
31934W        W48008   9.691   4.961  14.645 -0.1439 -0.1194 -0.1092
31935W        W48009   5.817   6.420   1.499  0.0683  0.0798  0.0345
31936W        W48010   5.886   5.566   1.142  0.1696 -0.0986  0.2571
31937W        W48011   8.388   4.948   1.372 -0.0306 -0.1696  0.0152
31938W        W48012   2.405   4.970  12.382  0.1583  0.0174  0.1904
31939W        W48013   6.520   5.718  13.221  0.2097  0.2830  0.0860
31940W        W48014   7.761   0.071   2.550  0.0996 -0.0184  0.2349
31941W        W48015   8.524  12.053  12.690 -0.3278 -0.1262  0.0128
31942W        W48016   9.938  14.411   6.241 -0.2728  0.2100  0.2786
31943W        W48017   4.578   8.163   2.134 -0.0594  0.0123  0.0348
31944W        W48018   2.958  10.559   2.673 -0.2736 -0.0234  0.1473
31945W        W48019   1.764   9.001   4.123  0.0053  0.1699  0.0761
31946W        W48020   6.790  11.046  12.736 -0.2201  0.1619 -0.0948
31947W        W48021  13.820  10.462  16.926  0.2511 -0.1053  0.1564
31948W        W48022   1.678  16.156  16.519  0.0922  0.0312 -0.2931
31949W        W48023  11.561   1.516   1.031  0.3120  0.1207 -0.1811
31950W        W48024   7.067  11.854  15.973  0.3078  0.2139  0.0129
31951W        W48025   8.335   1.648   1.120 -0.1668  0.2350  0.2261
31952W        W48026  12.600   8.880  15.885 -0.2683  0.0951 -0.0931
31953W        W48027  10.844   3.588  15.734 -0.0381  0.0400  0.1372
31954W        W48028   8.202  11.833  15.916  0.0291 -0.1041  0.0713
31955W        W48029  11.162   5.873   5.310  0.2682  0.2732 -0.0301
31956W        W48030  10.485  13.326   5.926 -0.1470 -0.3128 -0.0996
31957W        W48031   5.659   3.802  16.896 -0.0649 -0.4942  0.2063
31958W        W48032  15.777   6.684   6.175 -0.4494  0.0035  0.0775
31959W        W48033   8.145   4.461  12.551  0.0342 -0.1100 -0.0817
31960W        W48034  12.290   1.637  13.536  0.2784  0.2120  0.0389
31961W        W48035  12.388   4.360   3.679 -0.3109  0.1691  0.0789
31962W        W48036   1.146   0.156  13.339 -0.1897 -0.0945  0.1251
31963W        W48037   6.871   7.766  11.674  0.2173  0.1280  0.0108
31964W        W48038   3.311  16.947  13.968 -0.0357 -0.2254 -0.1119
31965W        W48039   9.487   9.672  14.775 -0.0096 -0.0668 -0.1910
31966W        W48040   4.133   6.761   4.937 -0.1994 -0.0665  0.0066
31967W        W48041   5.749   9.039  13.899  0.0034  0.3743 -0.3232
31968W        W48042   4.516  13.889  16.926  0.1175 -0.2947  0.2240
31969W        W48043   9.605   0.374  16.092 -0.0441 -0.3358  0.2999
31970W        W48044  13.417   4.014  16.406  0.1340 -0.3171 -0.0403
31971W        W48045   4.359   6.815  13.482 -0.1447 -0.2436 -0.0938
31972W        W48046  11.707   8.847   2.632  0.0884  0.0402 -0.2297
31973W        W48047   9.375  13.991   3.731 -0.1512  0.2032 -0.3158
31974W        W48048   5.248  17.231  14.915  0.0600 -0.1108  0.1101
31975W        W48049   6.731   7.859  12.664 -0.1187  0.2103 -0.1376
31976W        W48050   5.993   4.131   0.911 -0.0136  0.2269 -0.2037
31977W        W48051   3.938  14.387   1.838 -0.1843  0.0633 -0.2492
31978W        W48052  14.490  14.644  13.436  0.1607 -0.1502  0.0979
31979W        W48053   6.051   9.888   2.443  0.0264  0.0253 -0.0047
31980W        W48054  10.502   2.081  13.901  0.1341  0.0264  0.0287
31981W        W48055  14.783   4.886  15.254  0.2549  0.1303 -0.2196
31982W        W48056  15.711   7.073   0.109  0.0695 -0.1510 -0.0274
31983W        W48057  12.244  10.727  15.533  0.2766  0.1828 -0.2986
31984W        W48058  12.135  13.009   1.232  0.0442 -0.2218 -0.2658
31985W        W48059   9.808  15.858   4.070 -0.0896  0.0051  0.4022
31986W        W48060  11.451  10.759  15.022  0.1192 -0.1424  0.1305
31987W        W48061  11.635   1.444   4.046  0.1445  0.0437  0.1711
31988W        W48062  13.473  15.419  14.554  0.2672 -0.2512  0.4955
31989W        W48063  16.377  17.110  12.553 -0.0966 -0.1428  0.2149
31990W        W48064  16.391   3.414  12.606  0.0602 -0.1485 -0.0255
31991W        W48065   0.890  12.307   4.943  0.1505 -0.0307  0.1147
31992W        W48066  12.612   0.940  13.185  0.2441  0.0504 -0.0852
31993W        W48067  16.087  10.045  16.475  0.0508 -0.1415 -0.2130
31994W        W48068   7.494   7.307   6.358 -0.0239  0.1102  0.0253
31995W        W48069   4.912   9.261   6.014 -0.2984  0.0915  0.0380
31996W        W48070  11.989  16.648   1.569  0.2782 -0.1850  0.1935
31997W        W48071   1.301   5.169   5.467  0.0112 -0.2177  0.0678
31998W        W48072  11.660   2.888   3.886  0.2160 -0.0454  0.0064
31999W        W48073   4.297  12.047   4.815 -0.1958  0.1579 -0.1358
32000W        W48074   0.063  16.985   5.795  0.0894  0.0101 -0.0502
32001W        W48075   4.190  14.802   4.180 -0.2118  0.1896  0.2418
32002W        W48076  11.007   2.069  14.168 -0.0047  0.1250 -0.1486
32003W        W48077   5.923   3.244  15.005  0.0741 -0.2410 -0.0148
32004W        W48078   1.940   9.462   1.097 -0.1056  0.1920 -0.1406
32005W        W48079   6.890   6.729  16.949 -0.2161  0.2732  0.0726
32006W        W48080  16.255   5.974  15.277 -0.4901 -0.0851  0.0029
32007W        W48081   9.001  12.913   0.082 -0.1089  0.0737  0.2955
32008W        W48082  17.626   1.213   3.417  0.0566 -0.0571  0.1256
32009W        W48083   1.877   6.937   4.110  0.3773  0.1278 -0.0814
32010W        W48084   4.745   4.553   3.644  0.3833 -0.0960  0.0005
32011W        W48085  16.458   7.275   4.570 -0.2711 -0.0435 -0.2479
32012W        W48086   7.990   0.207   0.529 -0.2505  0.0238  0.1948
32013W        W48087  17.494   1.427   2.146  0.1572 -0.3277  0.0718
32014W        W48088  15.287   3.349   0.807 -0.0740 -0.4241  0.0936
32015W        W48089  11.270   6.705   4.395  0.1280  0.1798 -0.3606
32016W        W48090   7.243   2.668  15.091  0.0821 -0.1842  0.0044
32017W        W48091  12.160   3.319   0.820 -0.2779 -0.0377 -0.0956
32018W        W48092  17.603   8.119   0.496 -0.0790  0.1240  0.0115
32019W        W48093   6.316  13.332  14.141 -0.0431 -0.0354 -0.0723
32020W        W48094   3.062   9.176   4.205  0.0994 -0.1763  0.2442
32021W        W48095   6.462  12.442  13.681  0.1741  0.3154 -0.2024
32022W        W48096  11.482   6.573  12.607  0.1405 -0.0063 -0.1006
32023W        W48097   8.045   1.017   4.503 -0.1807 -0.0267 -0.0018
32024W        W48098  10.843   4.071  11.928  0.0490  0.2140  0.0650
32025W        W48099  14.902  11.703  16.227  0.0969 -0.2540 -0.0630
32026W        W48100   3.985  15.698   3.342  0.3174  0.4091 -0.1193
32027W        W48101   2.496  16.713   2.214 -0.0857 -0.1034 -0.0401
32028W        W48102  12.499  10.348   1.954 -0.0779  0.1537  0.1894
32029W        W48103  16.006  12.896  14.852  0.0450  0.0149 -0.0897
32030W        W48104  16.875   4.357   0.164 -0.0433 -0.0564  0.0298
32031W        W48105  13.407  17.255   2.918 -0.4135  0.0247  0.0079
32032W        W48106  12.471   5.948  15.190 -0.1080  0.0523  0.0154
32033W        W48107  16.474  12.346  12.092  0.1612  0.2473  0.1090
32034W        W48108   2.491  15.972   1.766 -0.0173  0.1310 -0.4321
32035W        W48109  16.109  11.331  12.820  0.1063 -0.1021  0.0642
32036W        W48110   9.347   8.947   0.328 -0.0406  0.1573 -0.0856
32037W        W48111   8.314  15.214   4.044  0.1003 -0.0476  0.0933
32038W        W48112   6.978   8.232  14.050  0.1628 -0.3086 -0.1605
32039W        W48113   3.816  16.141   0.369  0.1215 -0.2776  0.0791
32040W        W48114  11.891   6.463  11.935 -0.2411 -0.1823  0.4776
32041W        W48115   9.834   8.346  14.643 -0.2694 -0.0312  0.2757
32042W        W48116   7.550   3.413  14.187  0.1471 -0.0802  0.0279
32043W        W48117   0.611   7.371  14.368  0.1471  0.0679 -0.4053
32044W        W48118  17.780  13.506   0.746 -0.2660  0.2294  0.2439
32045W        W48119  15.913   0.142  15.382  0.0924 -0.1579  0.1289
32046W        W48120   9.818   4.619  15.683  0.1789 -0.3314 -0.0320
32047W        W48121  13.524   4.821   3.931 -0.1399 -0.0640 -0.1544
32048W        W48122   0.929   3.551  15.155  0.0643  0.3729  0.3545
32049W        W48123  12.407  11.560  13.312 -0.1141  0.0301 -0.0718
32050W        W48124   2.639   8.530  13.014  0.0550  0.0047  0.2565
32051W        W48125  14.836   6.007   1.898 -0.0107  0.0735  0.1155
32052W        W48126   6.175   4.097   2.460 -0.1381 -0.0580  0.1663
32053W        W48127   9.049  15.675   3.568 -0.0733 -0.1590 -0.3357
32054W        W48128  17.369  17.405  11.686 -0.2131 -0.0636 -0.0877
32055W        W48129  17.726   5.513   1.147  0.2018 -0.2068 -0.2985
32056W        W48130   8.434   0.021   3.122 -0.2080 -0.2329 -0.1661
32057W        W48131   6.281   6.219  13.171 -0.0424 -0.1201 -0.2771
32058W        W48132   7.386  16.909  14.477  0.1908  0.1316  0.1605
32059W        W48133   4.373   7.563   1.084  0.0371 -0.2935  0.0708
32060W        W48134  14.457   1.395   4.238 -0.0100 -0.3286  0.2383
32061W        W48135  11.634  13.173   1.053  0.1888  0.2227 -0.0113
32062W        W48136   8.244  11.553   2.290 -0.2226 -0.3885 -0.0099
32063W        W48137  15.283   1.769   1.980  0.0100 -0.0127 -0.1336
32064W        W48138   9.542  15.169   3.008  0.2474 -0.5210 -0.1642
32065W        W48139  12.368  11.558  16.160 -0.0079  0.2042 -0.2076
32066W        W48140   4.552  15.471   2.570  0.0600 -0.1953  0.0050
32067W        W48141   2.552  11.702   5.120  0.0156  0.2778  0.1574
32068W        W48142   1.552   1.176  16.245 -0.2249  0.0364 -0.0866
32069W        W48143   5.418  15.735  14.645 -0.1296 -0.0209 -0.0566
32070W        W48144   4.334   7.013  16.838  0.0197 -0.2580 -0.0723
32071W        W48145   2.269   9.428  12.464 -0.4171  0.1384 -0.0331
32072W        W48146   4.736   3.100  16.931 -0.2142 -0.0560  0.3436
32073W        W48147  12.465  10.204   4.922  0.1966  0.4117 -0.1636
32074W        W48148  17.679   6.581   0.227  0.0545  0.2310 -0.0020
32075W        W48149  11.274  16.988   3.335  0.1392  0.0176 -0.0856
32076W        W48150   5.342   8.970  13.222  0.2813 -0.0321  0.1203
32077W        W48151   0.395   0.080  15.260  0.3245 -0.0757  0.3376
32078W        W48152   0.113   9.405   5.166  0.0481 -0.3242 -0.0394
32079W        W48153  10.135   3.554   0.054 -0.0253 -0.1999 -0.2937
32080W        W48154   5.177  15.356  14.386  0.3569  0.1559 -0.2344
32081W        W48155   4.042  10.164  15.388 -0.0500 -0.0055  0.0233
32082W        W48156   9.971   9.666   0.068  0.1027  0.2632  0.2384
32083W        W48157  13.332  17.218  15.586  0.4245  0.0742  0.0352
32084W        W48158   6.096  12.971   3.906 -0.2595  0.2921  0.1088
32085W        W48159  16.848  17.287   6.587 -0.3403 -0.2090  0.1886
32086W        W48160   9.279   0.788  15.167  0.0113  0.2301  0.1339
32087W        W48161  15.814   3.110   1.082 -0.2344  0.2851  0.0311
32088W        W48162  11.953  16.256   3.384 -0.1220 -0.3265 -0.2714
32089W        W48163  12.945  16.081   6.211  0.2311  0.1533 -0.3102
32090W        W48164   0.393  11.462  16.323  0.0405  0.0698 -0.1393
32091W        W48165   9.342   7.687  14.032 -0.1120  0.0045  0.0656
32092W        W48166  10.785   5.473   2.198  0.1091 -0.1567  0.0137
32093W        W48167   1.112  16.394   1.297 -0.1908 -0.0161 -0.1002
32094W        W48168  15.570   4.908   1.308  0.0723  0.2251 -0.0876
32095W        W48169   1.263  12.816  12.698  0.1676  0.1549  0.0755
32096W        W48170   8.139   5.086  16.273  0.3791 -0.1824 -0.2661
32097W        W48171  14.914  12.174  14.964 -0.2313 -0.1258 -0.0798
32098W        W48172   5.668   0.603   3.341 -0.1777 -0.2457 -0.1000
32099W        W48173  11.598  10.189  13.176  0.1813  0.3701  0.0639
32100W        W48174   8.406   0.469  11.436 -0.0754 -0.0966 -0.2365
32101W        W48175   0.205  17.145  11.808 -0.2924  0.1249  0.3269
32102W        W48176   1.628   2.127   6.311 -0.1473 -0.1148 -0.0465
32103W        W48177   3.091  17.254  12.702 -0.0002  0.1093  0.0102
32104W        W48178   9.352  10.496   2.889 -0.4316  0.0173  0.1523
32105W        W48179   5.165   7.877   0.819  0.2254 -0.0371  0.0870
32106W        W48180  13.811   7.714  12.041  0.0596 -0.3611 -0.2321
32107W        W48181  10.224   9.192   3.922  0.0022  0.2261  0.0307
32108W        W48182   7.168   8.721   5.322 -0.1861  0.3423  0.1702
32109W        W48183   3.831  15.170   0.007 -0.1408 -0.0046 -0.2054
32110W        W48184  16.980   2.416   3.176  0.3179  0.0370  0.1155
32111W        W48185  10.945  13.411  16.310 -0.1444  0.1706  0.1164
32112W        W48186   1.157   7.549  12.654  0.2425  0.1060  0.1412
32113W        W48187  16.931   1.548  16.402 -0.0557  0.0112 -0.4554
32114W        W48188   6.654  17.052   1.389  0.2137  0.2054 -0.0050
32115W        W48189   5.125   5.013  14.579 -0.0886  0.0235 -0.0538
32116W        W48190   4.767  11.530   2.320 -0.1638  0.0259 -0.1744
32117W        W48191   4.905   2.169   1.676 -0.0611  0.0768  0.0360
32118W        W48192  10.184   6.335   4.919  0.1567  0.1864  0.0713
32119W        W48193  15.334  10.315  11.851 -0.1411 -0.0139  0.2029
32120W        W48194   6.695   7.763  16.394 -0.0338  0.0700 -0.2300
32121W        W48195  16.067  17.368  12.274  0.2524 -0.1912 -0.3251
32122W        W48196   9.427   8.677   5.870  0.3051 -0.0953  0.1538
32123W        W48197  12.205  13.163   0.728  0.0096 -0.2499 -0.1359
32124W        W48198  11.624   1.703  12.834 -0.0603 -0.1524  0.0074
32125W        W48199  11.392   8.672  12.560 -0.2609 -0.0099  0.0977
32126W        W48200   4.064   0.030   0.870 -0.1560 -0.1202 -0.2159
32127W        W48201   6.210  10.414   3.726 -0.0830 -0.2622  0.0113
32128W        W48202  17.589  15.858   3.679  0.0472  0.0792  0.3732
32129W        W48203  16.298   1.814  13.387 -0.1138 -0.1690  0.1843
32130W        W48204  17.613   1.601   5.986 -0.2167  0.4576 -0.2850
32131W        W48205   7.492   3.127  15.123  0.1450 -0.0347  0.3680
32132W        W48206   2.759  10.724  14.132  0.1991  0.2400  0.0394
32133W        W48207   4.747   8.647  15.597  0.3311 -0.0749  0.0158
32134W        W48208  12.773   5.010  13.493  0.0285  0.4840  0.0036
32135W        W48209   5.345  13.915   0.086 -0.1795 -0.0223 -0.1441
32136W        W48210  13.687   3.369   1.929  0.0619  0.0124 -0.0812
32137W        W48211   0.341   3.399   1.292 -0.0970  0.2169  0.2261
32138W        W48212   9.097  11.524   1.915  0.0037  0.0408 -0.0911
32139W        W48213  12.058   6.163   4.101  0.1822 -0.0318  0.0986
32140W        W48214   8.812   3.216  15.814 -0.1427  0.2479 -0.3499
32141W        W48215  11.003   4.612  14.951  0.0945 -0.1097  0.1176
32142W        W48216   4.289  11.667   2.503  0.0021 -0.2212  0.1036
32143W        W48217   2.976  12.533  14.118  0.2131 -0.0131  0.1782
32144W        W48218  13.277   3.457   4.170  0.0285 -0.0338 -0.0398
32145W        W48219   5.949   1.247   1.403  0.0047  0.1900  0.1014
32146W        W48220   9.663  16.473  12.801  0.0215 -0.2026 -0.2219
32147W        W48221  11.552   5.366   2.001  0.1524  0.0244 -0.1933
32148W        W48222   2.539  14.669   0.547 -0.2539  0.0876  0.0621
32149W        W48223   4.517  10.208   4.649  0.1921 -0.0160 -0.0744
32150W        W48224  13.325  14.014  13.596  0.0809 -0.0467  0.0738
32151W        W48225  12.113   9.777  11.048 -0.0445 -0.3147 -0.2394
32152W        W48226   1.126   5.201   1.026 -0.2152 -0.2539 -0.0142
32153W        W48227  10.259   2.600   1.554 -0.2579 -0.1470 -0.0980
32154W        W48228  11.683  16.984   2.943  0.0482  0.1045  0.0822
32155W        W48229   9.462  17.579  14.065  0.0877 -0.2469 -0.0011
32156W        W48230  16.544   1.979  12.797 -0.1429 -0.0315 -0.1502
32157W        W48231  12.301  12.765  14.251 -0.1884 -0.0143 -0.0919
32158W        W48232   3.652  10.817   3.401 -0.0906 -0.1511 -0.0539
32159W        W48233  16.495  13.063  14.925 -0.0975  0.0175  0.2107
32160W        W48234  13.854   2.962  14.216 -0.1148  0.0657  0.1098
32161W        W48235  10.370   0.927  16.699  0.0000 -0.2211  0.0206
32162W        W48236  15.850   8.109   3.069 -0.4855  0.1539  0.1101
32163W        W48237   6.631  16.830   4.309 -0.0013 -0.0015 -0.0417
32164W        W48238   6.973  15.344   0.636 -0.0551 -0.0607  0.2611
32165W        W48239  14.625  14.520   0.339  0.3728  0.0279  0.0456
32166W        W48240   2.865   0.256   1.826  0.1383 -0.1282  0.2088
32167W        W48241  12.854   0.147  13.889  0.1235 -0.2764  0.2446
32168W        W48242   2.353  10.800   5.259 -0.0100 -0.2343  0.0655
32169W        W48243   4.911  14.206  10.873  0.2776  0.0541  0.0436
32170W        W48244  13.994  16.542   3.053  0.0408 -0.2795 -0.1090
32171W        W48245   9.242   5.873   4.248 -0.1314  0.0718  0.5813
32172W        W48246  10.893  13.566   2.204 -0.2306 -0.1850 -0.2654
32173W        W48247   5.205   3.622   3.025  0.1205  0.0708  0.3522
32174W        W48248   5.487  12.910  16.741 -0.1962 -0.1288  0.1890
32175W        W48249  16.961   6.740   5.703  0.1132  0.2976 -0.0102
32176W        W48250  15.051   2.853  15.482  0.0407 -0.2084  0.2238
32177W        W48251   3.881   0.945  10.300  0.1560 -0.0320 -0.2191
32178W        W48252   2.234  17.568  11.800 -0.1261 -0.0484  0.0222
32179W        W48253   6.362   1.680   5.218  0.0168  0.3470 -0.0022
32180W        W48254   3.164  16.458  13.987 -0.0150  0.0539  0.0274
32181W        W48255  10.062   9.681   1.614 -0.0720 -0.1159 -0.2880
32182W        W48256   2.848   5.306   0.314  0.1202  0.2025 -0.1856
32183W        W48257   5.219   1.467   4.653  0.1692 -0.0387  0.2510
32184W        W48258   9.605   6.065   0.415 -0.1022  0.1393 -0.1146
32185W        W48259  13.441  17.647   1.404  0.0290  0.1471 -0.2986
32186W        W48260  14.693   9.601   0.312  0.2191 -0.1018  0.0894
32187W        W48261   4.858   1.863  13.086 -0.0565 -0.3412 -0.1477
32188W        W48262   0.463   0.272  12.111 -0.2509 -0.0804  0.1596
32189W        W48263  11.793  12.419   3.160  0.2029  0.0484 -0.0933
32190W        W48264  12.819   0.207  15.078 -0.2029  0.1919  0.0657
32191W        W48265   8.566  17.825   1.309 -0.1871 -0.2368 -0.0835
32192W        W48266  12.110   4.521  13.503 -0.1363 -0.0713 -0.1132
32193W        W48267  12.708  14.416  14.946  0.3144 -0.2038  0.1540
32194W        W48268  13.829   4.660   1.480  0.0462 -0.0044  0.2697
32195W        W48269  16.643  10.809   2.338 -0.1737 -0.0723 -0.0503
32196W        W48270  13.067  17.431   2.112  0.2607 -0.0524 -0.3171
32197W        W48271  12.455   3.008  14.938 -0.0642 -0.1505  0.0589
32198W        W48272  17.186  11.497   4.802  0.4146 -0.1650  0.1003
32199W        W48273   4.925  16.874  15.050  0.0824  0.0536 -0.0790
32200W        W48274  15.474   3.075   2.262  0.1393  0.0385  0.0571
32201W        W48275  13.301  13.712   3.130  0.2753  0.2153 -0.1757
32202W        W48276  11.397  11.648   0.925  0.0828 -0.0235  0.0765
32203W        W48277   5.843  16.564   3.912 -0.0559  0.1736  0.0016
32204W        W48278   5.785   0.709   1.556 -0.1749 -0.1865 -0.1352
32205W        W48279  11.290   4.055  16.836 -0.0362 -0.1360  0.3271
32206W        W48280  14.358  16.795  16.523  0.1942  0.1909  0.2350
32207W        W48281   1.544  16.829  14.299 -0.0708  0.0735 -0.2794
32208W        W48282   9.322  11.993   2.228  0.0079 -0.1993 -0.2417
32209W        W48283  16.867  15.876  12.293  0.1567 -0.0993 -0.0881
32210W        W48284  16.886   3.595  16.220  0.1238 -0.4132  0.0390
32211W        W48285   1.495   0.427   1.095 -0.0405 -0.0350 -0.1694
32212W        W48286  17.186   0.613  15.609 -0.1462 -0.1605  0.0264
32213W        W48287   5.221   8.046  15.359 -0.0102  0.0750 -0.1942
32214W        W48288  11.182  16.753   1.015  0.0350  0.0624 -0.1560
32215W        W48289  15.924   8.748   1.900 -0.0550  0.1481 -0.1299
32216W        W48290   4.035   2.638   0.190  0.3469 -0.0721  0.1610
32217W        W48291   8.648   4.595  11.676  0.1479 -0.2580  0.0819
32218W        W48292   6.644  16.909   4.792  0.1906  0.0477 -0.2480
32219W        W48293  10.455  10.687   4.470  0.0896 -0.3273  0.4574
32220W        W48294   6.221   4.174   4.279  0.1114 -0.0374  0.1563
32221W        W48295  13.539   9.736   3.519 -0.0199  0.3736  0.2375
32222W        W48296   1.433  15.244   4.570 -0.0639 -0.2715 -0.0535
32223W        W48297   1.110   3.593  13.149  0.1943 -0.3594  0.1058
32224W        W48298  11.118   4.722   0.724 -0.0135  0.0041  0.0504
32225W        W48299  11.067  16.111  11.667  0.2898  0.0168  0.3252
32226W        W48300   2.397   4.305  14.414  0.0398 -0.0801 -0.0931
32227W        W48301  14.660   9.242   5.617 -0.1979  0.0403  0.3857
32228W        W48302  14.449   5.694  16.146  0.1103 -0.0925 -0.1129
32229W        W48303  12.614   8.572  16.748 -0.1110 -0.1632  0.2737
32230W        W48304   3.447  17.636   6.166 -0.0010  0.1903  0.1529
32231W        W48305   1.458  13.972  13.640  0.2074  0.0028  0.1540
32232W        W48306  12.929  11.315   5.335 -0.1453  0.0456  0.1463
32233W        W48307   1.243   8.340  12.951  0.3573 -0.1143 -0.0887
32234W        W48308   3.040   5.555   5.347 -0.0866  0.2783  0.0081
32235W        W48309  17.143  15.062   3.292 -0.2430  0.0615  0.0886
32236W        W48310  16.205  16.741  13.350 -0.1528 -0.0504 -0.3158
32237W        W48311  17.357  12.845   1.365 -0.0853  0.2885  0.1026
32238W        W48312   1.336  12.789  16.822  0.0034 -0.0568 -0.2179
32239W        W48313  14.339   3.759   5.855 -0.2001 -0.2747  0.1195
32240W        W48314   8.306   9.171  13.726  0.0822 -0.3391  0.4111
32241W        W48315  12.358  12.332  12.872  0.2957 -0.1005  0.1149
32242W        W48316   6.675   1.144  16.039 -0.1349 -0.0117  0.3256
32243W        W48317   9.071   0.581   1.998 -0.0379  0.4072  0.0471
32244W        W48318   8.208  14.509  15.599 -0.2027 -0.1085  0.0784
32245W        W48319  15.812   7.877   4.159 -0.0319  0.1108 -0.0850
32246W        W48320   3.559   1.618  16.214  0.1492  0.0162 -0.2805
32247W        W48321  13.562   8.070  16.407  0.3322  0.0368 -0.2230
32248W        W48322   0.312   0.674   3.915 -0.0306  0.4098 -0.1378
32249W        W48323   3.408  16.357  14.759  0.1180  0.1261 -0.2868
32250W        W48324   0.437   3.843   0.711 -0.0985 -0.1129 -0.0644
32251W        W48325   4.857  12.322  13.208 -0.1997 -0.2193 -0.0817
32252W        W48326   0.920  15.434   4.659 -0.2603  0.1457  0.1535
32253W        W48327  10.968  13.388  15.467 -0.2155  0.0909  0.1417
32254W        W48328   5.478   0.055  16.693  0.1369 -0.1152 -0.0875
32255W        W48329   2.832   1.507   3.616 -0.0867 -0.2929 -0.0930
32256W        W48330   9.927   4.862   4.997  0.3860 -0.4161  0.0438
32257W        W48331   9.653  10.522   0.305  0.0355 -0.0807  0.1812
32258W        W48332  11.770   1.259   5.373 -0.1706 -0.1365  0.1339
32259W        W48333  13.556   7.651   0.626  0.1423  0.1678 -0.1927
32260W        W48334   1.409  15.822   3.425 -0.0463 -0.0037  0.5237
32261W        W48335   9.953   1.555  14.926  0.2082 -0.1609 -0.0334
32262W        W48336  12.797   8.690   1.706  0.0285 -0.0196  0.3640
32263W        W48337  10.156  17.568   2.838  0.0627 -0.3238 -0.1704
32264W        W48338   4.993   3.454   2.490 -0.2688 -0.0555  0.0604
32265W        W48339  10.060   2.617  15.196  0.1308 -0.2494 -0.1945
32266W        W48340  14.606  11.650  14.681  0.1093  0.2746 -0.1486
32267W        W48341   0.031  13.161  14.608 -0.1292 -0.0206 -0.0294
32268W        W48342   2.565   7.035   4.729  0.1429  0.1441  0.2642
32269W        W48343  11.167   5.885   3.258 -0.0342 -0.0120  0.0703
32270W        W48344   9.125  16.833   2.200  0.2461 -0.1866  0.3358
32271W        W48345   6.528  12.064  14.518 -0.3925  0.1489 -0.2876
32272W        W48346   5.324   3.695  14.692  0.1865  0.2957  0.2616
32273W        W48347  15.893  13.205  12.086 -0.0169  0.1573  0.2275
32274W        W48348   8.008   1.540   0.784 -0.0203  0.0268  0.0122
32275W        W48349   5.907  13.677  15.192 -0.2555  0.1492 -0.0416
32276W        W48350  11.146   7.190   4.185  0.1211 -0.2115  0.2943
32277W        W48351   4.407   8.803   5.514 -0.0511  0.1077 -0.1175
32278W        W48352  12.528   0.216   2.104  0.2051  0.0142 -0.0654
32279W        W48353   5.682  16.435   5.258  0.0814 -0.0148  0.2932
32280W        W48354  10.617  10.701   3.152 -0.0360  0.1926  0.1093
32281W        W48355  17.203   0.920   5.250  0.0327 -0.5167 -0.0489
32282W        W48356  15.680  13.158   0.084  0.0878  0.0256  0.2387
32283W        W48357   6.414   7.520   4.918  0.1000  0.4065 -0.1275
32284W        W48358   2.807  11.550  15.103 -0.0130 -0.2157 -0.0622
32285W        W48359   0.377   7.896  14.247  0.0182  0.1408  0.1197
32286W        W48360   2.647   8.031   3.114 -0.2263 -0.1122 -0.1585
32287W        W48361  16.262  16.539  15.738 -0.2277 -0.2263  0.4278
32288W        W48362   8.554   2.726   0.825  0.1751 -0.1002 -0.1931
32289W        W48363   4.489  15.769  11.564  0.0752 -0.2471  0.2230
32290W        W48364   9.368  13.840   3.255 -0.0572 -0.0832 -0.1796
32291W        W48365  17.488  17.102   1.246 -0.0153  0.3283  0.0085
32292W        W48366   3.345  10.567   0.426 -0.1541  0.0964  0.2329
32293W        W48367  15.457   3.671   5.676 -0.3032  0.4730  0.1686
32294W        W48368   4.405   3.800  14.654 -0.2170  0.2424 -0.0235
32295W        W48369  14.329   9.518   4.500 -0.1928 -0.0300 -0.0236
32296W        W48370  14.313   1.789  13.713 -0.2920 -0.1636  0.2289
32297W        W48371  12.396   8.847   0.116 -0.0623 -0.1713 -0.0837
32298W        W48372   4.218   8.098   5.509  0.0331  0.2325 -0.1479
32299W        W48373   7.878  17.319   3.705  0.0300  0.1635  0.2390
32300W        W48374  14.449   9.091   0.222  0.2035  0.2916 -0.0564
32301W        W48375  11.256   2.737  11.727  0.0882 -0.0196 -0.1009
32302W        W48376   2.483  11.248   5.886 -0.0084 -0.1528 -0.1627
32303W        W48377   9.456   0.417   1.395  0.0276  0.3796  0.0035
32304W        W48378   3.696   4.364   5.557  0.2288 -0.1827 -0.2118
32305W        W48379   5.612  16.869   5.516 -0.1134  0.2166  0.0774
32306W        W48380  14.017   8.910   5.087 -0.1529  0.0339 -0.0720
32307W        W48381   3.333  10.102   4.024  0.0082 -0.2459 -0.2940
32308W        W48382   4.142   7.827   2.283  0.1679 -0.0809  0.0832
32309W        W48383   6.735  11.276   5.292  0.2557 -0.0141 -0.1503
32310W        W48384   9.696   5.660   0.103 -0.0782  0.2510 -0.1642
32311W        W48385   7.083   0.237   0.578  0.3562 -0.5265 -0.0323
32312W        W48386  10.896  11.626   1.023 -0.1735 -0.1667  0.1441
32313W        W48387   5.835  16.282   2.399  0.2144  0.2217  0.1238
32314W        W48388   5.564   1.220  12.968 -0.0799 -0.0569 -0.4785
32315W        W48389  11.908  10.808   1.326  0.0961  0.0159  0.0276
32316W        W48390   0.774  13.892  12.535  0.1253  0.2012 -0.0510
32317W        W48391  13.365   2.802  14.972 -0.2875 -0.2048 -0.2731
32318W        W48392   6.513  13.798   2.644 -0.0720 -0.2430  0.0917
32319W        W48393  14.679   5.722   3.433  0.0634 -0.2164 -0.0608
32320W        W48394  13.821   4.803  15.298 -0.1825  0.0057  0.2769
32321W        W48395   3.450   9.274  16.807 -0.1355 -0.0097  0.1600
32322W        W48396   5.110  14.434   5.081  0.0521 -0.0084  0.3572
32323W        W48397   4.319   1.338   1.499 -0.1689  0.0677  0.0486
32324W        W48398  11.389   9.632  14.332  0.0742 -0.2694 -0.1476
32325W        W48399   4.520   9.971   1.001  0.0895  0.1525 -0.1826
32326W        W48400   4.242   2.964  15.206  0.1032  0.1070  0.5425
32327W        W48401   5.096  12.521  14.450 -0.0353  0.6117  0.2527
32328W        W48402   3.269  10.957   2.706  0.1882  0.2701  0.1263
32329W        W48403   4.769   7.624   0.703  0.1420  0.1151  0.0800
32330W        W48404  10.300   9.968   3.021 -0.0946 -0.0091  0.0255
32331W        W48405   8.419  15.289  12.168 -0.1169  0.0015  0.1594
32332W        W48406   9.011   4.774  11.320  0.2226 -0.1832  0.1454
32333W        W48407   8.109  17.490   0.734 -0.1027  0.2245  0.0451
32334W        W48408  10.405  12.602   2.642 -0.1579 -0.1345  0.2293
32335W        W48409   5.308  15.807  14.086 -0.0662 -0.0459 -0.1869
32336W        W48410   1.582   4.504  12.748  0.2393  0.0452  0.0482
32337W        W48411   7.098  13.259   3.161 -0.0013  0.0664 -0.1753
32338W        W48412   3.240   3.920   4.327 -0.3612 -0.0585  0.0068
32339W        W48413  13.911  10.893   4.756 -0.1926  0.0432 -0.2285
32340W        W48414   0.875   0.261   2.357  0.0203  0.0331  0.0379
32341W        W48415   5.971   5.684  14.982  0.1780  0.3898 -0.1572
32342W        W48416   9.203   2.941  11.434 -0.0454  0.0732 -0.1643
32343W        W48417  10.973   9.630   5.506  0.4555  0.0699 -0.0540
32344W        W48418  11.473   3.912  13.974 -0.2004 -0.0561  0.0299
32345W        W48419  17.351   2.822  14.968  0.0411 -0.2113  0.0137
32346W        W48420  10.196   3.994   3.439  0.3468 -0.1703 -0.0645
32347W        W48421   8.035   4.234   0.742  0.1146  0.0808 -0.4011
32348W        W48422  16.302   7.105   1.179 -0.1311  0.2659 -0.1410
32349W        W48423   3.395   0.659   4.877  0.0860 -0.0976 -0.1559
32350W        W48424  10.578  12.430   5.510 -0.3593  0.1408 -0.0450
32351W        W48425   9.082   9.090  12.143 -0.1380  0.0610  0.1261
32352W        W48426   0.661   1.907   0.308  0.0139  0.1041 -0.0172
32353W        W48427   6.083   7.091  14.925 -0.1655  0.0549  0.0174
32354W        W48428   4.303   9.224  14.798  0.1936 -0.2474 -0.0715
32355W        W48429  10.903   0.946  12.139  0.3394 -0.1061 -0.2309
32356W        W48430   4.209  14.015   5.109  0.2369  0.0160 -0.0836
32357W        W48431  16.210  15.355  13.229 -0.1129 -0.0944 -0.2825
32358W        W48432   7.624  15.233   2.920 -0.0823 -0.1155  0.1952
32359W        W48433  12.980  14.907  14.394 -0.2012  0.2418 -0.0788
32360W        W48434  17.584   8.336  13.706 -0.3687 -0.0195 -0.2549
32361W        W48435   4.962  16.292  15.781  0.0096  0.1830  0.4239
32362W        W48436   4.698   3.974  15.832  0.0033  0.1718  0.0192
32363W        W48437   3.080  10.126   4.467 -0.4219 -0.2698  0.2521
32364W        W48438   7.278   0.687  11.277 -0.1859  0.1395 -0.0781
32365W        W48439  14.058  10.768  14.076  0.1233 -0.1335 -0.5066
32366W        W48440   0.111   7.075   5.962 -0.0936 -0.0648 -0.1614
32367W        W48441   4.599  11.781   5.232 -0.2203  0.1799  0.1479
32368W        W48442   8.811   8.233  16.308  0.0346  0.2501 -0.0761
32369W        W48443   4.251   0.994  16.179  0.3358 -0.1623  0.0132
32370W        W48444   6.040   4.603  16.468  0.2857 -0.2113 -0.0962
32371W        W48445   9.820  12.009  11.919  0.2758 -0.1521  0.2559
32372W        W48446   9.495  10.455  15.510  0.2225 -0.2849 -0.3526
32373W        W48447  15.865   1.978   5.021  0.1420  0.2226  0.0951
32374W        W48448  11.482   6.274   2.097 -0.0896  0.1436  0.0992
32375W        W48449   5.731  10.773   5.853 -0.2042 -0.1085 -0.2878
32376W        W48450   0.596   0.994   5.027 -0.0294 -0.3153 -0.1881
32377W        W48451  14.942  10.461   3.006  0.1668 -0.0387 -0.0832
32378W        W48452  11.008  13.976   5.022 -0.3039  0.0008  0.0066
32379W        W48453   4.685   7.900   4.829  0.0059  0.0900 -0.2430
32380W        W48454  13.637   3.292   1.110 -0.0565 -0.0808  0.0625
32381W        W48455  14.147  14.925   2.335  0.0947  0.0782  0.2645
32382W        W48456   5.940   3.799  13.182  0.0944  0.2385 -0.0491
32383W        W48457   3.884  13.145  12.212  0.2377  0.1119  0.2066
32384W        W48458   5.623   7.877  16.358  0.2042 -0.3381 -0.1037
32385W        W48459   4.439  14.395   0.046  0.1082 -0.1086 -0.1848
32386W        W48460   5.533  16.608  14.942  0.1337 -0.1269 -0.1160
32387W        W48461  12.840  17.177   5.498  0.1253 -0.1033  0.3606
32388W        W48462  12.347   2.468  16.686 -0.4098 -0.3171 -0.0879
32389W        W48463   6.152  15.445   6.342 -0.0285  0.1766 -0.0820
32390W        W48464   7.912  17.554   0.304  0.0242  0.0839 -0.0149
32391ION     NA48465  10.147   1.281   5.905 -0.1730 -0.0820 -0.1805
32392ION     NA48466   5.593   4.330  10.844 -0.1559 -0.1558  0.2647
32393ION     NA48467   6.568   2.913   6.214 -0.0229 -0.0338  0.1864
32394ION     NA48468  17.254  11.232  10.825  0.0955  0.0243  0.5335
32395ION     NA48469  17.438  10.972   6.157  0.0512 -0.0855  0.0754
32396ION     NA48470   0.366   0.021   5.709 -0.3523 -0.2840 -0.0884
32397ION     NA48471   8.630  17.754  10.672  0.1088  0.2779  0.4012
32398ION     NA48472   1.265  16.012  10.576 -0.0705 -0.3400 -0.1099
32399ION     NA48473   6.268   7.327  12.261  0.0409 -0.2538 -0.0888
32400ION     NA48474   8.891  10.922  11.206 -0.0229 -0.2810  0.3529
32401ION     NA48475  17.216   0.689   3.768 -0.1265  0.2474 -0.0921
32402ION     NA48476  11.118   3.807  10.984 -0.0380 -0.1339 -0.1879
32403ION     NA48477   3.086  15.225  10.630 -0.0514  0.0211 -0.0556
32404ION     NA48478  17.776   4.539  16.003 -0.0199 -0.1156  0.1241
32405ION     NA48479   6.031   7.574   0.950  0.1207 -0.2234  0.1881
32406ION     NA48480  11.358  12.045  11.458  0.2302 -0.1361  0.1747
32407ION     NA48481  14.219   0.784  11.667  0.1509  0.0563  0.2033
32408ION     NA48482   8.080   1.556   5.374  0.0623 -0.1985 -0.2531
32409ION     NA48483  13.372   8.778  11.172 -0.0491 -0.0222 -0.1419
32410ION     NA48484   3.728   4.962  12.500 -0.1474 -0.2546  0.0098
32411ION     NA48485   5.831   1.377   0.429 -0.3450 -0.1441  0.2070
32412ION     NA48486  12.954   7.890   0.331 -0.1322 -0.1599  0.1285
32413ION     NA48487   9.303  15.163  10.692 -0.1265  0.0745  0.0233
32414ION     NA48488   3.082   7.281  10.994 -0.1072 -0.0470  0.0568
32415ION     NA48489  17.785   2.176  10.981 -0.1652  0.3230 -0.0015
32416ION     NA48490  15.404  10.779   4.931  0.4271 -0.0453 -0.0561
32417ION     NA48491  10.585  15.264   3.732  0.3559  0.0561 -0.1143
32418ION     NA48492   7.030   3.288   3.556  0.3047 -0.1792 -0.1657
32419ION     NA48493   0.923   5.678   0.220  0.2148  0.1430  0.2550
32420ION     NA48494   8.036  15.629  10.639 -0.2400 -0.1421 -0.0017
32421ION     NA48495  12.685  13.562  10.947 -0.0470  0.0356 -0.2493
32422ION     NA48496   2.826  15.570   3.454 -0.0628  0.0768  0.1736
32423ION     NA48497   1.011   7.161   3.416 -0.1087 -0.0078 -0.0209
32424ION     NA48498   3.778  17.625   2.050  0.0533  0.0405  0.0529
32425ION     NA48499  12.855  12.806  10.723 -0.4378 -0.0645  0.2293
32426ION     NA48500  10.797   4.540   6.487  0.1046  0.1905  0.0955
32427ION     NA48501   1.163   3.235   6.442  0.3229  0.0262 -0.1368
32428ION     NA48502  16.699  13.235   3.164 -0.0620  0.0282 -0.0153
32429ION     NA48503   4.644   0.771  10.720 -0.2546 -0.2546  0.1923
32430ION     NA48504  13.340  17.824  11.315  0.1151 -0.1600 -0.2308
32431ION     NA48505  16.469   6.513   2.323  0.0212 -0.2137 -0.0833
32432ION     NA48506  13.183   2.590   3.200 -0.2112 -0.0407  0.0348
32433ION     NA48507  15.234   6.146  10.741  0.0994  0.3237 -0.0040
32434ION     NA48508  12.697   6.704  10.699  0.0083  0.1690 -0.1649
32435ION     NA48509   6.313   2.653  16.727  0.2511  0.0232 -0.2221
32436ION     NA48510   3.403   4.570   6.009  0.0880  0.1778  0.0849
32437ION     NA48511  10.182   5.172  10.629 -0.1118  0.0261 -0.1341
32438ION     NA48512  14.148  17.159   6.305 -0.0135 -0.0283 -0.0879
32439ION     NA48513   5.660  10.281  10.940  0.1367 -0.1872 -0.1283
32440ION     NA48514   3.336  10.024   1.925 -0.0930 -0.3281 -0.0033
32441ION     NA48515   6.171   1.368  10.546 -0.1029  0.0638 -0.3735
32442ION     NA48516  16.815  15.728   6.521  0.1528  0.0288  0.0076
32443ION     NA48517  12.667   8.959  10.602  0.1580  0.1939 -0.1269
32444ION     NA48518   8.742  11.386  11.333 -0.0416 -0.1783 -0.0289
32445ION     NA48519   2.226   9.325  11.077 -0.2436  0.4169  0.0085
32446ION     NA48520   4.507   7.146  11.842 -0.1237 -0.1900 -0.0235
32447ION     NA48521   4.797   3.915  10.930 -0.0405 -0.1611 -0.0246
32448ION     NA48522  13.071   2.275   6.344  0.3923 -0.1391  0.1519
32449ION     NA48523   7.775  13.597  10.727  0.1863  0.1730 -0.2579
32450ION     NA48524   4.336  11.372   5.982  0.0442 -0.0303  0.0894
32451ION     NA48525   2.272  17.352  16.578 -0.0131  0.1290  0.0838
32452ION     NA48526   4.558   1.203   1.939  0.3440 -0.1187  0.0375
32453ION     NA48527   3.066   0.988   1.291 -0.0076 -0.2991 -0.2986
32454ION     NA48528   4.023  10.649   1.109 -0.0647  0.1149 -0.0173
32455ION     NA48529  11.835  16.868   6.304  0.1950  0.0209 -0.1228
32456ION     NA48530  13.878   8.125  10.769  0.3000  0.0254 -0.0880
32457ION     NA48531  12.077   8.243  15.192  0.2269 -0.0403  0.1094
32458ION     NA48532  15.822  12.449  10.870 -0.1615  0.0106  0.0498
32459ION     NA48533  15.083   8.791  11.445 -0.0727  0.1129  0.0020
32460ION     NA48534  10.658   7.345  15.222  0.2872  0.1005  0.3295
32461ION     NA48535  14.658   8.922   2.262  0.2693 -0.1290  0.0957
32462ION     NA48536  11.993   8.570  11.949  0.1568  0.5956 -0.0849
32463ION     NA48537   9.081   2.906   1.275  0.0370  0.3609  0.1211
32464ION     NA48538   4.383   3.142  10.731  0.0857 -0.0076 -0.3579
32465ION     NA48539   5.964   5.158  10.978 -0.0608 -0.2822  0.1364
32466ION     NA48540   1.522   6.129  11.007 -0.0653  0.1636  0.1845
32467ION     NA48541  12.524   0.321  11.052 -0.3050 -0.1262  0.0206
32468ION     NA48542  15.761  17.440  11.297  0.0619 -0.0262  0.0678
32469ION     NA48543  13.572   1.025   6.231 -0.2686 -0.3351 -0.0833
32470ION     NA48544  12.626   7.021   3.301  0.0012  0.0592 -0.0621
32471ION     NA48545   1.851  13.373  10.809 -0.0857 -0.1877  0.2354
32472ION     NA48546   2.036   8.828  11.250 -0.1787  0.3823 -0.0921
32473ION     NA48547  11.303   5.117  13.433  0.0467 -0.2576 -0.0249
32474ION     NA48548  11.719   2.428  13.607 -0.2489  0.2726 -0.2936
32475ION     NA48549   1.049   3.055   4.115  0.1279  0.1862  0.0794
32476ION     NA48550   3.624   7.904   6.162  0.0596 -0.0841 -0.0687
32477ION     NA48551  11.300   7.340  10.807  0.2885  0.2096  0.0306
32478ION     NA48552   3.350  10.219   6.127  0.1365  0.2335  0.1654
32479ION     NA48553  11.033   2.945  11.316 -0.0512  0.2029  0.1212
32480ION     NA48554   7.868  10.161  11.291 -0.1252  0.2558  0.0998
32481ION     NA48555   9.151  17.062  10.711  0.0283 -0.0146 -0.0638
32482ION     NA48556   4.081   9.642  11.804  0.1124 -0.0208  0.1765
32483ION     NA48557   6.441   4.488  10.559  0.2008  0.2303  0.3734
32484ION     NA48558  10.898   5.669  10.728  0.0325 -0.2185 -0.0331
32485ION     NA48559  15.821   6.783   0.599 -0.0702 -0.0218  0.3494
32486ION     NA48560  16.025  15.069  10.877  0.0869 -0.0134  0.2449
32487ION     NA48561   9.324   0.775  16.412  0.2819 -0.0131  0.1498
32488ION     NA48562  16.738   8.193  12.862  0.1757 -0.0222 -0.0944
32489ION     NA48563   1.449   0.091  10.699  0.2178  0.3669 -0.2077
32490ION     NA48564   5.060  11.885  10.812  0.0919 -0.1590 -0.2065
32491ION     NA48565  10.601   2.376  10.806  0.0817  0.1178  0.1392
32492ION     NA48566   4.405   6.078   5.825  0.2702 -0.0555  0.0745
32493ION     NA48567  12.964  15.735  10.967  0.2481  0.0717  0.2578
32494ION     NA48568  14.816  15.672  11.867 -0.1906  0.2623 -0.0277
32495ION     NA48569   0.205   1.131  12.253  0.2737 -0.1962  0.0931
32496ION     NA48570   0.865   7.864  11.080  0.0441  0.1690 -0.2405
32497ION     NA48571  14.215  17.845  11.851  0.3034 -0.2668  0.0655
32498ION     NA48572   8.624  14.102  10.884 -0.1239 -0.0210  0.0585
32499ION     NA48573   5.756   3.805   6.406 -0.0220 -0.0576  0.0836
32500ION     NA48574  15.809  11.493  11.033 -0.0487  0.0611  0.1454
32501ION     NA48575  11.994  11.225  10.833  0.0174 -0.0085  0.1750
32502ION     NA48576  15.332   2.457  10.844  0.1337  0.2861 -0.4986
32503ION     NA48577   4.895  16.502  11.814 -0.2814  0.0749 -0.2525
32504ION     NA48578   5.024   2.871   2.575 -0.0339  0.2551 -0.2409
32505ION     NA48579  13.302  17.647   4.071 -0.2174  0.1670 -0.0090
32506ION     NA48580   1.445   8.984  15.500  0.1460  0.1685 -0.0762
32507ION     NA48581   9.463  11.483   2.252  0.3158 -0.0730  0.0291
32508ION     NA48582   8.833  10.312   0.839  0.0723 -0.1596  0.0367
32509ION     NA48583   7.506   5.374   1.165 -0.1738  0.1240  0.1048
32510ION     NA48584   4.087   1.557   5.892  0.0792 -0.0669 -0.0572
32511ION     NA48585  11.356   6.334  10.682 -0.1838  0.0496  0.0017
32512ION     NA48586   0.329   8.935  11.107 -0.0492 -0.0568 -0.0479
32513ION     NA48587  15.378  10.547  10.847 -0.2222 -0.2145 -0.1212
32514ION     NA48588   0.602  15.724   3.395  0.0088 -0.1288  0.4574
32515ION     NA48589  16.197   4.724  11.044  0.1673 -0.0793  0.1323
32516ION     NA48590  14.941   1.155   3.258  0.3232 -0.0525 -0.1491
32517ION     NA48591   4.727   5.746  10.771  0.0486  0.2248 -0.0403
32518ION     NA48592  14.392   8.892  10.992 -0.0733  0.0181  0.0654
32519ION     NA48593  11.033  15.506   5.966  0.1301  0.0660  0.1341
32520ION     NA48594   0.160   0.786  10.989  0.0076 -0.4818 -0.1111
32521ION     NA48595  14.306   9.405  11.109  0.1646  0.0584 -0.0825
32522ION     NA48596   6.252   6.343  11.127 -0.0221 -0.4699  0.1137
32523ION     NA48597   6.785   0.066  10.633 -0.1219  0.0892  0.3975
32524ION     NA48598   9.587   9.751  11.042  0.2725  0.0402  0.0706
32525ION     NA48599   4.106   4.465  10.737 -0.1023  0.1852 -0.0170
32526ION     NA48600   6.426   2.120  10.672  0.0159  0.2167  0.3354
32527ION     NA48601  13.106   9.786  13.458  0.3163  0.0291  0.1639
32528ION     NA48602  11.211  10.774  10.660 -0.0350 -0.2020  0.1350
32529ION     NA48603   2.252   6.463   2.534  0.3273 -0.2520  0.0765
32530ION     NA48604  11.246   9.248   6.449  0.1983  0.2574 -0.2528
32531ION     NA48605  13.149   4.104  11.168  0.2164 -0.0361 -0.0204
32532ION     NA48606   3.582   0.881  10.708  0.0466 -0.1748 -0.0202
32533ION     NA48607   8.949   1.883  11.590 -0.2282 -0.0294 -0.3498
32534ION     NA48608   0.453   5.575   5.081 -0.1555 -0.0872 -0.3736
32535ION     NA48609  17.579   0.453   1.879 -0.0199  0.1586 -0.2068
32536ION     NA48610  11.657  16.608   3.335  0.0936  0.1364  0.0279
32537ION     NA48611   2.019  10.907  10.747 -0.0380 -0.0617  0.1240
32538ION     NA48612   7.931  14.723  10.846  0.2939 -0.2578  0.0677
32539ION     NA48613  17.264  16.394  15.269  0.3511  0.0287  0.0618
32540ION     NA48614  10.084   9.031  11.090 -0.1544 -0.1573  0.1003
32541ION     NA48615   9.300  10.896  13.512  0.1878  0.0148  0.3616
32542ION     NA48616   9.650   4.315   1.547 -0.0586 -0.0980  0.1113
32543ION     NA48617   6.585   3.689  10.739  0.0638 -0.0282  0.1016
32544ION     NA48618  16.531  10.964  11.185  0.1097  0.0965  0.1376
32545ION     NA48619   3.932  15.796  10.404 -0.0739 -0.1629 -0.0050
32546ION     NA48620  17.369  10.519  14.530  0.2649 -0.2026  0.1978
32547ION     NA48621   7.768   4.571   6.380  0.0088  0.1359 -0.0519
32548ION     NA48622  15.529   9.717  11.017  0.1862  0.0456 -0.1237
32549ION     NA48623   0.747  12.501  11.115  0.2259 -0.3340  0.1580
32550ION     NA48624   7.872   0.707   0.502  0.2120  0.1606 -0.1499
32551ION     NA48625   0.863   5.545  10.983  0.0415 -0.2039  0.1401
32552ION     NA48626  11.301  10.758   6.106  0.0646 -0.1620  0.0631
32553ION     NA48627   0.191  17.115   6.260  0.2100  0.2154 -0.1459
32554ION     NA48628  17.444   6.548  10.857 -0.0672 -0.2046 -0.1118
32555ION     NA48629  14.709   2.769   1.255  0.2327 -0.2371 -0.1291
32556ION     NA48630   3.467   4.887  16.354 -0.1582 -0.1728 -0.1216
32557ION     NA48631   1.426   2.079  11.116 -0.3652  0.1959 -0.1257
32558ION     NA48632  14.769  14.775   5.326 -0.2098  0.0869 -0.0696
32559ION     NA48633  15.609  12.726  14.680  0.1422 -0.2199  0.1599
32560ION     NA48634  11.814  13.930   5.164 -0.3217  0.0653 -0.2186
32561ION     NA48635   2.024  12.511  11.405  0.0814 -0.1136 -0.2908
32562ION     NA48636   4.759  17.050  10.589 -0.0198 -0.1530 -0.3817
32563ION     NA48637   0.104  16.517   4.587  0.1594  0.0766 -0.4984
32564ION     NA48638  14.759  14.698  15.550 -0.0304  0.0218  0.1638
32565ION     NA48639   8.905   5.012  10.906  0.0172  0.1130  0.3115
32566ION     NA48640   3.661   5.735  10.922 -0.0259 -0.0805 -0.1115
32567ION     NA48641   3.493   7.752   5.187  0.2641 -0.0288 -0.0290
32568ION     NA48642   1.319  14.053  14.207 -0.0116 -0.1530  0.0004
32569ION     NA48643  14.922  13.589   0.089  0.3670 -0.0042  0.0459
32570ION     NA48644  16.369   7.579  11.064 -0.0825 -0.2431  0.0183
32571ION     NA48645   1.079   0.391   6.281 -0.2013  0.0312  0.1788
32572ION     NA48646   4.787  17.317   5.089 -0.0096 -0.1657  0.4022
32573ION     NA48647  14.657   7.871  11.020  0.1132 -0.0242 -0.1312
32574ION     NA48648   4.852  11.080  10.966 -0.2752 -0.1544  0.3519
32575ION     NA48649  10.658   9.876  10.922 -0.1992 -0.2385  0.1256
32576ION     NA48650  12.625  12.033   5.518  0.0334 -0.0150  0.1739
32577ION     NA48651   1.759  14.578  16.676 -0.3673  0.1079 -0.0437
32578ION     NA48652  10.004   0.903  10.861  0.1403 -0.0179 -0.1202
32579ION     NA48653   3.524  10.550  11.012  0.1614 -0.0464 -0.0283
32580ION     NA48654  12.486   6.771   6.256 -0.3367 -0.0913 -0.0252
32581ION     NA48655   9.857   0.285  14.658  0.1175 -0.1472  0.1058
32582ION     NA48656  14.592   5.814   6.176 -0.1199  0.3168  0.0936
32583ION     NA48657   7.551  14.937   1.496 -0.1592 -0.2438 -0.2022
32584ION     NA48658   5.803   9.349  11.037  0.1151 -0.1023 -0.1667
32585ION     NA48659   0.159  13.314  10.986 -0.0440  0.1318  0.0785
32586ION     NA48660  17.132   4.691  11.190 -0.2104  0.2030  0.0722
32587ION     NA48661   3.759   2.429  10.751 -0.0387  0.3109 -0.1496
32588ION     NA48662   9.363  10.565  10.968 -0.0658 -0.1322 -0.0480
32589ION     NA48663   0.667   6.916  11.202 -0.3015  0.2503  0.2366
32590ION     NA48664  14.238  15.584  11.097  0.2348 -0.0018 -0.0699
32591ION     NA48665   1.941  14.205  10.527  0.1340  0.2282  0.1637
32592ION     NA48666   0.372   3.661   3.644 -0.1439 -0.4373  0.0816
32593ION     NA48667   9.399   5.103  15.086 -0.0606 -0.0299  0.0128
32594ION     NA48668   0.515   6.638  16.097 -0.0092  0.0595 -0.2124
32595ION     NA48669   8.036   7.985   0.184 -0.0119 -0.3500 -0.0401
32596ION     NA48670   0.384   2.408   4.459 -0.2696 -0.0381  0.1523
32597ION     NA48671   3.668  14.489  10.631  0.1563 -0.1127 -0.2380
32598ION     NA48672  13.817  10.629  10.803 -0.2503 -0.0731 -0.1311
32599ION     NA48673  17.172   3.194  15.898 -0.1176 -0.1003 -0.0786
32600ION     NA48674  12.660  17.107  11.380 -0.1184  0.2321 -0.0950
32601ION     NA48675  12.413  13.866  13.613 -0.0034 -0.0315 -0.1633
32602ION     NA48676   7.403  17.197  10.655 -0.0827 -0.0088 -0.2635
32603ION     NA48677   9.243   6.834  10.637 -0.0791 -0.0667  0.0657
32604ION     NA48678   5.153   1.423  10.634 -0.2538  0.1633 -0.1571
32605ION     NA48679   3.744   7.490  10.930 -0.1094 -0.0879  0.3532
32606ION     NA48680   5.034   6.355  11.110 -0.2533 -0.0663  0.1273
32607ION     NA48681   1.029  10.758  10.667 -0.0966 -0.1477 -0.0539
32608ION     NA48682   3.160  17.801  10.752 -0.1005  0.0940 -0.0755
32609ION     NA48683   8.392   7.212  10.577  0.0365 -0.0912  0.0169
32610ION     NA48684   2.684   0.930  10.846 -0.1837  0.2371  0.0567
32611ION     NA48685  11.811   8.871  12.751  0.1039 -0.0117  0.1876
32612ION     NA48686  16.536   7.268  14.111 -0.1865  0.0714 -0.0389
32613ION     NA48687   2.084  10.993   3.027 -0.1423 -0.1846  0.1120
32614ION     NA48688  15.545  14.990   3.057 -0.2070  0.3360 -0.1667
32615ION     NA48689   3.631  10.895  11.666  0.3724  0.0190 -0.1214
32616ION     NA48690  16.051   7.376   4.848 -0.2217  0.1563  0.0490
32617ION     NA48691   4.900   0.129   6.137  0.0118  0.0320  0.0172
32618ION     NA48692   7.626  10.004   3.208  0.1686  0.2807  0.2973
32619ION     NA48693   7.518  15.380   4.654 -0.3892 -0.0731  0.0651
32620ION     NA48694  16.277  10.065  10.849 -0.0706  0.0711  0.2280
32621ION     NA48695  12.539   7.717  10.792  0.2647 -0.1491 -0.0723
32622ION     NA48696   2.635   8.978  15.779 -0.0932  0.0210  0.1327
32623ION     NA48697   5.064  15.333   0.412  0.3271 -0.2884 -0.0473
32624ION     NA48698   9.986   2.434  10.868  0.0368  0.0038 -0.0007
32625ION     NA48699   2.256   7.711  11.478  0.0052 -0.0142  0.1007
32626ION     NA48700   5.491   6.769  14.136  0.1952 -0.0594  0.0313
32627ION     NA48701  16.210   2.927   4.805  0.1113  0.0239  0.0236
32628ION     NA48702   9.623  11.482  10.959 -0.1180 -0.0270  0.2989
32629ION     NA48703   8.373   5.369   2.197 -0.3661  0.3622  0.0855
32630ION     NA48704  17.369  14.540  10.788 -0.0163 -0.2380  0.1769
32631ION     NA48705   8.997   7.050   6.072 -0.0693  0.0217  0.2983
32632ION     NA48706  11.616   3.689  11.004 -0.1805 -0.1293  0.1023
32633ION     NA48707  10.522  11.296  10.997  0.2755 -0.1666 -0.2265
32634ION     NA48708  16.653   0.690  11.658 -0.0237  0.4635 -0.0359
32635ION     NA48709  17.139  16.845  10.899  0.0748 -0.3889 -0.1011
32636ION     NA48710  11.748  12.866   1.549 -0.3221 -0.0521  0.3302
32637ION     NA48711   4.513  15.067  10.545 -0.0067  0.2454 -0.1403
32638ION     NA48712   6.786   0.538  16.536  0.1056 -0.0688  0.0180
32639ION     NA48713   3.812  17.050  10.864 -0.1476  0.0107  0.0309
32640ION     NA48714  11.247   6.769   2.309 -0.2425 -0.1573 -0.4009
32641ION     NA48715   5.403  13.998   1.045  0.0819  0.1773  0.0827
32642ION     NA48716  13.296   6.962   6.069  0.1770 -0.1319  0.3691
32643ION     NA48717  12.280   0.387  12.944  0.0260  0.0835  0.1752
32644ION     NA48718   6.365   4.942   0.507  0.0881  0.1534  0.0758
32645ION     NA48719  12.335   5.782   0.484 -0.2724  0.4334 -0.0717
32646ION     NA48720  10.927  10.918  11.093 -0.1302 -0.0167  0.0247
32647ION     NA48721   7.691  15.993   6.004  0.1895  0.2005  0.1594
32648ION     NA48722   5.700  15.089   3.632  0.0594 -0.2029  0.0856
32649ION     NA48723   0.004   8.022  11.391  0.1911 -0.1248  0.0233
32650ION     NA48724   1.427  14.060  10.694 -0.0440  0.1761  0.3319
32651ION     NA48725   0.871   3.897   0.928 -0.1573  0.2303 -0.1407
32652ION     NA48726   9.887   6.222  10.579  0.2202 -0.1038 -0.3363
32653ION     NA48727   7.147   8.307   3.281 -0.0184  0.1507 -0.0386
32654ION     NA48728  15.011   7.449  16.849 -0.1761  0.3000 -0.0492
32655ION     NA48729  16.416   1.458  11.194 -0.2731  0.1116  0.1323
32656ION     NA48730  17.371   6.075   2.331  0.2085  0.2026 -0.1011
32657ION     NA48731  12.272  12.116  10.990 -0.0080  0.0582 -0.3380
32658ION     NA48732   8.014   6.477   5.837  0.0906 -0.1325  0.2159
32659ION     NA48733   5.330  16.210  10.581  0.0553 -0.4180  0.1604
32660ION     NA48734   7.361  15.251  11.097  0.2548  0.0548  0.3425
32661ION     NA48735  16.672  15.957  11.116  0.3305 -0.2260 -0.2248
32662ION     NA48736  14.359   6.285  10.703 -0.0143  0.1107 -0.0634
32663ION     NA48737   6.959   4.348  11.889 -0.0777 -0.0486 -0.1654
32664ION     NA48738   8.842  11.813  14.412  0.1475 -0.0497  0.2555
32665ION     NA48739  14.809   1.994  14.885  0.1084  0.2326 -0.2512
32666ION     NA48740  17.470  11.998  11.763 -0.1108  0.1641  0.1116
32667ION     NA48741  16.278   0.487  11.366 -0.2084 -0.2835  0.3407
32668ION     NA48742   7.382   4.721   4.837 -0.1145 -0.2553  0.0688
32669ION     NA48743  11.814   4.541  10.961 -0.0608  0.1905  0.0890
32670ION     NA48744   1.759   1.149  10.720  0.1084 -0.1139 -0.0103
32671ION     NA48745   3.556   4.732  11.002 -0.1032 -0.0452 -0.2359
32672ION     NA48746   2.313   5.464  14.371 -0.0147 -0.0742 -0.0879
32673ION     NA48747   7.899   3.085   4.174 -0.2599  0.2676  0.1519
32674ION     NA48748   5.607   9.192  15.580 -0.0865 -0.1615  0.0566
32675ION     NA48749   0.498   9.873  10.877 -0.2126  0.0923 -0.1152
32676ION     NA48750   0.957  10.296  11.635  0.0277 -0.1877  0.0847
32677ION     NA48751  15.149   1.524   6.441 -0.2282 -0.0874  0.2371
32678ION     NA48752   4.293   0.908   5.939 -0.0978 -0.1969  0.0001
32679ION     NA48753   0.984  14.735  10.807  0.1716  0.0267 -0.3993
32680ION     NA48754  11.127   1.345   5.850 -0.2167  0.0543 -0.0925
32681ION     NA48755  13.451  13.188  10.996  0.0690 -0.1875 -0.0036
32682ION     NA48756  10.028  14.007  10.752  0.0407 -0.1599 -0.0431
32683ION     NA48757  16.127   3.564   3.329  0.2878  0.1474 -0.5007
32684ION     NA48758  17.632  15.979  10.861 -0.0348 -0.2673 -0.2988
32685ION     NA48759  15.975  10.315   4.199  0.1423 -0.3832  0.0383
32686ION     NA48760   7.376  11.644  11.103  0.0142  0.1598  0.0625
32687ION     NA48761   3.559   1.072  15.711 -0.0379 -0.2886  0.0102
32688ION     NA48762   6.331   7.734   6.066 -0.0603  0.3026  0.1228
32689ION     NA48763   9.115   8.366   6.138  0.2833 -0.2677 -0.1774
32690ION     NA48764   1.016   5.037  13.901  0.1393 -0.2195  0.0689
32691ION     NA48765  16.496   3.894  11.212 -0.1647 -0.0439 -0.1236
32692ION     NA48766   7.830   9.128   6.385 -0.1955 -0.0313 -0.0582
32693ION     NA48767   0.440  14.211  10.985  0.1528  0.1282 -0.0403
32694ION     NA48768  14.874  12.763  11.019  0.0419  0.2989 -0.1232
32695ION     NA48769   2.875  12.932  15.768  0.2202 -0.3256 -0.1081
32696ION     NA48770  11.706  14.732  10.988 -0.0120 -0.0058  0.2414
32697ION     NA48771   4.440   8.298   5.121 -0.1756  0.0068 -0.1176
32698ION     NA48772  16.898  15.322   5.883 -0.0801  0.2136 -0.1914
32699ION     NA48773  13.501  17.288   6.539  0.2004  0.0760  0.1848
32700ION     NA48774  17.729  12.358  11.010  0.1214 -0.0384  0.0134
32701ION     NA48775  14.939   4.452  10.916  0.2394 -0.0184 -0.2329
32702ION     NA48776   9.173   4.849   0.852  0.0067 -0.0744 -0.0710
32703ION     NA48777  16.578  11.813  11.077 -0.0084 -0.1522 -0.3030
32704ION     NA48778   2.586  14.216   3.260 -0.2393 -0.0763  0.0200
32705ION     NA48779   3.511   9.100  11.136 -0.0212  0.0145 -0.0842
32706ION     NA48780  16.613   0.309   6.762  0.1299  0.3805 -0.2164
32707ION     NA48781   4.269  12.638   2.566 -0.2342  0.5059 -0.0806
32708ION     NA48782  10.846   7.690  10.899  0.1638  0.3000  0.1928
32709ION     NA48783   0.686  17.537  10.752  0.3474 -0.1185  0.2119
32710ION     NA48784   9.395   5.278   6.352  0.1406 -0.2224 -0.1787
32711ION     NA48785   7.733  13.913   6.186  0.1607  0.0175 -0.1334
32712ION     NA48786   8.794  11.625  15.642 -0.0269 -0.2174  0.0950
32713ION     NA48787  10.436  13.324  10.900  0.0653  0.0946  0.1304
32714ION     NA48788  14.692  11.807   5.659 -0.0706  0.0178 -0.1645
32715ION     NA48789   2.271   1.672  10.651  0.2011  0.0737 -0.0512
32716ION     NA48790  11.164  15.695  11.230  0.0039 -0.2680  0.0239
32717ION     NA48791   0.219  12.221   2.876  0.0195  0.3444 -0.1849
32718ION     NA48792  17.609  10.934  11.123  0.0497 -0.0576 -0.1883
32719ION     NA48793   1.704   7.100  11.409  0.0897  0.0602  0.1093
32720ION     NA48794  11.365  10.800  12.459 -0.1913 -0.2203 -0.3320
32721ION     NA48795   6.991  16.453  10.647 -0.3082  0.2418 -0.0360
32722ION     NA48796   5.552   0.933  10.645  0.0611  0.0041  0.0820
32723ION     NA48797   8.054  12.795   5.956 -0.0272 -0.0826  0.2473
32724ION     NA48798   1.663   5.410  10.871  0.0527 -0.1115  0.0633
32725ION     NA48799   4.191  11.981   1.940 -0.0834  0.1263  0.2253
32726ION     NA48800  13.333  16.553  11.363 -0.0166  0.1767  0.0803
32727ION     NA48801  11.096  17.515   6.050 -0.0360 -0.2450 -0.3038
32728ION     NA48802   6.805   7.898  10.653  0.2009  0.0495  0.1526
32729ION     NA48803  13.973  15.036  11.916 -0.1754  0.1790 -0.0274
32730ION     NA48804   4.181   4.276   4.815  0.2785 -0.0550 -0.0744
32731ION     NA48805  12.211  10.371   6.119  0.0295  0.0476 -0.0305
32732ION     NA48806   5.861  10.065   0.421 -0.0905  0.3034 -0.2426
32733ION     NA48807  10.658   8.120  12.608  0.0840 -0.1393  0.1144
32734ION     NA48808  14.342   6.671   5.917 -0.0495  0.1426 -0.0209
32735ION     NA48809  10.992  15.160  10.676  0.0368 -0.0768  0.0824
32736ION     NA48810   2.849   6.001  10.974 -0.0578 -0.0524 -0.0336
32737ION     NA48811  13.304  10.500   5.489  0.0560  0.1965  0.1419
32738ION     NA48812  15.297   5.464  14.479  0.1387 -0.2935 -0.1549
32739ION     NA48813  13.514   2.555  10.973 -0.3225  0.3198 -0.0137
32740ION     NA48814   1.143   0.469  10.680  0.0693 -0.0670 -0.1006
32741ION     NA48815  12.737   5.858   6.393 -0.2412 -0.3267  0.0647
32742ION     NA48816   9.735  14.192   0.273 -0.3033  0.0414 -0.2189
32743ION     NA48817  12.616   1.991  10.755  0.3521 -0.0244  0.1845
32744ION     NA48818   7.968  11.000  11.091 -0.1038 -0.0021  0.1404
32745ION     NA48819   1.102  11.655  11.069 -0.2507 -0.0354  0.1197
32746ION     NA48820   8.198   6.523  14.753 -0.0175 -0.1009 -0.4639
32747ION     NA48821   8.714   9.565  15.496 -0.1945  0.1885  0.1598
32748ION     NA48822   6.909  12.397  10.883 -0.0272 -0.0914 -0.1319
32749ION     NA48823   2.896   2.085   6.116  0.0948 -0.0209  0.1230
32750ION     NA48824   9.147  13.800   6.168  0.0339 -0.0733 -0.0002
32751ION     NA48825   5.541  16.959   3.964  0.1089 -0.0288  0.2063
32752ION     NA48826  15.080   2.532   3.067 -0.2461 -0.1629 -0.1462
32753ION     NA48827  14.159   0.312   5.713 -0.3110  0.1894  0.2867
32754ION     NA48828   3.469   3.198  10.574 -0.0611 -0.1175  0.0620
32755ION     NA48829   9.474   0.013  10.781  0.1007 -0.0850 -0.0615
32756ION     NA48830   9.038   1.345  10.730  0.0183 -0.0855  0.0660
32757ION     NA48831  12.714   8.168  10.886  0.1215  0.0779 -0.2645
32758ION     NA48832   3.251  13.238  11.134  0.0180  0.1016  0.1796
32759ION     NA48833  16.280   2.794  10.910  0.1976 -0.1479 -0.0060
32760ION     NA48834   1.871   8.039  10.983  0.1315  0.1177 -0.1793
32761ION     NA48835   1.687  16.372  11.547 -0.1091  0.0352  0.3444
32762ION     NA48836  13.103   8.957   6.392 -0.0231 -0.1514  0.2224
32763ION     NA48837  13.440  11.714   5.952  0.3164  0.1532 -0.2818
32764ION     NA48838   6.353  17.227  10.509 -0.2352  0.0862  0.2463
32765ION     NA48839   5.021   9.742  11.004 -0.1884 -0.3235  0.0525
32766ION     NA48840   7.336   9.290  10.782 -0.0606 -0.0907  0.1374
32767ION     NA48841  10.219   2.263   6.091  0.0669  0.0486  0.2124
32768ION     NA48842   3.841   6.664  10.869  0.0858  0.1413 -0.1687
32769ION     NA48843   9.722   1.713   1.217 -0.0764 -0.0538  0.3590
32770ION     NA48844   7.088   4.107   6.225 -0.2735  0.0220 -0.0335
32771ION     NA48845  13.496   6.518  10.831  0.1746  0.0604  0.2420
32772ION     NA48846   3.422  12.313  10.745 -0.1063  0.1311 -0.1533
32773ION     NA48847   7.699  10.627   6.448 -0.0801 -0.1957 -0.2243
32774ION     NA48848   6.884   5.400  10.888 -0.0409  0.0421 -0.1452
32775ION     NA48849  15.706  11.617   5.989  0.1266 -0.1585 -0.2507
32776ION     NA48850   1.355  10.708  16.618 -0.4815  0.1595 -0.1820
32777ION     NA48851   6.935  11.302  16.273  0.3040 -0.1923 -0.0551
32778ION     NA48852   0.518  12.382   1.878 -0.1684  0.1814  0.2152
32779ION     NA48853   8.621  12.682  10.889 -0.1916 -0.1098  0.2039
32780ION     NA48854   3.342   3.474   6.028  0.0968  0.0025 -0.1351
32781ION     NA48855   0.206  11.721  11.003  0.2715  0.0719 -0.0345
32782ION     NA48856   9.723   3.569  10.557  0.2640  0.2453 -0.0411
32783ION     NA48857  14.637   3.653  11.254  0.0717  0.0942  0.3442
32784ION     NA48858  14.488   0.270  12.840  0.0902  0.4157  0.2018
32785ION     NA48859  12.221   2.836  10.862 -0.1215 -0.0824 -0.0672
32786ION     NA48860   7.099  11.159   4.902 -0.0423 -0.1372  0.2710
32787ION     NA48861   5.606   5.609  11.076 -0.2428  0.0555 -0.0396
32788ION     NA48862   0.228  14.989  10.931  0.2887 -0.3020 -0.2009
32789ION     NA48863  10.851  14.407   4.083  0.1139 -0.0900 -0.3789
32790ION     NA48864  16.968   2.846   1.802 -0.2025  0.1322  0.3245
32791ION     NA48865   2.653   1.694  16.200  0.2340  0.2239  0.1363
32792ION     NA48866   9.244   8.845  10.767 -0.0558  0.0012  0.1089
32793ION     NA48867   9.157   8.541   0.599  0.0527 -0.2841 -0.2215
32794ION     NA48868  13.678   2.221  12.259  0.1265 -0.3086  0.2025
32795ION     NA48869  14.408  15.804  14.019  0.0919 -0.0004  0.3354
32796ION     NA48870   8.858   3.278  11.610  0.0992 -0.0608  0.0002
32797ION     NA48871   8.357   2.027  10.566 -0.0595  0.1550 -0.1494
32798ION     NA48872  15.774  15.014   2.029  0.1683  0.1075  0.1076
32799ION     NA48873  15.632   2.067  10.879 -0.1467 -0.0704  0.3542
32800ION     NA48874   3.154   1.351   2.272 -0.1324  0.3568  0.2133
32801ION     NA48875   9.584   2.404   3.153  0.1322 -0.1249  0.1851
32802ION     NA48876  17.647   5.698   0.573  0.1198  0.1785 -0.1504
32803ION     NA48877  12.278  16.875  16.421 -0.3143  0.0939 -0.3942
32804ION     NA48878   1.199  13.228  11.295  0.0444  0.1196  0.1358
32805ION     NA48879  13.010   5.857  11.012 -0.0318  0.0843  0.0075
32806ION     NA48880  15.731   3.916   6.277  0.3047  0.0903  0.3036
32807ION     NA48881   5.202  12.814  11.233  0.0437 -0.5589 -0.0949
32808ION     NA48882   6.122  14.914   6.267 -0.0909 -0.3570 -0.0003
32809ION     NA48883   7.107   1.699  10.323  0.0111 -0.1709 -0.1962
32810ION     NA48884  13.345  14.222  10.915  0.1592 -0.0938  0.0828
32811ION     NA48885   6.344  15.275   0.890 -0.0071  0.2409 -0.2777
32812ION     NA48886   8.095   6.000  10.998  0.0547 -0.0288  0.0658
32813ION     NA48887  10.233  15.517  10.649 -0.1045 -0.5980  0.1031
32814ION     NA48888  12.455   8.506   0.854  0.0350 -0.0738  0.0508
32815ION     NA48889   5.431   9.359   2.535  0.2568  0.1888 -0.4276
32816ION     NA48890  10.072  14.985  10.622 -0.1089  0.0355  0.0127
32817ION     NA48891   5.640   8.308  10.910  0.0744 -0.0255  0.0496
32818ION     NA48892  15.114   2.525   6.299  0.2165  0.0476  0.2981
32819ION     NA48893  13.476  11.135   3.368  0.2884 -0.0427  0.0107
32820ION     NA48894   7.772   9.575   6.031 -0.2621 -0.1698 -0.1549
32821ION     NA48895   3.371  13.682  10.661  0.1485 -0.1346  0.0943
32822ION     NA48896   0.157   4.857  10.856 -0.1586 -0.1597  0.0517
32823ION     NA48897  12.972  11.006  10.733  0.0970 -0.0099 -0.1880
32824ION     NA48898   9.752  17.094   4.952 -0.0967 -0.3435 -0.0000
32825ION     NA48899  17.567  12.702   6.082  0.2266 -0.1083 -0.0344
32826ION     NA48900   1.471   9.195   1.134 -0.0008 -0.0191  0.0597
32827ION     NA48901   8.416   3.360  10.703 -0.1139 -0.0414  0.0647
32828ION     NA48902  10.891  11.167  16.616  0.1137  0.2033 -0.4415
32829ION     NA48903  11.780  16.742  11.293  0.2441  0.1429  0.0523
32830ION     NA48904   0.097   8.882   0.933 -0.1519 -0.0353 -0.3050
32831ION     NA48905   4.523   1.738  10.507  0.2473 -0.0780  0.1250
32832ION     NA48906   5.981  10.702   2.246  0.2638  0.2189  0.1983
32833ION     NA48907   8.335   9.341  11.001  0.1381 -0.0707 -0.1717
32834ION     NA48908   8.691   0.435   3.410 -0.3790  0.2872 -0.1345
32835ION     NA48909   0.497  15.564  10.679  0.1587 -0.2467 -0.0766
32836ION     NA48910  10.743   6.617  10.762 -0.1326  0.0953  0.1532
32837ION     NA48911  11.285   6.889  11.819  0.1952  0.3659  0.2282
32838ION     NA48912  17.612  17.734  10.858 -0.3037 -0.0029 -0.0979
32839ION     NA48913   4.040  14.633  15.523  0.1689 -0.1151  0.0090
32840ION     NA48914  15.252   6.653   2.562 -0.0227  0.3544 -0.0454
32841ION     NA48915   1.988  15.467  10.460  0.1452  0.0127  0.0585
32842ION     NA48916   3.242  11.311   2.091  0.0121  0.0124  0.0132
32843ION     NA48917   0.550  16.136   6.251  0.1455  0.1202 -0.2679
32844ION     NA48918  15.092  11.892  10.891 -0.0638 -0.0740 -0.0465
32845ION     NA48919   6.998   2.534  10.920 -0.1643  0.2358  0.2196
32846ION     NA48920   5.332   6.132   6.020  0.1743  0.0277  0.2802
32847ION     NA48921  10.485  10.702   6.229 -0.1132  0.0985  0.0860
32848ION     NA48922   0.597  10.905   6.274  0.1127 -0.0222 -0.3400
32849ION     NA48923  17.640   1.560   0.761 -0.0198  0.2298  0.0274
32850ION     NA48924  13.467  14.008  14.683  0.3972 -0.1683  0.2101
32851ION     NA48925   2.352   4.204  10.670 -0.0902 -0.0109  0.0978
32852ION     NA48926   5.434   3.182  14.794 -0.1654 -0.0489  0.1495
32853ION     NA48927  15.520  13.261  11.176  0.0155  0.3188  0.1106
32854ION     NA48928   3.608   9.012  14.141  0.1640 -0.0761 -0.0180
32855ION     NA48929  13.630   7.701   5.936 -0.4445  0.0547  0.0559
32856ION     NA48930   5.715   6.944   1.727 -0.0891 -0.1661  0.1250
32857ION     NA48931  17.325  13.201   6.086 -0.1819 -0.0086  0.3538
32858ION     NA48932  17.806  10.122   5.992  0.1664  0.0691  0.2003
32859ION     NA48933   1.684  15.779   5.720 -0.0478  0.1712 -0.0453
32860ION     NA48934  11.892   8.438  10.857  0.0816 -0.0015 -0.1218
32861ION     NA48935   1.967   0.250  10.708 -0.1798  0.2186 -0.2334
32862ION     NA48936  10.014  13.132   5.973 -0.0672 -0.0962  0.4023
32863ION     NA48937   7.490   3.440  10.524 -0.1887 -0.1390  0.0214
32864ION     NA48938  15.828  16.494  11.047  0.0203  0.5188  0.0787
32865ION     NA48939  10.322  12.186  10.969 -0.3942  0.1428 -0.1472
32866ION     NA48940  15.581   4.653   4.322 -0.1475 -0.0565  0.1504
32867ION     NA48941   4.748  13.476  10.801  0.0052 -0.3186  0.0887
32868ION     NA48942   6.004  12.239  10.846  0.1513 -0.1695  0.5603
32869ION     NA48943   6.832   1.972  14.501  0.1195 -0.1349 -0.2048
32870ION     NA48944   8.963  10.840   1.787 -0.0586  0.0993  0.2755
32871ION     NA48945   9.797  17.199  15.141 -0.1996  0.0998 -0.0712
32872ION     NA48946   9.062   0.127   2.211  0.1388 -0.0142  0.1223
32873ION     NA48947   7.247   2.872   2.183  0.2668  0.0656 -0.0949
32874ION     NA48948   4.563  16.608  10.659 -0.2806  0.0239 -0.2283
32875ION     NA48949  11.955  10.888   2.912  0.2447 -0.0029 -0.0784
32876ION     NA48950  15.753   1.916   5.952 -0.0724 -0.0511 -0.1562
32877ION     NA48951   0.518   5.069   3.409 -0.0170 -0.0866  0.1969
32878ION     NA48952  11.621  12.822  10.838 -0.0733  0.1809  0.1183
32879ION     NA48953   8.663  10.154  10.909  0.1981  0.1645 -0.2236
32880ION     NA48954  12.702  15.002  10.762  0.1876 -0.1037  0.1488
32881ION     NA48955   2.807  14.425  10.831 -0.0533 -0.1571  0.0638
32882ION     NA48956  14.038   4.290  10.917 -0.1614 -0.0868 -0.0007
32883ION     NA48957   7.243  14.156  10.778  0.0662  0.1432 -0.1836
32884ION     NA48958   4.476   9.045  11.001  0.0023  0.2466  0.0682
32885ION     NA48959  13.855   2.789   6.159 -0.1352  0.0737 -0.1351
32886ION     NA48960  12.468  11.467   6.290  0.0822  0.2198  0.1494
32887ION     NA48961   3.971   3.920  10.715  0.1733  0.0719 -0.0873
32888ION     NA48962  14.270  16.568  11.454  0.1875 -0.1465  0.1425
32889ION     NA48963   9.344   3.991   6.175 -0.1718  0.0642  0.3445
32890ION     NA48964   2.319  13.063   6.347  0.1378 -0.0129  0.0570
32891ION     NA48965   0.362  13.568  16.201 -0.0100  0.2019 -0.1288
32892ION     NA48966   7.266   6.109  16.336 -0.1853 -0.1500  0.1912
32893ION     NA48967  13.294   9.872  10.762  0.1247 -0.0250  0.2929
32894ION     NA48968   7.514   5.267  14.573 -0.0144  0.0955  0.0948
32895ION     NA48969  14.339  12.804   3.645 -0.2183 -0.0788 -0.0092
32896ION     NA48970   3.550  12.989   5.743  0.1142  0.0755  0.0556
32897ION     NA48971  15.424  10.706   2.223 -0.0352 -0.1808  0.0015
32898ION     NA48972   2.804   9.263  11.039 -0.0317  0.0808 -0.0971
32899ION     NA48973   8.223   8.875   6.030 -0.1145 -0.0894  0.0729
32900ION     NA48974   2.745   6.182   6.385 -0.1984 -0.1230 -0.2100
32901ION     NA48975  15.601   3.938  10.965 -0.0178 -0.2491  0.2182
32902ION     NA48976  11.950  13.187  10.924  0.1395 -0.1351 -0.2176
32903ION     NA48977  16.692  13.870   4.989 -0.0492 -0.2295 -0.0456
32904ION     NA48978   2.685  10.119  10.752 -0.2737  0.3304 -0.0460
32905ION     NA48979   8.173  16.557  10.672  0.1393 -0.0271 -0.1781
32906ION     NA48980   5.704   9.690  12.968 -0.0060 -0.0616  0.0178
32907ION     NA48981   0.950   0.757   2.461  0.0176 -0.1527 -0.1633
32908ION     NA48982   9.002  11.189   6.282  0.3566 -0.0751 -0.1199
32909ION     NA48983  17.324   2.603  13.472  0.0445  0.3202 -0.3633
32910ION     NA48984  10.518  16.330  10.598  0.0961 -0.2182  0.1140
32911ION     NA48985  17.707  12.064   4.879  0.1276 -0.0134  0.1644
32912ION     NA48986  11.380   5.382  10.688  0.1432  0.4292 -0.2588
32913ION     NA48987  16.631  17.564  11.221  0.1627 -0.2495  0.0712
32914ION     NA48988   8.816   3.952  10.742  0.0275  0.0378  0.3273
32915ION     NA48989  12.726  11.853   6.410  0.0737 -0.0740 -0.0759
32916ION     NA48990  12.045   1.372  10.832  0.0418 -0.0626 -0.0512
32917ION     NA48991   8.473   3.916  12.551  0.1979 -0.2315  0.1888
32918ION     NA48992   5.269  11.180  14.596  0.1852 -0.0937  0.3636
32919ION     NA48993   9.000  12.279  11.047  0.1157 -0.2841 -0.0101
32920ION     NA48994   0.376   7.189  16.848  0.0917  0.2772 -0.2326
32921ION     NA48995  16.833   5.698  10.930 -0.0673 -0.1269  0.0323
32922ION     NA48996   3.844  12.332   1.042 -0.2146  0.2978  0.2406
32923ION     NA48997  16.576   8.817   6.313  0.2932 -0.1463  0.2113
32924ION     NA48998   9.887   8.257  10.808  0.1463  0.1113 -0.1016
32925ION     NA48999  17.139   2.888  11.174  0.1998 -0.0868  0.3777
32926ION     NA49000   6.337   2.109  11.706  0.1899 -0.0873 -0.2669
32927ION     NA49001  11.472  10.348  10.667 -0.1316  0.1142 -0.0583
32928ION     NA49002  10.857   8.848   2.454 -0.1309  0.0524 -0.1292
32929ION     NA49003   0.089   2.995  11.075  0.1204 -0.3813 -0.0374
32930ION     NA49004   5.978   9.920   6.082 -0.0119  0.0031  0.1081
32931ION     NA49005  15.235   1.372   2.344  0.0459 -0.2436 -0.0714
32932ION     NA49006  16.370   0.321   6.130  0.1068 -0.0880 -0.1413
32933ION     NA49007  11.237  17.332  11.557 -0.3704  0.0349 -0.5933
32934ION     NA49008   0.825   6.877  13.816  0.1655 -0.2938  0.0509
32935ION     NA49009   2.327   3.593  12.387 -0.0084 -0.0201 -0.0568
32936ION     NA49010  11.661   1.008  13.235  0.0798 -0.0665 -0.0446
32937ION     NA49011   2.720  11.850  10.666  0.0973  0.1218 -0.1977
32938ION     NA49012   3.003   9.162   6.536  0.1994  0.1199 -0.5169
32939ION     NA49013  12.137  16.080   6.623  0.1917 -0.0060 -0.2357
32940ION     NA49014   8.261   1.209  10.641  0.0202 -0.0726 -0.0922
32941ION     NA49015   9.594  16.326  10.543 -0.1485 -0.0657  0.0586
32942ION     NA49016  16.511  15.338  15.478  0.1277 -0.1621 -0.0480
32943ION     NA49017   6.559   9.907  11.004  0.2686  0.0569  0.0142
32944ION     NA49018  15.671   5.604   0.756  0.0674 -0.0308 -0.3693
32945ION     NA49019  10.685   8.331  16.545  0.0047 -0.1693 -0.0053
32946ION     NA49020   1.359  11.819   5.726 -0.1625  0.0436  0.1430
32947ION     NA49021   2.192  17.230  10.631  0.0054  0.1863  0.0849
32948ION     NA49022   2.419  13.565  10.840 -0.4405  0.0197  0.1002
32949ION     NA49023   4.570  14.564  10.650 -0.1226 -0.1778  0.0149
32950ION     NA49024   9.655  14.009   4.177  0.0114  0.0143 -0.1265
32951ION     NA49025  15.565   7.884  10.900 -0.0575  0.3182 -0.2409
32952ION     NA49026  15.647   6.862  10.893 -0.0143  0.1039 -0.5242
32953ION     NA49027   5.811   8.105  13.736  0.0682  0.1883 -0.2816
32954ION     NA49028   2.200  13.327  16.179  0.2500  0.2041  0.0143
32955ION     NA49029   8.396   5.652  10.848  0.0761  0.2947 -0.1395
32956ION     NA49030   6.678   7.196  10.868  0.1456 -0.0739 -0.0664
32957ION     NA49031  13.233  11.789   3.850 -0.3671  0.0633 -0.1655
32958ION     NA49032   8.457   9.883   1.889 -0.1321  0.0399  0.1552
32959ION     NA49033  15.044   7.126  10.706  0.4294  0.2950  0.2835
32960ION     NA49034   2.526   3.958   1.315 -0.2320 -0.4056 -0.1587
32961ION     NA49035  11.324   4.635  11.179 -0.1195 -0.0096 -0.2019
32962ION     NA49036  16.293   8.425  11.574  0.1685  0.0889 -0.1603
32963ION     NA49037  12.166  12.431   6.274  0.1309  0.0040  0.1726
32964ION     NA49038   7.580   7.507  10.744 -0.2893 -0.1007  0.1284
32965ION     NA49039   9.536  12.851   4.760 -0.3759 -0.0930 -0.2489
32966ION     NA49040   8.534   6.491  11.061  0.0814  0.3933  0.2299
32967ION     NA49041   8.202  13.359   4.154  0.0883 -0.0853 -0.2695
32968ION     NA49042  16.206   1.230   0.034  0.1479  0.1848  0.0838
32969ION     NA49043   6.324   0.323  10.464  0.0360 -0.0479 -0.2611
32970ION     NA49044  11.154   8.676  11.862 -0.0261 -0.3101  0.1943
32971ION     NA49045  13.037   3.279  11.129 -0.0285 -0.1012 -0.0645
32972ION     NA49046  11.134   5.379   6.202  0.3661 -0.1334  0.1676
32973ION     NA49047  11.958  17.529  11.043 -0.3275 -0.0803 -0.0501
32974ION     NA49048  17.247  14.311  11.667  0.0144  0.2949 -0.0601
32975ION     NA49049  10.825   8.643  10.998 -0.2127 -0.0332  0.1874
32976ION     NA49050   4.729   9.331   6.509  0.0781  0.1352 -0.0094
32977ION     NA49051   0.601  16.489  10.730 -0.1396 -0.1058  0.2178
32978ION     NA49052  10.291   8.503   6.505 -0.0273  0.1094 -0.0549
32979ION     NA49053   5.734  13.952  10.948  0.1009 -0.0776  0.0477
32980ION     NA49054   4.654  15.854  10.483  0.3733 -0.0029  0.3231
32981ION     NA49055  12.273   9.892  10.540 -0.1616  0.3336 -0.0558
32982ION     NA49056   6.424   4.463  11.070  0.0892  0.3932  0.0116
32983ION     NA49057   9.594  17.471   2.813  0.0513 -0.2795  0.0008
32984ION     NA49058  14.963  11.116  10.974  0.0271 -0.0252 -0.0219
32985ION     NA49059  16.160   5.657   6.235 -0.1977  0.1858 -0.0011
32986ION     NA49060  16.035   7.232  10.683  0.2224  0.0697  0.0888
32987ION     NA49061  15.951   3.011   6.301 -0.2737  0.0022 -0.5764
32988ION     NA49062  11.070  12.522   6.194  0.0391 -0.0765 -0.4329
32989ION     NA49063   0.929  13.460  10.930 -0.0733  0.1714  0.2049
32990ION     NA49064  12.164  15.646   5.781 -0.0646 -0.0440  0.2876
32991ION     NA49065   1.658   8.946   5.416  0.3156  0.1021 -0.2511
32992ION     NA49066  10.080   4.277   5.752 -0.4681  0.1412 -0.0005
32993ION     NA49067  15.537  14.951   0.925 -0.1770  0.0783  0.1527
32994ION     NA49068   6.053  11.903  11.816  0.2100 -0.1726  0.0698
32995ION     NA49069   3.269   9.387  12.336  0.0473 -0.2042  0.3821
32996ION     NA49070  17.439   3.654   3.436  0.3298 -0.0997 -0.0381
32997ION     NA49071   0.533  15.909  11.794  0.2093  0.4788  0.0150
32998ION     NA49072   1.524   3.769  11.286  0.0563 -0.0642  0.0431
32999ION     NA49073   0.492   9.716   0.787 -0.0494 -0.0095 -0.0676
33000ION     NA49074  15.125  14.722  10.984  0.1486  0.1317  0.1789
33001ION     NA49075  17.059  13.740  10.884 -0.0042  0.1393  0.0908
33002ION     NA49076  11.222   1.778  10.743  0.4869  0.2379  0.1355
33003ION     NA49077  17.385   9.378   3.444 -0.0787 -0.1854 -0.2155
33004ION     NA49078   8.253  14.977   4.461  0.1871  0.2845 -0.0279
33005ION     NA49079   9.595   4.430  10.768 -0.0780 -0.2219  0.1139
33006ION     NA49080   9.996   7.290  10.906  0.0458 -0.0851  0.0869
33007ION     NA49081   6.672  14.587   4.354 -0.0993  0.0227 -0.0133
33008ION     NA49082  11.606  13.771  10.949  0.3530  0.3402 -0.2670
33009ION     NA49083   7.892   5.178  10.798 -0.2179  0.1975  0.0844
33010ION     NA49084   4.659   7.974  10.970 -0.1119  0.2260 -0.2769
33011ION     NA49085   3.573   7.054  16.213  0.1393 -0.1546  0.0648
33012ION     NA49086   6.040  15.677  10.626  0.0222  0.2841  0.1282
33013ION     NA49087  10.648   4.657  10.791  0.0517 -0.1295 -0.0508
33014ION     NA49088  15.934   9.390   3.229 -0.0049 -0.0610  0.1687
33015ION     NA49089   5.762   4.359  16.790 -0.0393  0.0576 -0.2880
33016ION     NA49090   3.048  16.777  10.528 -0.2606  0.3075  0.0761
33017ION     NA49091   0.567   0.274  11.058  0.1345  0.3041  0.1143
33018ION     NA49092  16.611  13.203  10.953  0.2252  0.1936 -0.0153
33019ION     NA49093   2.311  16.341  10.410 -0.1985 -0.3169 -0.0161
33020ION     NA49094   4.123  11.053   1.849 -0.0200 -0.2006 -0.1220
33021ION     NA49095   8.117   5.655  16.544  0.2557 -0.1787  0.1781
33022ION     NA49096   0.460   0.756   4.615  0.1173  0.1920 -0.2075
33023ION     NA49097  16.783   5.182   0.506 -0.0371 -0.1779 -0.0427
33024ION     NA49098   1.850  13.619   6.342  0.0857  0.1784  0.1192
33025ION     NA49099   8.628   4.318   6.414  0.1894 -0.2747  0.3898
33026ION     NA49100   6.426  16.137   1.785 -0.3715 -0.3879 -0.1062
33027ION     NA49101   6.650  14.014  10.777 -0.0950 -0.0287  0.0362
33028ION     NA49102   5.102  13.800   4.779  0.2109  0.1881  0.0149
33029ION     NA49103  14.588  10.305  11.094  0.3000  0.0402 -0.1492
33030ION     NA49104  17.381   3.370   5.904  0.0087 -0.3625  0.1558
33031ION     NA49105  15.248  11.113   5.911 -0.2027 -0.4731  0.3488
33032ION     NA49106  15.030  13.827  11.014 -0.1351  0.1608  0.0186
33033ION     NA49107  10.634  17.782  10.814  0.1942 -0.2808  0.0782
33034ION     NA49108   4.210  11.733  10.728  0.0754 -0.1714 -0.0364
33035ION     NA49109   7.837   1.012  10.383 -0.1159  0.1892  0.2501
33036ION     NA49110  17.652   1.270  11.078  0.1795  0.0265 -0.4460
33037ION     NA49111   2.051   7.364   6.373  0.2758  0.2838 -0.0225
33038ION     NA49112   6.521  11.565  10.793 -0.0881  0.0789  0.1984
33039ION     NA49113  15.000   1.485  10.885  0.2552 -0.1337  0.1305
33040ION     NA49114   7.183  10.742  10.906  0.1042 -0.1441 -0.0388
33041ION     NA49115  11.609  14.817   6.480  0.2754 -0.0081  0.2298
33042ION     NA49116  12.089  14.269   1.652  0.0781  0.0976 -0.3361
33043ION     NA49117  14.175   7.217  10.759 -0.0245 -0.0534 -0.4326
33044ION     NA49118  14.206  15.750   6.716  0.0697  0.3607  0.2246
33045ION     NA49119   4.877   5.018  11.277  0.2255  0.0271  0.0928
33046ION     NA49120   5.811   3.259   1.898  0.3475 -0.0292  0.3781
33047ION     NA49121  13.625   8.828  10.657 -0.0245  0.0725 -0.0470
33048ION     NA49122  11.091  12.002  10.962  0.2959 -0.0197  0.1634
33049ION     NA49123  14.441   2.224  10.809  0.0696  0.1359  0.1936
33050ION     NA49124  17.131   8.605  11.097  0.0324  0.0763  0.1150
33051ION     NA49125  10.791  16.670   6.237  0.0089 -0.2952 -0.0078
33052ION     NA49126   4.879   2.483  10.760 -0.2901 -0.1722 -0.0318
33053ION     NA49127  10.311   6.912  10.708 -0.3232 -0.5709 -0.0527
33054ION     NA49128   3.901  15.218   6.322  0.2152  0.3211  0.5013
33055ION     NA49129  12.370   8.355   6.071  0.2446  0.1807 -0.0505
33056ION     NA49130  10.772  14.316  10.772 -0.2743  0.1988 -0.3857
33057ION     NA49131  14.108  14.926  11.037  0.1161  0.0963 -0.0979
33058ION     NA49132   4.690   3.812   6.298 -0.1410  0.1063 -0.1736
33059ION     NA49133  17.057  11.596  13.574 -0.3230 -0.1737 -0.0204
33060ION     NA49134   7.548  11.937   6.399 -0.2716 -0.3505 -0.2909
33061ION     NA49135   8.875  15.881  10.662  0.0453 -0.2214 -0.0688
33062ION     NA49136   3.698  12.751  10.760  0.0308 -0.2034 -0.4717
33063ION     NA49137   9.373  14.334  10.685  0.0493  0.4174  0.3851
33064ION     NA49138   0.649   4.001  11.081 -0.2073  0.0949 -0.1743
33065ION     NA49139  11.358   0.289  11.250 -0.1088 -0.0794  0.2099
33066ION     NA49140   3.401  11.451  10.877 -0.0573  0.3939  0.0262
33067ION     NA49141  17.274  13.528   3.962 -0.0478  0.0671  0.1557
33068ION     NA49142   6.565   9.030  10.956  0.0031 -0.2637 -0.1106
33069ION     NA49143   5.909   3.076  10.616  0.2690 -0.1571 -0.1960
33070ION     NA49144   0.974   3.205  10.912 -0.0624  0.1426 -0.2580
33071ION     NA49145   2.613  12.746  10.830 -0.0054  0.1080 -0.0179
33072ION     NA49146  17.259  15.430  10.943 -0.1289  0.1446 -0.2536
33073ION     NA49147  11.882   7.508   4.697  0.0952  0.0363 -0.0907
33074ION     NA49148  14.208  12.440   6.027  0.2926 -0.1450  0.2986
33075ION     NA49149  17.415   1.913  16.859 -0.0979  0.0355  0.1310
33076ION     NA49150   6.999  13.199  10.754 -0.1469 -0.1991  0.0553
33077ION     NA49151   9.723   1.758   4.791 -0.1809 -0.0985  0.1134
33078ION     NA49152   6.638  13.766   0.163  0.1757  0.2039  0.2668
33079ION     NA49153  16.029   6.283  10.740  0.0315 -0.1580 -0.1261
33080ION     NA49154  16.863   1.967  11.028 -0.2102  0.0664  0.1487
33081ION     NA49155   5.343  15.227  10.861  0.7045 -0.2603 -0.0903
33082ION     NA49156  15.447   7.654   6.124  0.1001  0.1429 -0.4330
33083ION     NA49157   4.120   0.038  10.524  0.2264 -0.1293  0.2587
33084ION     NA49158   7.984   6.929  13.551 -0.0424 -0.0877 -0.0225
33085ION     NA49159   2.428   5.816   6.221  0.1079 -0.2756  0.1927
33086ION     NA49160   4.206  13.373  10.893 -0.2282  0.1705 -0.1857
33087ION     NA49161  16.616   6.606  10.965  0.2238 -0.1159  0.0702
33088ION     NA49162   5.253   2.201  10.958 -0.3517  0.0701  0.0015
33089ION     NA49163  10.399   3.179  10.741 -0.0352 -0.0123 -0.1509
33090ION     NA49164   6.812  10.365  13.858 -0.1087  0.1483 -0.2011
33091ION     NA49165  15.263  15.648  10.968 -0.4869 -0.1712  0.1084
33092ION     NA49166  11.730   9.425  16.704 -0.0283  0.1101 -0.1595
33093ION     NA49167  10.381  11.173   5.698  0.0084 -0.2835 -0.0446
33094ION     NA49168   6.127  16.643  10.708  0.2596 -0.0332 -0.1494
33095ION     NA49169  14.415  16.156   6.469 -0.0515  0.4841 -0.2006
33096ION     NA49170   9.562   9.098   6.565  0.0072 -0.0948  0.1529
33097ION     NA49171  15.772   9.239  14.185  0.1793  0.3957  0.2102
33098ION     NA49172  12.579   1.169  11.507  0.1578 -0.1276 -0.0150
33099ION     NA49173  10.123  17.116  10.538 -0.0970 -0.2740 -0.2367
33100ION     NA49174  11.245   2.740  10.886 -0.1869 -0.2159 -0.0176
33101ION     NA49175   2.841  11.408  10.969 -0.0530  0.1097 -0.0811
33102ION     NA49176   2.613   3.411  10.802 -0.3319 -0.0016 -0.0929
33103ION     NA49177   1.944   2.567   5.158 -0.1271 -0.1139 -0.2842
33104ION     NA49178   3.508  16.607   3.245  0.0055 -0.2627 -0.2500
33105ION     NA49179   5.326   9.568   5.997 -0.0415 -0.0250  0.0339
33106ION     NA49180  16.242  14.240  10.987  0.0040  0.3164  0.2035
33107ION     NA49181   8.160   7.670  15.249 -0.1200 -0.1734  0.2169
33108ION     NA49182   6.972   1.073  10.580  0.0797 -0.1574  0.0967
33109ION     NA49183  12.562   5.005  11.150  0.1992  0.3103 -0.0151
33110ION     NA49184   9.103   7.573  10.653 -0.0602  0.1912  0.0389
33111ION     NA49185   1.436  13.413   6.135 -0.0429  0.3409  0.1827
33112ION     NA49186  13.328   7.360  10.832 -0.4996 -0.2917 -0.3208
33113ION     NA49187   4.665   0.182   0.630  0.0096 -0.1252 -0.2493
33114ION     NA49188  14.992  16.858   5.851 -0.2746 -0.1341  0.0045
33115ION     NA49189  12.524  11.476  10.999  0.1304  0.2488 -0.1047
33116ION     NA49190  13.179   7.908   6.050  0.1425 -0.0519  0.0741
33117ION     NA49191   9.713   8.145   4.074 -0.1077  0.2647 -0.1454
33118ION     NA49192   3.011  14.732   6.288 -0.1985 -0.2343  0.0557
33119ION     NA49193   9.246   8.996   3.253 -0.1060  0.1814 -0.0475
33120ION     NA49194   4.326  10.248  11.122  0.1268 -0.1058 -0.0583
33121ION     NA49195   7.802  12.541  10.943  0.0000  0.1613 -0.2083
33122ION     NA49196  12.541  14.491  10.800 -0.2569  0.1364  0.0013
33123ION     NA49197   1.486   9.468   6.622 -0.0214  0.1884 -0.0776
33124ION     NA49198   0.555   4.518   3.523  0.0420  0.0226 -0.0970
33125ION     NA49199  12.510   4.084  11.175  0.2461 -0.2786  0.0914
33126ION     NA49200  13.898   9.857   4.915  0.2281 -0.1968  0.0410
33127ION     NA49201  11.681   2.113  10.728 -0.0944  0.1534  0.4360
33128ION     NA49202  17.125   1.103  11.007 -0.1395 -0.0984  0.1981
33129ION     NA49203  10.296  10.363  10.824  0.4556  0.0374  0.0384
33130ION     NA49204  15.636   0.811  11.279 -0.0471  0.4459 -0.2097
33131ION     NA49205   4.619  12.588  11.030  0.1282 -0.1260 -0.0620
33132ION     NA49206   0.495  15.856  15.740 -0.1240 -0.0038 -0.2185
33133ION     NA49207   7.303   4.311  10.492  0.1309 -0.0136 -0.1088
33134ION     NA49208  16.739  12.271  10.830 -0.1284  0.1880  0.1464
33135ION     NA49209  11.378   9.494  10.640  0.1133  0.3374  0.2112
33136ION     NA49210   1.757  16.996   2.139 -0.0966  0.3740  0.1561
33137ION     NA49211   6.464  13.331  13.200 -0.1098  0.2777 -0.0769
33138ION     NA49212  14.623  11.155   0.465 -0.0201 -0.1462  0.1309
33139ION     NA49213   4.629  12.164   5.939 -0.0340 -0.2860 -0.1483
33140ION     NA49214  11.744   6.569   3.417  0.0010  0.0473 -0.3047
33141ION     NA49215  14.301  11.800  10.941  0.0563  0.1174 -0.0347
33142ION     NA49216   6.085   4.050  13.592  0.0871  0.1627  0.6266
33143ION     NA49217  15.808   3.233  10.977 -0.0858 -0.2989  0.3083
33144ION     NA49218  10.355   1.593  10.764  0.0681  0.1066  0.1739
33145ION     NA49219   3.986   5.113   4.467  0.1273  0.1226 -0.1979
33146ION     NA49220  17.712   2.383   6.551 -0.3088  0.1874  0.1756
33147ION     NA49221  13.876  12.458  11.072  0.3468  0.1779  0.1198
33148ION     NA49222   5.617  17.401  10.561  0.2250 -0.1713  0.1396
33149ION     NA49223   0.939  10.010   6.207 -0.1575  0.1058 -0.1369
33150ION     NA49224  15.078  16.982  11.466  0.2537  0.4819 -0.0268
33151ION     NA49225   5.404   7.380  11.283  0.1481  0.4387  0.2473
33152ION     NA49226   4.628   7.159  11.016 -0.0985  0.2090  0.1392
33153ION     NA49227   1.976   8.309   6.532 -0.0031  0.1425 -0.0259
33154ION     NA49228   3.961  15.244  10.441 -0.1126 -0.2140 -0.1979
33155ION     NA49229   7.882  14.059   1.522  0.0423 -0.3038 -0.2411
33156ION     NA49230   7.627  10.470   5.564  0.1382 -0.2176 -0.1772
33157ION     NA49231   5.674  11.157  10.891  0.2105  0.2645  0.0315
33158ION     NA49232  14.985  16.419   2.196 -0.3163 -0.2569  0.2845
33159ION     NA49233  11.230  14.079  14.423  0.1696 -0.2203  0.1721
33160ION     NA49234   8.246  15.861  12.784  0.0844 -0.1754  0.1095
33161ION     NA49235   9.121   5.909  10.865  0.0055  0.1283 -0.1098
33162ION     NA49236   8.729   3.462   3.132 -0.3855 -0.1221  0.0231
33163ION     NA49237  14.198  13.950  11.219  0.2185  0.0965  0.1630
33164ION     NA49238  13.189  15.755   4.256  0.1492 -0.3149  0.1709
33165ION     NA49239   2.973   2.555  10.720 -0.2291 -0.3334 -0.1701
33166ION     NA49240   1.034   5.700   1.881 -0.1481 -0.2979 -0.0861
33167ION     NA49241  11.315  15.429   2.348  0.2173 -0.0731  0.0474
33168ION     NA49242  17.100   8.900   4.068 -0.0765 -0.0447 -0.1426
33169ION     NA49243  13.688   8.555   4.844  0.2347 -0.4150 -0.2496
33170ION     NA49244  14.861  17.399   3.057  0.3205 -0.1050  0.0057
33171ION     NA49245   8.218  11.813  11.132  0.0245 -0.0850  0.0379
33172ION     NA49246   0.005   5.719  11.114 -0.4588  0.0899  0.2556
33173ION     NA49247  13.262   1.670  11.116 -0.1770 -0.0085  0.3547
33174ION     NA49248   5.938  13.309  10.707 -0.0760  0.4817 -0.0191
33175ION     NA49249  17.493   9.415  11.162  0.2450 -0.0812  0.0012
33176ION     NA49250  12.584   4.146  12.022  0.0203  0.1900 -0.0459
33177ION     NA49251   6.579   0.342   3.269  0.0107  0.2352 -0.1759
33178ION     NA49252   7.530   6.683  10.859 -0.1194 -0.0644 -0.2161
33179ION     NA49253   4.373   8.788  12.904  0.0061 -0.1250  0.2191
33180ION     NA49254   6.394   6.109  10.719 -0.0952  0.1110 -0.6190
33181ION     NA49255   6.082  14.798  10.825  0.3203  0.1334 -0.0390
33182ION     NA49256   8.068   2.865   6.043  0.0684  0.1143 -0.0698
33183ION     NA49257   9.096   9.423  10.939  0.0238 -0.0641  0.0359
33184ION     NA49258   9.243   2.576  10.600  0.0864  0.3930 -0.1828
33185ION     NA49259  15.639  10.555  12.192  0.0587  0.0408  0.0472
33186ION     NA49260  16.511   9.528  11.006  0.0446 -0.1115  0.0676
33187ION     NA49261   0.783   1.312  10.853 -0.1413 -0.1666  0.2349
  17.84913  17.84913  16.97292
