INSANE! Membrane UpperLeaflet>loPI:POPI:DPPI:PYPI:ERGO=180.0:5.0:3.0:2.0:10.0 LowerLeaflet>PSPI:POPI:POPS:YOPS:POPE:YOPE:POPC:YOPC:ERGO=6.0:14.0:21.0:9.0:9.0:21.0:12.0:48.0:60.0
49261
    1loPI    C1    1  13.989   0.147  10.981 -0.2558  0.1634 -0.2829
    1loPI    C2    2  14.177   0.455  11.154 -0.1471 -0.0529 -0.0097
    1loPI    C3    3  13.943   0.215  11.373 -0.1274 -0.2421 -0.1933
    1loPI   PO4    4  14.204   0.118  10.784  0.0300 -0.3274  0.0801
    1loPI   GL1    5  14.239   0.012  10.401  0.0456 -0.0409 -0.1815
    1loPI   GL2    6  14.518  -0.150  10.253  0.3442 -0.0654  0.5295
    1loPI   C1A    7  14.143   0.093   9.959  0.1486 -0.0624  0.2593
    1loPI   C2A    8  14.105   0.044   9.539  0.1826 -0.0834  0.2523
    1loPI   C3A    9  14.053  -0.015   9.173 -0.3316  0.0414 -0.2849
    1loPI   C4A   10  14.174  -0.042   8.755 -0.1905  0.0190  0.1594
    1loPI   C5A   11  14.231  -0.057   8.446 -0.1897  0.1911  0.0902
    1loPI   C6A   12  14.562  -0.150   8.238  0.0335 -0.0906 -0.0274
    1loPI   C1B   13  14.460  -0.309   9.829  0.0773  0.1101 -0.3432
    1loPI   C2B   14  14.439  -0.328   9.416 -0.0761 -0.0670 -0.0577
    1loPI   C3B   15  14.458  -0.416   8.990  0.4344 -0.2320  0.1679
    1loPI   C4B   16  14.427  -0.503   8.572  0.0948 -0.1720 -0.1086
    2loPI    C1   17  12.950   1.863  11.125 -0.4627 -0.0289  0.0595
    2loPI    C2   18  12.959   1.466  11.174  0.2076 -0.0664 -0.2486
    2loPI    C3   19  13.141   1.705  11.439 -0.0597  0.0319 -0.1490
    2loPI   PO4   20  12.984   1.849  10.854 -0.1721 -0.0597  0.2402
    2loPI   GL1   21  13.074   2.188  10.535 -0.0662 -0.0477 -0.1252
    2loPI   GL2   22  13.253   2.366  10.467 -0.0839 -0.3785 -0.4291
    2loPI   C1A   23  13.149   2.048  10.095  0.3803  0.2102  0.3299
    2loPI   C2A   24  13.022   2.056   9.634  0.0247  0.1893 -0.0092
    2loPI   C3A   25  13.044   2.094   9.150 -0.2930 -0.1090 -0.3767
    2loPI   C4A   26  12.997   2.061   8.653 -0.0798 -0.2402 -0.2676
    2loPI   C5A   27  13.186   2.348   8.368 -0.0033  0.4588 -0.1662
    2loPI   C6A   28  13.333   2.810   8.431 -0.0191  0.1104  0.0628
    2loPI   C1B   29  13.211   2.546  10.087  0.0054  0.1409  0.1287
    2loPI   C2B   30  13.259   2.519   9.658 -0.1090  0.2055 -0.0414
    2loPI   C3B   31  13.220   2.542   9.246  0.0513 -0.0260  0.0131
    2loPI   C4B   32  13.253   2.517   8.806  0.0692 -0.1316 -0.6241
    3loPI    C1   33  15.032  14.814  10.751  0.0724  0.2459 -0.2302
    3loPI    C2   34  14.967  14.873  11.142 -0.0168 -0.1254 -0.1860
    3loPI    C3   35  15.338  14.903  10.993  0.0018  0.1202 -0.0933
    3loPI   PO4   36  14.913  14.907  10.590 -0.1858  0.1007  0.2189
    3loPI   GL1   37  14.967  14.935  10.176  0.0854 -0.3649  0.0260
    3loPI   GL2   38  15.334  15.077   9.993 -0.0973 -0.3926 -0.0309
    3loPI   C1A   39  14.926  15.017   9.745  0.1202 -0.3011  0.1094
    3loPI   C2A   40  14.842  15.100   9.287 -0.0481 -0.1655  0.2537
    3loPI   C3A   41  14.881  15.054   8.778 -0.0755  0.0714  0.0749
    3loPI   C4A   42  14.692  15.051   8.363  0.1126  0.2388 -0.2644
    3loPI   C5A   43  14.428  15.096   7.887  0.1658  0.0832  0.1235
    3loPI   C6A   44  14.079  15.347   7.658 -0.2567 -0.0865 -0.0391
    3loPI   C1B   45  15.337  15.093   9.453  0.0555  0.3018  0.1571
    3loPI   C2B   46  15.313  15.104   9.007 -0.1773 -0.3388 -0.1183
    3loPI   C3B   47  15.469  15.115   8.643 -0.0205 -0.0684 -0.1065
    3loPI   C4B   48  15.575  15.543   8.462 -0.0897 -0.1682 -0.0552
    4loPI    C1   49   9.004  18.033  11.522 -0.1039  0.0099  0.1169
    4loPI    C2   50   8.813  17.707  11.653  0.0569 -0.1293  0.0094
    4loPI    C3   51   9.188  17.780  11.772  0.0517 -0.0290 -0.0352
    4loPI   PO4   52   9.043  18.139  11.243  0.1388  0.2054 -0.0830
    4loPI   GL1   53   8.908  18.317  10.755  0.0460 -0.4114 -0.0905
    4loPI   GL2   54   9.313  18.207  10.742  0.0158 -0.0681  0.0051
    4loPI   C1A   55   8.792  18.307  10.282  0.1270  0.1273 -0.0639
    4loPI   C2A   56   8.732  18.312   9.827  0.1116  0.2110 -0.2147
    4loPI   C3A   57   8.824  18.403   9.367 -0.0548  0.0329  0.0404
    4loPI   C4A   58   8.804  18.417   8.922 -0.3055  0.1950  0.0766
    4loPI   C5A   59   8.754  18.251   8.451  0.0817 -0.3085 -0.3507
    4loPI   C6A   60   8.850  17.942   8.147  0.2082 -0.1245 -0.3034
    4loPI   C1B   61   9.329  18.448  10.251  0.1334 -0.0925  0.2267
    4loPI   C2B   62   9.326  18.363   9.908  0.0370  0.0505 -0.2076
    4loPI   C3B   63   9.360  18.364   9.506 -0.3000  0.0148 -0.0031
    4loPI   C4B   64   9.344  18.427   9.072 -0.0006  0.0538 -0.0053
    5loPI    C1   65   5.194   3.505  10.867  0.1901  0.1524 -0.1448
    5loPI    C2   66   5.088   3.278  11.179 -0.2532 -0.0475 -0.4297
    5loPI    C3   67   5.287   3.620  11.238  0.0291 -0.2826  0.0373
    5loPI   PO4   68   5.222   3.323  10.690 -0.1233 -0.0697  0.1492
    5loPI   GL1   69   5.301   3.319  10.309 -0.1355  0.2405  0.3190
    5loPI   GL2   70   5.480   3.599  10.139  0.1461 -0.1579  0.1784
    5loPI   C1A   71   5.320   3.279   9.780  0.1037 -0.0334 -0.0604
    5loPI   C2A   72   5.282   3.294   9.326  0.0592  0.1097  0.0245
    5loPI   C3A   73   5.189   3.164   8.821  0.0314 -0.1598 -0.2885
    5loPI   C4A   74   5.154   3.346   8.430 -0.1613 -0.0952  0.1193
    5loPI   C5A   75   5.184   3.417   7.989 -0.1850  0.1542 -0.0577
    5loPI   C6A   76   5.257   3.468   7.528  0.2195 -0.4659  0.0858
    5loPI   C1B   77   5.499   3.733   9.637 -0.1950  0.3226 -0.1174
    5loPI   C2B   78   5.504   3.680   9.128  0.1280 -0.3606  0.0741
    5loPI   C3B   79   5.408   3.802   8.646 -0.0765  0.3496 -0.2127
    5loPI   C4B   80   5.505   3.765   8.152  0.1910  0.0519 -0.0958
    6loPI    C1   81   5.618   0.554  11.046  0.1091  0.2013  0.0882
    6loPI    C2   82   5.378   0.697  10.760 -0.2217 -0.0438  0.2369
    6loPI    C3   83   5.588   0.949  10.989 -0.0364  0.1585 -0.1460
    6loPI   PO4   84   5.737   0.321  10.979  0.0387 -0.1730 -0.2580
    6loPI   GL1   85   5.774   0.242  10.636 -0.1774  0.4026  0.2286
    6loPI   GL2   86   5.434   0.228  10.496  0.0689 -0.1298 -0.0013
    6loPI   C1A   87   5.911   0.202  10.286  0.3837  0.2015 -0.1143
    6loPI   C2A   88   5.860   0.191   9.794 -0.2270  0.3122 -0.0580
    6loPI   C3A   89   5.996   0.259   9.380 -0.0036 -0.0206 -0.1761
    6loPI   C4A   90   6.011   0.192   8.947 -0.1988 -0.0364  0.4348
    6loPI   C5A   91   6.376   0.185   8.665  0.2833 -0.0464 -0.0060
    6loPI   C6A   92   6.791   0.238   8.468 -0.1383  0.0061 -0.4403
    6loPI   C1B   93   5.405   0.147  10.069 -0.2010 -0.2048 -0.2304
    6loPI   C2B   94   5.376   0.130   9.648 -0.2062  0.0758  0.1400
    6loPI   C3B   95   5.480   0.127   9.245 -0.0768 -0.0884 -0.3200
    6loPI   C4B   96   5.539   0.121   8.791 -0.0963  0.0921  0.2056
    7loPI    C1   97   2.095   8.285   9.759  0.0662 -0.1683  0.2065
    7loPI    C2   98   2.315   8.319  10.092 -0.0227  0.2480  0.2278
    7loPI    C3   99   2.117   8.637   9.949 -0.3571 -0.0409  0.0319
    7loPI   PO4  100   2.280   8.082   9.618 -0.0805  0.0216 -0.3265
    7loPI   GL1  101   2.169   7.926   9.242 -0.1026  0.2159 -0.0779
    7loPI   GL2  102   1.804   8.126   9.400  0.0913 -0.0205  0.2561
    7loPI   C1A  103   2.030   7.865   8.875 -0.0587  0.1748  0.3364
    7loPI   C2A  104   1.637   7.822   8.660  0.1311 -0.1033 -0.2109
    7loPI   C3A  105   1.505   7.468   8.526 -0.3649 -0.0280  0.0149
    7loPI   C4A  106   1.167   7.319   8.313  0.2406  0.0026  0.2198
    7loPI   C5A  107   0.759   7.392   8.091 -0.0963 -0.1111 -0.0430
    7loPI   C6A  108   0.485   7.422   7.720  0.0415  0.0088 -0.3054
    7loPI   C1B  109   1.753   8.277   8.908  0.0491  0.0719  0.1992
    7loPI   C2B  110   2.103   8.197   8.547  0.1328 -0.3861 -0.2555
    7loPI   C3B  111   2.065   8.001   8.099 -0.0161  0.3652  0.2558
    7loPI   C4B  112   1.990   7.696   7.760 -0.0755 -0.2437  0.1426
    8loPI    C1  113   0.279  10.023  10.642  0.1245  0.0410  0.0489
    8loPI    C2  114   0.148  10.154  10.996 -0.2266  0.0089 -0.0648
    8loPI    C3  115   0.500   9.965  10.970 -0.0788  0.2360  0.2231
    8loPI   PO4  116   0.290  10.250  10.444  0.0887  0.1007 -0.1856
    8loPI   GL1  117   0.296  10.263  10.094 -0.0114  0.2300  0.0368
    8loPI   GL2  118   0.516  10.167   9.886 -0.3649 -0.5025  0.0468
    8loPI   C1A  119  -0.034  10.315   9.880  0.3012 -0.2040  0.0534
    8loPI   C2A  120  -0.137  10.391   9.477 -0.1643 -0.0631  0.0928
    8loPI   C3A  121  -0.293  10.475   9.145 -0.2009 -0.1219 -0.1353
    8loPI   C4A  122  -0.529  10.404   8.745  0.2791 -0.0954  0.1606
    8loPI   C5A  123  -0.518  10.523   8.301  0.0927 -0.1958 -0.1109
    8loPI   C6A  124  -0.679  10.758   7.934 -0.3879 -0.0573  0.3908
    8loPI   C1B  125   0.460  10.282   9.476  0.4155 -0.1296  0.1446
    8loPI   C2B  126   0.360  10.462   9.091 -0.1060  0.1448 -0.0367
    8loPI   C3B  127   0.010  10.544   8.737  0.0790  0.0720  0.0714
    8loPI   C4B  128   0.041  10.521   8.287  0.0436 -0.5366 -0.1224
    9loPI    C1  129   7.529   0.943  11.140  0.1608  0.0590  0.0427
    9loPI    C2  130   7.638   1.031  11.515 -0.0067  0.0387  0.0967
    9loPI    C3  131   7.250   1.025  11.415  0.0337 -0.0286 -0.0589
    9loPI   PO4  132   7.843   0.778  11.097 -0.1491  0.1155  0.3972
    9loPI   GL1  133   8.063   0.646  10.684 -0.2271  0.0863  0.0778
    9loPI   GL2  134   8.423   0.643  10.645 -0.0017 -0.2793 -0.0102
    9loPI   C1A  135   8.055   0.924  10.360 -0.2954 -0.1056  0.0128
    9loPI   C2A  136   8.209   0.883   9.906 -0.1376 -0.1488 -0.0643
    9loPI   C3A  137   8.244   0.929   9.527  0.0407 -0.1251  0.2260
    9loPI   C4A  138   8.274   0.981   9.092 -0.1250  0.1409 -0.2420
    9loPI   C5A  139   8.299   0.890   8.777  0.2166 -0.1945  0.1379
    9loPI   C6A  140   8.273   0.746   8.297 -0.6326 -0.1769 -0.0222
    9loPI   C1B  141   8.495   0.699  10.257 -0.2146 -0.0250  0.0561
    9loPI   C2B  142   8.490   0.437   9.994  0.0858  0.3070 -0.0628
    9loPI   C3B  143   8.523   0.506   9.571 -0.1500 -0.0464 -0.0903
    9loPI   C4B  144   8.522   0.552   9.075 -0.1459  0.0726 -0.1738
   10loPI    C1  145   9.425  15.641  11.094 -0.1625  0.2104 -0.0809
   10loPI    C2  146   9.116  15.639  11.347 -0.1194 -0.4137 -0.0170
   10loPI    C3  147   9.489  15.664  11.488 -0.1215  0.0108 -0.0746
   10loPI   PO4  148   9.360  15.528  10.809  0.2418 -0.0056  0.0619
   10loPI   GL1  149   9.111  15.721  10.393  0.2437 -0.1190 -0.0232
   10loPI   GL2  150   9.076  15.432  10.418  0.0427 -0.1411  0.0252
   10loPI   C1A  151   9.184  15.706   9.925  0.0952 -0.0057 -0.1156
   10loPI   C2A  152   9.231  15.822   9.504  0.2571  0.1139 -0.0553
   10loPI   C3A  153   9.254  15.859   8.998 -0.1466 -0.2138 -0.0130
   10loPI   C4A  154   9.379  15.869   8.539 -0.0908  0.1176  0.2384
   10loPI   C5A  155   9.351  15.536   8.251  0.2746  0.3767  0.0486
   10loPI   C6A  156   9.398  15.281   7.868  0.0110 -0.1951  0.0433
   10loPI   C1B  157   8.693  15.582  10.105 -0.0544  0.3558 -0.0983
   10loPI   C2B  158   8.551  15.683   9.707  0.2429  0.0555  0.2904
   10loPI   C3B  159   8.739  15.750   9.317  0.0977  0.1418 -0.4373
   10loPI   C4B  160   8.729  15.769   8.882 -0.0227 -0.3739 -0.0408
   11loPI    C1  161   9.768  16.034  11.197  0.0120  0.0343 -0.0291
   11loPI    C2  162   9.789  16.400  11.357  0.0104  0.0879 -0.1497
   11loPI    C3  163   9.756  16.079  11.594  0.0578  0.1621 -0.0417
   11loPI   PO4  164   9.603  16.092  11.017  0.0081  0.2181 -0.0452
   11loPI   GL1  165   9.677  15.942  10.639 -0.0157 -0.2318 -0.1563
   11loPI   GL2  166  10.005  15.925  10.620 -0.2803  0.2041 -0.0262
   11loPI   C1A  167   9.668  15.914  10.227  0.0408 -0.2884 -0.0219
   11loPI   C2A  168   9.679  15.831   9.834 -0.0743  0.0646 -0.0989
   11loPI   C3A  169   9.774  15.847   9.394 -0.0967  0.1466 -0.1522
   11loPI   C4A  170   9.830  15.808   9.087 -0.0008 -0.0832  0.1347
   11loPI   C5A  171   9.854  15.841   8.716 -0.2857 -0.1626 -0.1720
   11loPI   C6A  172   9.900  15.775   8.264  0.4246  0.0599 -0.0979
   11loPI   C1B  173  10.219  15.914  10.205 -0.0469  0.0571 -0.0494
   11loPI   C2B  174  10.169  15.892   9.788 -0.0605  0.3268 -0.3085
   11loPI   C3B  175  10.332  15.796   9.398  0.0001 -0.1144 -0.0038
   11loPI   C4B  176  10.299  15.894   8.930  0.1295 -0.1871  0.1659
   12loPI    C1  177   9.723   0.638  11.065 -0.0734 -0.0776 -0.0057
   12loPI    C2  178   9.708   0.882  11.382  0.4717  0.1433 -0.1374
   12loPI    C3  179   9.569   0.508  11.410  0.1588  0.2810  0.2407
   12loPI   PO4  180   9.994   0.793  10.885  0.2656  0.0624 -0.0465
   12loPI   GL1  181  10.134   0.872  10.528 -0.0873  0.1367  0.2200
   12loPI   GL2  182   9.951   1.066  10.400 -0.0726 -0.0665  0.0601
   12loPI   C1A  183  10.149   0.695  10.160 -0.0100 -0.0243 -0.1632
   12loPI   C2A  184  10.209   0.808   9.760 -0.0737  0.1597  0.0037
   12loPI   C3A  185  10.177   0.741   9.336 -0.3158  0.0322 -0.2535
   12loPI   C4A  186  10.131   0.696   8.938  0.2987 -0.0944  0.0611
   12loPI   C5A  187  10.120   0.689   8.388 -0.0067 -0.0335  0.2750
   12loPI   C6A  188   9.956   0.586   7.916 -0.0981  0.0359 -0.1409
   12loPI   C1B  189   9.843   1.209   9.993  0.1233 -0.1034 -0.3421
   12loPI   C2B  190   9.815   1.192   9.540  0.2898 -0.0870  0.2058
   12loPI   C3B  191   9.800   1.128   9.165 -0.3132  0.1957  0.3387
   12loPI   C4B  192   9.741   0.969   8.653 -0.2627  0.1081  0.0568
   13loPI    C1  193  14.297  15.966  10.861 -0.0539  0.0370  0.1367
   13loPI    C2  194  14.580  16.066  10.597 -0.2618  0.1251 -0.0554
   13loPI    C3  195  14.679  15.990  10.977  0.0632 -0.1681 -0.1936
   13loPI   PO4  196  14.091  15.988  10.787  0.0714  0.0194 -0.0282
   13loPI   GL1  197  13.920  15.836  10.407  0.1665  0.0338 -0.0109
   13loPI   GL2  198  14.033  15.544  10.437 -0.0280 -0.2013  0.1443
   13loPI   C1A  199  13.735  15.804  10.019  0.3402 -0.1977  0.3178
   13loPI   C2A  200  13.700  15.902   9.584 -0.0211 -0.2645  0.0251
   13loPI   C3A  201  13.602  15.878   9.209  0.1990  0.0631  0.1047
   13loPI   C4A  202  13.631  15.884   8.722  0.1173 -0.0832 -0.1929
   13loPI   C5A  203  13.616  15.729   8.217  0.2015  0.2014 -0.2118
   13loPI   C6A  204  13.779  15.729   7.747  0.0064 -0.0473  0.1290
   13loPI   C1B  205  14.073  15.366  10.016 -0.2560 -0.1990  0.2927
   13loPI   C2B  206  13.974  15.403   9.612 -0.1682 -0.0408  0.3518
   13loPI   C3B  207  13.976  15.493   9.177 -0.1234 -0.1234 -0.0464
   13loPI   C4B  208  13.938  15.485   8.663 -0.0980  0.1640 -0.1542
   14loPI    C1  209  16.017   1.013  11.030 -0.0234  0.4165 -0.1506
   14loPI    C2  210  15.725   0.907  11.282  0.1376  0.0198 -0.1243
   14loPI    C3  211  16.025   1.139  11.409  0.0921  0.0202 -0.0170
   14loPI   PO4  212  15.886   1.011  10.851 -0.0451 -0.0175  0.1581
   14loPI   GL1  213  16.013   1.190  10.437  0.0743 -0.0751 -0.0571
   14loPI   GL2  214  15.689   1.206  10.344  0.2448  0.2467 -0.1500
   14loPI   C1A  215  16.175   1.151   9.970  0.1193  0.0976  0.0297
   14loPI   C2A  216  16.071   1.194   9.599 -0.1450  0.1426 -0.1930
   14loPI   C3A  217  16.132   1.171   9.096  0.0135  0.0142 -0.0294
   14loPI   C4A  218  16.033   1.070   8.758 -0.1031 -0.1409  0.3417
   14loPI   C5A  219  16.137   1.135   8.346 -0.1451  0.2442  0.2013
   14loPI   C6A  220  16.322   1.221   7.939 -0.1709 -0.0377 -0.3094
   14loPI   C1B  221  15.692   1.211   9.927 -0.0847 -0.2351  0.0555
   14loPI   C2B  222  15.530   1.100   9.509 -0.0240  0.1341 -0.2363
   14loPI   C3B  223  15.542   1.006   9.062 -0.4541 -0.4034  0.2856
   14loPI   C4B  224  15.502   1.015   8.566  0.0222  0.0473 -0.0250
   15loPI    C1  225   1.750  16.237  10.473  0.1354  0.1822 -0.0322
   15loPI    C2  226   1.629  16.038  10.798  0.1103 -0.0644 -0.1906
   15loPI    C3  227   1.960  15.923  10.605  0.2089  0.1743 -0.1660
   15loPI   PO4  228   1.531  16.239  10.284 -0.2084 -0.0014  0.1240
   15loPI   GL1  229   1.701  16.477   9.882  0.0728  0.0992  0.0986
   15loPI   GL2  230   1.610  16.797   9.693  0.0403  0.0381  0.0846
   15loPI   C1A  231   2.008  16.447   9.512 -0.1106 -0.2093 -0.3271
   15loPI   C2A  232   2.151  16.483   9.006 -0.3159 -0.0779  0.1592
   15loPI   C3A  233   2.348  16.730   8.654  0.0180 -0.0703 -0.2123
   15loPI   C4A  234   2.565  17.029   8.278  0.1516 -0.1107  0.1353
   15loPI   C5A  235   2.357  17.383   8.077  0.0603 -0.0700  0.2887
   15loPI   C6A  236   2.163  17.672   8.339 -0.0757 -0.1357 -0.0311
   15loPI   C1B  237   1.641  16.692   9.201 -0.2391 -0.1636  0.0376
   15loPI   C2B  238   1.724  16.694   8.696 -0.0037  0.5240 -0.1138
   15loPI   C3B  239   1.956  16.606   8.360  0.0499 -0.2860  0.1141
   15loPI   C4B  240   2.268  16.511   8.140 -0.4111  0.3487  0.0196
   16loPI    C1  241   9.533   4.481  10.983 -0.1533 -0.2633 -0.0522
   16loPI    C2  242   9.719   4.547  11.332 -0.0908 -0.3263 -0.0733
   16loPI    C3  243   9.358   4.705  11.264  0.0908  0.0657 -0.1556
   16loPI   PO4  244   9.807   4.618  10.842  0.2466 -0.0617 -0.0001
   16loPI   GL1  245   9.970   4.558  10.541  0.0143  0.3088  0.1417
   16loPI   GL2  246   9.719   4.260  10.364 -0.0624  0.0573  0.2750
   16loPI   C1A  247  10.123   4.415  10.136 -0.2417 -0.2602 -0.3716
   16loPI   C2A  248  10.185   4.381   9.682  0.3341  0.2133 -0.0198
   16loPI   C3A  249  10.121   4.473   9.195  0.1321  0.2880 -0.0551
   16loPI   C4A  250  10.118   4.462   8.803  0.2365 -0.0377 -0.0314
   16loPI   C5A  251   9.958   4.576   8.355 -0.0563 -0.1465  0.2982
   16loPI   C6A  252   9.660   4.752   8.159 -0.0560 -0.2733 -0.2500
   16loPI   C1B  253   9.607   4.305   9.945  0.4486 -0.0409 -0.4798
   16loPI   C2B  254   9.698   4.408   9.546 -0.3595  0.3154 -0.0719
   16loPI   C3B  255   9.615   4.396   9.094  0.0544  0.0804 -0.0441
   16loPI   C4B  256   9.579   4.370   8.716  0.2719 -0.0315 -0.0965
   17loPI    C1  257  12.280   3.612  11.038  0.0841 -0.1794  0.1225
   17loPI    C2  258  12.341   3.908  11.300 -0.1063 -0.1602  0.1459
   17loPI    C3  259  12.130   3.585  11.407  0.1113 -0.3117  0.1246
   17loPI   PO4  260  12.202   3.633  10.864 -0.0107 -0.0160  0.1388
   17loPI   GL1  261  12.262   3.323  10.479 -0.3128 -0.3942  0.0289
   17loPI   GL2  262  11.936   3.274  10.650  0.1269 -0.1076  0.1070
   17loPI   C1A  263  12.125   3.360  10.183  0.1058  0.0480 -0.0319
   17loPI   C2A  264  12.195   3.347   9.838  0.0355  0.1817 -0.1279
   17loPI   C3A  265  12.119   3.361   9.447 -0.0714  0.4091 -0.0562
   17loPI   C4A  266  12.122   3.355   8.933  0.0394 -0.0175  0.0077
   17loPI   C5A  267  12.111   3.247   8.546  0.3462  0.0054  0.1564
   17loPI   C6A  268  11.917   3.508   8.269  0.1774 -0.1342  0.1391
   17loPI   C1B  269  11.673   3.351  10.217  0.0278 -0.2675 -0.1179
   17loPI   C2B  270  11.566   3.225   9.761 -0.2157 -0.3301 -0.1108
   17loPI   C3B  271  11.603   3.200   9.299  0.0579 -0.1921 -0.1928
   17loPI   C4B  272  11.628   3.256   8.893 -0.2260 -0.0463 -0.2420
   18loPI    C1  273   6.772   3.315  10.738 -0.0718  0.2985 -0.1229
   18loPI    C2  274   7.038   3.612  10.710 -0.0080  0.2828  0.2654
   18loPI    C3  275   6.991   3.417  11.057 -0.2335  0.0100  0.0859
   18loPI   PO4  276   6.772   3.184  10.610 -0.2944 -0.0795 -0.0821
   18loPI   GL1  277   6.761   3.195  10.121  0.3174 -0.0425  0.2417
   18loPI   GL2  278   6.874   3.546  10.220 -0.1308 -0.1024 -0.3757
   18loPI   C1A  279   6.772   3.097   9.673  0.2648  0.3737  0.1383
   18loPI   C2A  280   6.707   3.043   9.251 -0.2118  0.0885  0.1338
   18loPI   C3A  281   6.624   2.953   8.741  0.0763 -0.0965 -0.2644
   18loPI   C4A  282   6.613   2.891   8.363  0.1626 -0.1265  0.3058
   18loPI   C5A  283   6.633   3.161   8.089 -0.3108  0.1794  0.1061
   18loPI   C6A  284   6.723   3.346   7.692  0.0019 -0.0402 -0.0445
   18loPI   C1B  285   6.924   3.569   9.765  0.0723  0.0510  0.1094
   18loPI   C2B  286   6.909   3.520   9.379  0.1224  0.1486  0.1330
   18loPI   C3B  287   6.867   3.463   8.887 -0.0574 -0.0997  0.3947
   18loPI   C4B  288   6.730   3.413   8.506 -0.1804  0.1015 -0.0691
   19loPI    C1  289  10.813  12.520  10.935  0.1150 -0.0839  0.0366
   19loPI    C2  290  10.859  12.866  11.131 -0.2661 -0.0212  0.0224
   19loPI    C3  291  10.603  12.591  11.268 -0.0687 -0.2408 -0.0442
   19loPI   PO4  292  10.818  12.593  10.682  0.2100  0.2569 -0.0164
   19loPI   GL1  293  10.768  12.570  10.234  0.3897 -0.1495  0.1958
   19loPI   GL2  294  10.836  12.344  10.085 -0.1913 -0.0034 -0.0107
   19loPI   C1A  295  11.011  12.703   9.781 -0.3004  0.2470  0.2320
   19loPI   C2A  296  10.938  12.817   9.381  0.3157 -0.1493  0.2426
   19loPI   C3A  297  11.007  12.758   8.911 -0.1305  0.2524  0.3618
   19loPI   C4A  298  11.091  12.786   8.436  0.1765 -0.1943 -0.2009
   19loPI   C5A  299  11.355  12.997   8.168 -0.2395  0.1219  0.0267
   19loPI   C6A  300  11.719  12.901   8.170 -0.0911 -0.0010  0.5640
   19loPI   C1B  301  10.813  12.281   9.652  0.0689 -0.2304 -0.1837
   19loPI   C2B  302  10.810  12.348   9.090  0.1125 -0.1439  0.0415
   19loPI   C3B  303  10.760  12.339   8.600 -0.1389 -0.2171 -0.1802
   19loPI   C4B  304  10.703  12.250   8.188  0.5210  0.0173  0.2358
   20loPI    C1  305   7.898  18.025  11.226  0.2168 -0.1446  0.0875
   20loPI    C2  306   7.848  18.351  11.453 -0.3806 -0.1999  0.0493
   20loPI    C3  307   7.989  18.014  11.615  0.0555  0.0149  0.1313
   20loPI   PO4  308   8.037  18.066  11.007 -0.3954 -0.1173 -0.1043
   20loPI   GL1  309   8.069  17.825  10.662  0.1881  0.2047 -0.0973
   20loPI   GL2  310   8.333  17.649  10.870  0.1213  0.0041 -0.1410
   20loPI   C1A  311   8.035  17.714  10.179 -0.0417  0.0154  0.2521
   20loPI   C2A  312   8.078  17.760   9.768 -0.0458  0.4540 -0.3223
   20loPI   C3A  313   8.139  17.883   9.251  0.1012  0.0280 -0.0684
   20loPI   C4A  314   8.087  17.905   8.822 -0.1116 -0.0169 -0.0547
   20loPI   C5A  315   7.909  18.016   8.449  0.0165  0.1824 -0.1987
   20loPI   C6A  316   7.627  17.900   8.329 -0.0720 -0.1170 -0.0595
   20loPI   C1B  317   8.491  17.831  10.381 -0.0093 -0.1464 -0.0625
   20loPI   C2B  318   8.506  17.855   9.942 -0.1535  0.2129  0.0200
   20loPI   C3B  319   8.609  17.926   9.455  0.3801  0.0433  0.0268
   20loPI   C4B  320   8.611  18.014   9.117  0.4289 -0.0435  0.0806
   21loPI    C1  321  17.824  14.318  10.379  0.0382  0.0555 -0.0572
   21loPI    C2  322  18.024  13.992  10.264  0.0656  0.0480  0.0109
   21loPI    C3  323  18.152  14.205  10.577 -0.1020 -0.0257  0.1311
   21loPI   PO4  324  17.827  14.451  10.137  0.3840  0.0904  0.0110
   21loPI   GL1  325  17.967  14.313   9.774 -0.0014 -0.1445 -0.2865
   21loPI   GL2  326  18.269  14.396  10.021 -0.0323  0.1545  0.0601
   21loPI   C1A  327  17.951  14.096   9.353  0.1012 -0.1171 -0.1018
   21loPI   C2A  328  17.916  14.050   8.980 -0.1225  0.0344 -0.0017
   21loPI   C3A  329  17.883  14.214   8.541  0.0931  0.2032 -0.3000
   21loPI   C4A  330  18.042  14.223   8.140 -0.1526 -0.1199  0.1124
   21loPI   C5A  331  18.479  14.085   8.025  0.2313 -0.1832 -0.0813
   21loPI   C6A  332  18.679  13.678   7.935 -0.2889  0.1107  0.1388
   21loPI   C1B  333  18.458  14.121   9.769 -0.0491 -0.1350  0.1067
   21loPI   C2B  334  18.440  14.117   9.348 -0.1972 -0.2787  0.0215
   21loPI   C3B  335  18.323  14.354   9.063 -0.3405 -0.1485 -0.0511
   21loPI   C4B  336  18.167  14.634   8.721 -0.0416 -0.0957  0.0754
   22loPI    C1  337  17.818  16.638  10.302 -0.1089  0.2059 -0.0000
   22loPI    C2  338  17.778  16.896  10.605 -0.1370 -0.1124  0.2730
   22loPI    C3  339  18.125  16.706  10.549 -0.0573  0.1169 -0.0393
   22loPI   PO4  340  17.641  16.622  10.180  0.1072  0.0507  0.0702
   22loPI   GL1  341  17.695  16.860   9.788 -0.1982 -0.0919  0.0868
   22loPI   GL2  342  17.983  16.667   9.743 -0.1882 -0.0951 -0.0775
   22loPI   C1A  343  17.520  16.903   9.516  0.0478 -0.2591  0.2840
   22loPI   C2A  344  17.265  16.809   9.199  0.2040  0.2544 -0.0182
   22loPI   C3A  345  17.070  16.437   8.959 -0.1295  0.1837 -0.2701
   22loPI   C4A  346  16.897  16.225   8.675 -0.1507  0.0173 -0.2806
   22loPI   C5A  347  16.629  16.105   8.272  0.0202 -0.0384  0.2697
   22loPI   C6A  348  16.518  15.640   8.054 -0.0394  0.1360 -0.1386
   22loPI   C1B  349  17.894  16.827   9.254 -0.4535  0.2447  0.3507
   22loPI   C2B  350  17.667  16.620   8.803  0.0738 -0.0283  0.0505
   22loPI   C3B  351  17.352  16.414   8.552  0.2471 -0.0638  0.1412
   22loPI   C4B  352  17.208  16.056   8.300 -0.0309 -0.0943  0.0217
   23loPI    C1  353   4.389   8.790  10.547 -0.2121 -0.0736  0.0006
   23loPI    C2  354   4.441   9.075  10.823 -0.0671 -0.0753 -0.0240
   23loPI    C3  355   4.095   8.875  10.805 -0.1271  0.0189  0.0681
   23loPI   PO4  356   4.573   8.808  10.385 -0.1665 -0.0034 -0.0312
   23loPI   GL1  357   4.659   8.715  10.002  0.0538 -0.1502  0.1291
   23loPI   GL2  358   4.892   8.644   9.824 -0.1181 -0.0464  0.1281
   23loPI   C1A  359   4.505   8.919   9.646 -0.1439 -0.0588 -0.3640
   23loPI   C2A  360   4.142   8.925   9.474 -0.2929 -0.2055 -0.1510
   23loPI   C3A  361   4.079   8.951   9.078  0.0008  0.2134 -0.1085
   23loPI   C4A  362   4.033   8.845   8.656  0.0887 -0.1559 -0.0178
   23loPI   C5A  363   4.040   9.101   8.217  0.0045  0.3227  0.0550
   23loPI   C6A  364   4.268   9.071   7.770  0.0546  0.1467  0.2896
   23loPI   C1B  365   4.709   8.510   9.522 -0.0971  0.0051 -0.0730
   23loPI   C2B  366   4.823   8.293   9.211  0.1876  0.1653  0.2224
   23loPI   C3B  367   4.596   8.133   8.822  0.1219 -0.0365  0.0274
   23loPI   C4B  368   4.333   8.001   8.502  0.1149  0.1569  0.0169
   24loPI    C1  369   7.506   3.568  10.999 -0.0691  0.1721 -0.0387
   24loPI    C2  370   7.763   3.552  11.305 -0.2307 -0.0715  0.0874
   24loPI    C3  371   7.608   3.903  11.192  0.1225  0.0718  0.0364
   24loPI   PO4  372   7.535   3.386  10.793 -0.1356 -0.1618 -0.4060
   24loPI   GL1  373   7.454   3.572  10.382 -0.0021 -0.0577 -0.1315
   24loPI   GL2  374   7.252   3.282  10.366 -0.0129 -0.2201 -0.0536
   24loPI   C1A  375   7.798   3.702  10.005 -0.1560  0.1097  0.3185
   24loPI   C2A  376   7.894   3.656   9.482  0.0282  0.1525 -0.1598
   24loPI   C3A  377   7.831   3.712   9.029 -0.2837  0.0018  0.2589
   24loPI   C4A  378   7.866   3.719   8.646  0.0970 -0.1291 -0.2517
   24loPI   C5A  379   8.053   3.769   8.232 -0.2497  0.1494  0.1625
   24loPI   C6A  380   8.483   3.903   8.159  0.2447  0.0090  0.1989
   24loPI   C1B  381   7.205   3.274   9.987 -0.3061  0.4240  0.1300
   24loPI   C2B  382   7.236   3.108   9.557 -0.2751 -0.1736  0.2119
   24loPI   C3B  383   7.163   3.110   9.116  0.0757 -0.1366 -0.1494
   24loPI   C4B  384   7.148   3.089   8.717 -0.0378  0.0785  0.0291
   25loPI    C1  385  15.075  17.051  11.143 -0.0473 -0.1602 -0.1048
   25loPI    C2  386  14.885  16.700  11.125 -0.0160 -0.1684 -0.2958
   25loPI    C3  387  14.814  16.950  11.429  0.1210 -0.4306 -0.0427
   25loPI   PO4  388  14.950  17.128  10.855 -0.1849  0.0449  0.4102
   25loPI   GL1  389  15.039  17.169  10.458 -0.3224 -0.0506  0.1823
   25loPI   GL2  390  15.148  16.908  10.341 -0.0608 -0.0047 -0.0801
   25loPI   C1A  391  14.997  17.334  10.095  0.3954 -0.0783 -0.0936
   25loPI   C2A  392  14.771  17.526   9.802  0.2833 -0.0582 -0.0763
   25loPI   C3A  393  14.802  17.457   9.323 -0.0069 -0.0230  0.2076
   25loPI   C4A  394  14.714  17.349   8.881  0.2252 -0.0924  0.1292
   25loPI   C5A  395  14.707  17.355   8.461 -0.2358  0.2792 -0.0208
   25loPI   C6A  396  14.685  17.613   8.139 -0.1332  0.1229 -0.0831
   25loPI   C1B  397  15.208  16.889   9.964  0.4348  0.1892 -0.0682
   25loPI   C2B  398  15.059  16.821   9.627 -0.2447 -0.2624 -0.0485
   25loPI   C3B  399  15.167  16.998   9.222 -0.1049 -0.1831 -0.1232
   25loPI   C4B  400  15.081  16.992   8.841 -0.1626 -0.1942 -0.2282
   26loPI    C1  401  14.526   5.820  10.809 -0.0399 -0.1322  0.0072
   26loPI    C2  402  14.857   5.636  10.936 -0.1721 -0.3597  0.0282
   26loPI    C3  403  14.577   5.747  11.199  0.0776  0.2254  0.0621
   26loPI   PO4  404  14.638   6.006  10.590  0.2754 -0.0041  0.2912
   26loPI   GL1  405  14.405   6.160  10.175  0.0835 -0.1023 -0.0156
   26loPI   GL2  406  14.718   5.890  10.120 -0.0633  0.0156 -0.1112
   26loPI   C1A  407  14.306   6.235   9.745  0.0274 -0.0200  0.1470
   26loPI   C2A  408  14.309   6.313   9.312  0.1199 -0.2464 -0.0314
   26loPI   C3A  409  14.304   6.209   8.866 -0.0513  0.2542  0.0722
   26loPI   C4A  410  13.988   6.232   8.556 -0.2830  0.1662  0.2061
   26loPI   C5A  411  13.684   6.021   8.353 -0.1826 -0.1316  0.0150
   26loPI   C6A  412  13.281   6.252   8.243 -0.1391 -0.0184  0.2089
   26loPI   C1B  413  14.676   5.907   9.574 -0.5418  0.2972 -0.3797
   26loPI   C2B  414  14.611   5.846   9.141  0.1180  0.0606 -0.1162
   26loPI   C3B  415  14.581   5.794   8.792 -0.0328 -0.0630  0.1159
   26loPI   C4B  416  14.467   5.955   8.383 -0.3036 -0.2127 -0.0271
   27loPI    C1  417  11.630   7.271  11.087  0.0005 -0.1905 -0.0705
   27loPI    C2  418  12.020   7.315  11.163 -0.0111  0.0271 -0.1296
   27loPI    C3  419  11.765   7.238  11.462  0.0235  0.2853 -0.0316
   27loPI   PO4  420  11.579   7.359  10.837  0.1634  0.1070 -0.1405
   27loPI   GL1  421  11.604   7.228  10.505  0.0265 -0.0361 -0.0501
   27loPI   GL2  422  11.879   7.142  10.264 -0.1159 -0.2684 -0.1122
   27loPI   C1A  423  11.182   7.081  10.264  0.1042 -0.2447  0.0367
   27loPI   C2A  424  11.062   6.854   9.868  0.0312  0.2128 -0.2955
   27loPI   C3A  425  10.958   6.795   9.410  0.4185 -0.0670  0.1354
   27loPI   C4A  426  11.027   6.869   9.070  0.0432  0.2550 -0.0785
   27loPI   C5A  427  11.197   6.864   8.647 -0.0524  0.0163 -0.1887
   27loPI   C6A  428  10.862   6.959   8.313 -0.3907  0.0255  0.3457
   27loPI   C1B  429  11.887   7.237   9.769  0.0972  0.1922  0.1891
   27loPI   C2B  430  11.840   7.335   9.270  0.1768 -0.0206  0.2361
   27loPI   C3B  431  11.907   7.391   8.894  0.1282 -0.1300 -0.0746
   27loPI   C4B  432  11.999   7.395   8.463  0.0556  0.2948 -0.0623
   28loPI    C1  433   6.764  14.892  11.124 -0.2855 -0.3009 -0.4953
   28loPI    C2  434   6.428  14.919  11.339  0.0827  0.1028  0.0566
   28loPI    C3  435   6.571  14.560  11.237 -0.2379 -0.0890  0.2643
   28loPI   PO4  436   6.818  15.073  10.964  0.0387  0.0159 -0.1819
   28loPI   GL1  437   6.737  14.903  10.561 -0.3132  0.0091 -0.2120
   28loPI   GL2  438   6.602  14.606  10.757 -0.1395 -0.1970 -0.0924
   28loPI   C1A  439   6.866  14.891  10.165  0.1742 -0.2648  0.2814
   28loPI   C2A  440   6.865  14.983   9.708  0.0052  0.1537 -0.4697
   28loPI   C3A  441   6.891  15.010   9.239  0.1851  0.2055 -0.1322
   28loPI   C4A  442   6.920  14.973   8.761  0.0116 -0.3044 -0.0181
   28loPI   C5A  443   6.833  14.627   8.461  0.1976  0.3274  0.1008
   28loPI   C6A  444   6.433  14.358   8.277  0.0483 -0.0897  0.1451
   28loPI   C1B  445   6.723  14.418  10.316  0.1264 -0.0228  0.0254
   28loPI   C2B  446   6.669  14.518   9.932 -0.1536  0.0251 -0.1676
   28loPI   C3B  447   6.726  14.570   9.442 -0.0820  0.1257  0.0276
   28loPI   C4B  448   6.667  14.553   8.974 -0.3200  0.0188  0.2836
   29loPI    C1  449   9.142  17.683  11.177 -0.1194  0.0314  0.2950
   29loPI    C2  450   9.045  17.322  11.319 -0.1522  0.0441  0.3046
   29loPI    C3  451   9.406  17.476  11.396 -0.0267 -0.1156  0.0489
   29loPI   PO4  452   8.804  17.712  11.139 -0.2129  0.0859 -0.0022
   29loPI   GL1  453   8.810  17.813  10.749 -0.1679  0.0675  0.2807
   29loPI   GL2  454   9.104  17.721  10.681 -0.1684  0.0727 -0.0574
   29loPI   C1A  455   8.867  17.466  10.290  0.0048 -0.1717  0.3346
   29loPI   C2A  456   8.894  17.505   9.801  0.3115 -0.2425  0.2538
   29loPI   C3A  457   9.038  17.522   9.412 -0.0174  0.0286 -0.0212
   29loPI   C4A  458   9.016  17.507   8.999  0.0071  0.1438 -0.1198
   29loPI   C5A  459   8.865  17.853   8.684  0.1881 -0.1671 -0.0055
   29loPI   C6A  460   8.419  17.774   8.447 -0.2123  0.4247  0.0179
   29loPI   C1B  461   9.125  17.890  10.327  0.0749 -0.1333  0.1318
   29loPI   C2B  462   9.034  17.936   9.986 -0.1110 -0.0207 -0.0582
   29loPI   C3B  463   9.117  17.994   9.591  0.0244 -0.5291  0.3781
   29loPI   C4B  464   9.178  17.985   9.228 -0.0495  0.3867  0.2312
   30loPI    C1  465  16.347   6.694  10.868  0.2730 -0.0133 -0.0157
   30loPI    C2  466  16.353   6.324  11.019 -0.2909 -0.0288 -0.0075
   30loPI    C3  467  16.389   6.639  11.262  0.1778 -0.0698 -0.0132
   30loPI   PO4  468  16.346   6.852  10.637  0.2173  0.1326 -0.0576
   30loPI   GL1  469  16.349   7.082  10.303  0.3458  0.1655  0.1546
   30loPI   GL2  470  16.557   7.113  10.081 -0.0397  0.0756 -0.2217
   30loPI   C1A  471  16.131   6.990   9.897 -0.1197  0.0114 -0.2642
   30loPI   C2A  472  16.051   6.993   9.443 -0.1145  0.2652 -0.2574
   30loPI   C3A  473  16.040   7.016   9.104  0.4198  0.1087 -0.0962
   30loPI   C4A  474  15.957   6.930   8.661  0.0287 -0.1258 -0.0281
   30loPI   C5A  475  16.018   6.962   8.183 -0.1323  0.1604 -0.1720
   30loPI   C6A  476  16.134   6.704   7.871  0.1498 -0.2861 -0.0209
   30loPI   C1B  477  16.658   7.124   9.604  0.0342 -0.1656 -0.0547
   30loPI   C2B  478  16.557   7.110   9.169  0.1246 -0.1312  0.1956
   30loPI   C3B  479  16.544   7.096   8.797 -0.0062 -0.0779  0.0037
   30loPI   C4B  480  16.488   7.054   8.417  0.1374 -0.2816  0.0580
   31loPI    C1  481  12.351  14.189  10.919  0.0857  0.0758 -0.0620
   31loPI    C2  482  12.128  14.455  10.720 -0.1162 -0.0792 -0.0469
   31loPI    C3  483  12.208  14.511  11.108 -0.1304 -0.0246 -0.0518
   31loPI   PO4  484  12.550  14.124  10.794 -0.3713  0.0324 -0.0561
   31loPI   GL1  485  12.530  14.350  10.406  0.3248  0.0056  0.0852
   31loPI   GL2  486  12.776  14.338  10.301 -0.0264 -0.1295  0.1467
   31loPI   C1A  487  12.518  14.406   9.897  0.0374 -0.1705 -0.2486
   31loPI   C2A  488  12.615  14.397   9.534  0.0070 -0.1026  0.0235
   31loPI   C3A  489  12.604  14.383   9.079  0.1844 -0.2160  0.0189
   31loPI   C4A  490  12.642  14.436   8.635 -0.0125 -0.1410 -0.0542
   31loPI   C5A  491  12.501  14.557   8.204 -0.1135 -0.1615  0.3023
   31loPI   C6A  492  12.564  14.429   7.767 -0.1784 -0.2844  0.1384
   31loPI   C1B  493  13.024  14.383   9.895 -0.1673 -0.1865  0.1896
   31loPI   C2B  494  13.157  14.436   9.540 -0.0134  0.1055  0.0751
   31loPI   C3B  495  13.077  14.427   9.063  0.0771  0.0540  0.1342
   31loPI   C4B  496  13.134  14.490   8.599  0.1571  0.1497  0.1088
   32loPI    C1  497   0.816   0.054  10.212  0.0306  0.0500  0.2048
   32loPI    C2  498   1.183  -0.065  10.107  0.0157  0.2467 -0.0831
   32loPI    C3  499   1.081  -0.048  10.493  0.1823 -0.1754 -0.0154
   32loPI   PO4  500   0.623  -0.030  10.046  0.0037  0.2356  0.0973
   32loPI   GL1  501   0.374   0.042   9.687  0.2090 -0.0547 -0.1279
   32loPI   GL2  502   0.446  -0.292   9.636 -0.1924  0.2451  0.0615
   32loPI   C1A  503   0.223  -0.080   9.229  0.1353  0.2003 -0.1969
   32loPI   C2A  504   0.292  -0.323   8.818  0.2171  0.0922  0.2001
   32loPI   C3A  505   0.085  -0.393   8.370  0.2018  0.0177  0.1034
   32loPI   C4A  506  -0.081  -0.130   8.056 -0.1820 -0.3066  0.3376
   32loPI   C5A  507  -0.130  -0.342   7.702  0.1301  0.1178  0.3004
   32loPI   C6A  508  -0.406  -0.256   7.275  0.1503  0.2364 -0.0917
   32loPI   C1B  509   0.776  -0.339   9.310  0.1341  0.1170  0.1599
   32loPI   C2B  510   0.748  -0.676   8.919 -0.0746 -0.4204 -0.1689
   32loPI   C3B  511   0.892  -0.643   8.467 -0.0754 -0.2614 -0.1579
   32loPI   C4B  512   0.858  -0.543   8.081 -0.1839 -0.0648 -0.0725
   33loPI    C1  513   5.796  10.821  10.326 -0.0063 -0.1747 -0.1583
   33loPI    C2  514   5.495  10.615  10.491 -0.0131  0.0108  0.0670
   33loPI    C3  515   5.863  10.593  10.648  0.0092  0.0843  0.0253
   33loPI   PO4  516   5.772  10.807  10.113 -0.0993  0.2382 -0.0437
   33loPI   GL1  517   5.952  10.733   9.778 -0.0953 -0.1964 -0.3398
   33loPI   GL2  518   6.204  10.801   9.643 -0.2301 -0.2854  0.1682
   33loPI   C1A  519   5.807  11.160   9.541 -0.1797  0.2561 -0.0755
   33loPI   C2A  520   5.599  11.469   9.340 -0.2583 -0.2263  0.0932
   33loPI   C3A  521   5.576  11.618   8.978 -0.1645  0.2115  0.1649
   33loPI   C4A  522   5.569  11.700   8.506 -0.0142 -0.0599 -0.4473
   33loPI   C5A  523   5.800  11.775   8.106 -0.1156 -0.0788 -0.1383
   33loPI   C6A  524   6.166  11.855   8.407 -0.1902  0.0740  0.0314
   33loPI   C1B  525   6.452  10.860   9.246  0.0985 -0.2860 -0.1781
   33loPI   C2B  526   6.267  11.026   8.779 -0.0471 -0.0441  0.0542
   33loPI   C3B  527   6.269  10.886   8.349  0.0090  0.1931 -0.0354
   33loPI   C4B  528   6.386  11.083   7.936  0.0914  0.0129 -0.0010
   34loPI    C1  529   6.734   6.629  10.903  0.2180  0.1414  0.1922
   34loPI    C2  530   6.380   6.602  11.087  0.0493  0.0116 -0.1429
   34loPI    C3  531   6.664   6.842  11.234 -0.1864  0.1392  0.1130
   34loPI   PO4  532   6.705   6.628  10.721 -0.2257 -0.2554  0.0488
   34loPI   GL1  533   6.608   6.754  10.361  0.2188 -0.0820 -0.0160
   34loPI   GL2  534   6.941   6.605  10.309 -0.3186  0.0245 -0.3623
   34loPI   C1A  535   6.649   6.786   9.918 -0.1131  0.2015  0.3190
   34loPI   C2A  536   6.617   6.774   9.434 -0.2916 -0.0619  0.1453
   34loPI   C3A  537   6.556   6.727   8.987 -0.2557  0.0892  0.1427
   34loPI   C4A  538   6.776   6.639   8.497 -0.0752  0.3087  0.1743
   34loPI   C5A  539   6.612   6.688   8.153 -0.0032 -0.0880 -0.2823
   34loPI   C6A  540   6.424   7.014   8.080  0.0309 -0.4286  0.2430
   34loPI   C1B  541   6.901   6.343   9.875 -0.2033 -0.0907 -0.2436
   34loPI   C2B  542   6.934   6.370   9.471  0.0198  0.0078 -0.1370
   34loPI   C3B  543   7.018   6.238   8.999  0.0774 -0.0782 -0.2338
   34loPI   C4B  544   7.095   6.117   8.578 -0.0196 -0.1440 -0.1209
   35loPI    C1  545  16.218   7.503  10.535 -0.1819  0.4029  0.1634
   35loPI    C2  546  16.224   7.298  10.878 -0.0124  0.1967  0.0401
   35loPI    C3  547  16.475   7.605  10.824  0.1035  0.0999  0.0242
   35loPI   PO4  548  15.947   7.541  10.490  0.0612 -0.0833 -0.0023
   35loPI   GL1  549  15.799   7.499  10.044 -0.1667 -0.1483  0.0996
   35loPI   GL2  550  16.174   7.432  10.048 -0.2143  0.1465 -0.0812
   35loPI   C1A  551  15.766   7.350   9.682 -0.3312 -0.1113 -0.3682
   35loPI   C2A  552  15.686   7.368   9.339  0.2656  0.1640 -0.1623
   35loPI   C3A  553  15.682   7.374   8.945 -0.0466 -0.1845  0.1740
   35loPI   C4A  554  15.682   7.456   8.567  0.0039  0.1291  0.0050
   35loPI   C5A  555  15.612   7.782   8.252  0.0580 -0.2747  0.0715
   35loPI   C6A  556  15.936   8.154   8.135 -0.0064 -0.1891  0.1926
   35loPI   C1B  557  16.305   7.487   9.632  0.0693  0.1781  0.1725
   35loPI   C2B  558  16.223   7.451   9.207 -0.1707  0.2611  0.3365
   35loPI   C3B  559  16.142   7.406   8.715  0.1001  0.3364  0.1376
   35loPI   C4B  560  16.086   7.453   8.238  0.1734 -0.2704 -0.4424
   36loPI    C1  561   6.657  15.397  11.318 -0.0584  0.0225  0.0102
   36loPI    C2  562   6.839  15.676  11.540 -0.0258  0.2230 -0.2638
   36loPI    C3  563   6.557  15.444  11.703  0.1837  0.1859  0.0555
   36loPI   PO4  564   6.551  15.465  11.164 -0.2548 -0.1659  0.0184
   36loPI   GL1  565   6.597  15.551  10.746 -0.0095 -0.0878 -0.1985
   36loPI   GL2  566   6.779  15.764  10.534  0.0965  0.2376 -0.0213
   36loPI   C1A  567   6.555  15.362  10.308  0.0565  0.0005 -0.0376
   36loPI   C2A  568   6.505  15.318   9.884 -0.0461  0.0429 -0.1313
   36loPI   C3A  569   6.561  15.401   9.490  0.0947 -0.0923 -0.1295
   36loPI   C4A  570   6.627  15.440   9.071 -0.0122  0.1848  0.1292
   36loPI   C5A  571   6.707  15.370   8.628 -0.2017 -0.1321 -0.1569
   36loPI   C6A  572   6.767  15.102   8.262 -0.1873 -0.0354  0.1744
   36loPI   C1B  573   6.727  15.810  10.113  0.2914  0.0594 -0.2127
   36loPI   C2B  574   6.724  15.821   9.741  0.3243 -0.1191 -0.1543
   36loPI   C3B  575   6.912  15.865   9.277  0.2337  0.1816  0.0255
   36loPI   C4B  576   6.941  15.813   8.867  0.0999  0.0591  0.3005
   37loPI    C1  577  10.568   2.007  11.379 -0.0840 -0.1755  0.1536
   37loPI    C2  578  10.897   1.851  11.545  0.0045  0.1212  0.2638
   37loPI    C3  579  10.661   2.094  11.758 -0.2651 -0.0553  0.1715
   37loPI   PO4  580  10.625   2.081  11.146 -0.0947  0.4007  0.0325
   37loPI   GL1  581  10.533   1.823  10.849 -0.0942  0.0628  0.1757
   37loPI   GL2  582  10.777   1.964  10.639 -0.1942  0.1209  0.2555
   37loPI   C1A  583  10.387   1.923  10.382 -0.2081  0.2272 -0.3630
   37loPI   C2A  584  10.558   1.717   9.986 -0.1837 -0.0269  0.2349
   37loPI   C3A  585  10.498   1.701   9.558 -0.0520  0.0700 -0.0468
   37loPI   C4A  586  10.572   1.636   9.139  0.1122 -0.0811 -0.3307
   37loPI   C5A  587  10.448   1.652   8.749 -0.2367 -0.0548 -0.3613
   37loPI   C6A  588  10.071   1.594   8.481 -0.3068  0.0497  0.0313
   37loPI   C1B  589  10.959   1.851  10.204 -0.0222  0.4144 -0.3406
   37loPI   C2B  590  11.028   1.839   9.796 -0.2059 -0.0324  0.1365
   37loPI   C3B  591  11.041   1.772   9.424  0.0091 -0.2166  0.0233
   37loPI   C4B  592  11.003   1.883   9.021 -0.2345  0.1197 -0.1260
   38loPI    C1  593  13.440   6.284  10.942  0.0527  0.2747 -0.0579
   38loPI    C2  594  13.254   5.965  11.098 -0.1293  0.4077  0.0004
   38loPI    C3  595  13.332   6.284  11.328  0.1753  0.3530 -0.0232
   38loPI   PO4  596  13.601   6.176  10.775 -0.1148  0.1076 -0.1409
   38loPI   GL1  597  13.794   6.158  10.307 -0.0052 -0.0662 -0.0727
   38loPI   GL2  598  13.792   5.846  10.354  0.2118  0.0877  0.3077
   38loPI   C1A  599  13.790   6.201   9.877 -0.0999  0.3282  0.1406
   38loPI   C2A  600  13.784   6.152   9.374  0.1663  0.0841  0.1151
   38loPI   C3A  601  13.767   6.336   9.038  0.2141 -0.1885  0.3178
   38loPI   C4A  602  13.574   6.418   8.678 -0.1087 -0.1293  0.0572
   38loPI   C5A  603  13.654   6.678   8.320 -0.0110 -0.0624  0.1596
   38loPI   C6A  604  13.500   6.992   8.063 -0.2760 -0.1053  0.1735
   38loPI   C1B  605  13.725   5.692  10.006 -0.0730 -0.0920 -0.1449
   38loPI   C2B  606  13.721   5.689   9.593  0.1684  0.0406  0.0260
   38loPI   C3B  607  13.559   5.720   9.173 -0.2938  0.3687  0.0796
   38loPI   C4B  608  13.535   5.687   8.752 -0.1631 -0.3063  0.0251
   39loPI    C1  609  12.124  10.101  10.202 -0.1264  0.1254  0.2297
   39loPI    C2  610  12.154  10.246  10.573 -0.4477  0.0561  0.2855
   39loPI    C3  611  11.953  10.450  10.294 -0.0829  0.1803  0.1059
   39loPI   PO4  612  12.338  10.086  10.108  0.3355 -0.1353  0.1067
   39loPI   GL1  613  12.520  10.179   9.721  0.1833 -0.0216  0.2733
   39loPI   GL2  614  12.808  10.394   9.709  0.0224  0.3728 -0.1606
   39loPI   C1A  615  12.472  10.251   9.319 -0.0219  0.0456 -0.1989
   39loPI   C2A  616  12.349  10.199   8.935  0.0468  0.0174  0.0501
   39loPI   C3A  617  12.217  10.229   8.661  0.0721  0.3615 -0.1318
   39loPI   C4A  618  12.312  10.108   8.331 -0.0061  0.4437  0.1729
   39loPI   C5A  619  12.477  10.024   8.063 -0.1574  0.0893  0.1643
   39loPI   C6A  620  12.848   9.946   7.908  0.3082  0.1092  0.0096
   39loPI   C1B  621  13.054  10.250   9.491 -0.0383  0.1769 -0.0869
   39loPI   C2B  622  12.950  10.358   9.076  0.0609 -0.0099 -0.2601
   39loPI   C3B  623  12.739  10.353   8.686 -0.0545  0.0415  0.2561
   39loPI   C4B  624  12.844  10.199   8.321  0.4582 -0.0420 -0.2956
   40loPI    C1  625   6.712   0.836  11.450 -0.0460  0.1201 -0.0352
   40loPI    C2  626   6.396   0.997  11.267  0.0085  0.2082 -0.0522
   40loPI    C3  627   6.569   1.189  11.572  0.0197  0.1402 -0.0157
   40loPI   PO4  628   6.822   0.740  11.329 -0.2268 -0.0943 -0.0492
   40loPI   GL1  629   6.614   0.644  10.933 -0.0610  0.1701  0.5214
   40loPI   GL2  630   6.689   0.419  10.791  0.2179 -0.0135 -0.2073
   40loPI   C1A  631   6.606   0.697  10.409 -0.0114  0.0231  0.0039
   40loPI   C2A  632   6.544   0.741   9.977 -0.2578  0.1310 -0.1378
   40loPI   C3A  633   6.618   0.770   9.577 -0.0540 -0.2379  0.1820
   40loPI   C4A  634   6.648   0.894   9.129 -0.1265 -0.1618 -0.2033
   40loPI   C5A  635   6.671   0.727   8.691 -0.3976  0.0923 -0.3700
   40loPI   C6A  636   6.921   0.702   8.292 -0.0837  0.1620 -0.1051
   40loPI   C1B  637   6.939   0.342  10.470 -0.2418  0.0359  0.2259
   40loPI   C2B  638   6.857   0.243  10.062  0.4142 -0.1351  0.0431
   40loPI   C3B  639   6.964   0.396   9.765  0.0983 -0.0440  0.4357
   40loPI   C4B  640   6.983   0.496   9.353 -0.1518  0.0535  0.1683
   41loPI    C1  641  16.252   1.973  10.823 -0.1771  0.2265  0.0319
   41loPI    C2  642  16.609   2.145  10.876  0.1243 -0.3349 -0.1027
   41loPI    C3  643  16.328   2.176  11.159  0.3084  0.0348  0.0460
   41loPI   PO4  644  16.322   1.832  10.598 -0.6192 -0.2005  0.2941
   41loPI   GL1  645  16.227   1.626  10.288  0.0233 -0.0323 -0.0084
   41loPI   GL2  646  15.899   1.662  10.159  0.2722 -0.0617  0.0284
   41loPI   C1A  647  16.367   1.675   9.940 -0.0749 -0.0943 -0.1975
   41loPI   C2A  648  16.351   1.603   9.467  0.1799 -0.3274 -0.0393
   41loPI   C3A  649  16.360   1.645   9.042  0.0538  0.1929 -0.0306
   41loPI   C4A  650  16.249   1.472   8.668 -0.3557  0.1109 -0.3614
   41loPI   C5A  651  16.241   1.679   8.345  0.0021 -0.0399 -0.2124
   41loPI   C6A  652  16.558   2.003   8.319 -0.2601  0.1695 -0.1806
   41loPI   C1B  653  15.842   1.607   9.708  0.2289 -0.0008  0.1160
   41loPI   C2B  654  15.912   1.622   9.230  0.1839  0.0660 -0.1187
   41loPI   C3B  655  15.799   1.566   8.858  0.2685 -0.1519 -0.0138
   41loPI   C4B  656  15.731   1.472   8.425 -0.2151  0.0206 -0.1372
   42loPI    C1  657   9.008  16.922  10.949  0.0087  0.0457 -0.0284
   42loPI    C2  658   9.160  17.268  10.816 -0.0847  0.0641 -0.0879
   42loPI    C3  659   9.271  16.922  10.647 -0.0746  0.0740 -0.1011
   42loPI   PO4  660   8.783  16.880  10.899 -0.0765 -0.0102 -0.0801
   42loPI   GL1  661   8.787  16.877  10.466 -0.1041 -0.1252  0.3066
   42loPI   GL2  662   8.914  16.554  10.487  0.1061 -0.0407 -0.1643
   42loPI   C1A  663   8.626  16.903  10.036  0.1497 -0.0541  0.1793
   42loPI   C2A  664   8.765  17.037   9.667 -0.2638  0.3500 -0.0263
   42loPI   C3A  665   8.825  17.056   9.312 -0.1144 -0.1202  0.0491
   42loPI   C4A  666   8.822  17.037   8.934  0.2726  0.3242 -0.1483
   42loPI   C5A  667   8.927  17.198   8.540  0.1064  0.2687  0.1250
   42loPI   C6A  668   8.761  17.470   8.199  0.0859 -0.2202  0.3544
   42loPI   C1B  669   8.946  16.549  10.036  0.0468  0.1818 -0.1569
   42loPI   C2B  670   9.123  16.616   9.722 -0.2577 -0.0958 -0.0894
   42loPI   C3B  671   9.138  16.665   9.217  0.0117  0.0787  0.0774
   42loPI   C4B  672   9.255  16.722   8.836  0.3973 -0.0664 -0.2828
   43loPI    C1  673   1.821  10.821  10.414 -0.0174  0.1192 -0.1604
   43loPI    C2  674   1.599  10.835  10.746 -0.0469  0.0310 -0.1761
   43loPI    C3  675   1.444  10.690  10.407  0.1228 -0.3014 -0.1159
   43loPI   PO4  676   1.974  10.976  10.379  0.2842 -0.0266 -0.1529
   43loPI   GL1  677   2.028  11.103   9.900 -0.0401  0.4401  0.0320
   43loPI   GL2  678   1.830  10.946   9.898  0.0286  0.0840  0.3084
   43loPI   C1A  679   2.237  11.154   9.519  0.2216 -0.0087  0.2101
   43loPI   C2A  680   2.351  11.106   9.064  0.1734  0.1334  0.0180
   43loPI   C3A  681   2.479  11.080   8.664 -0.0187 -0.0226  0.2296
   43loPI   C4A  682   2.507  11.162   8.214 -0.0346 -0.1090 -0.1316
   43loPI   C5A  683   2.195  11.021   7.909  0.2819  0.0407  0.1169
   43loPI   C6A  684   2.253  11.411   7.665  0.2010  0.4792  0.2512
   43loPI   C1B  685   1.827  10.795   9.532 -0.0447  0.0087  0.1505
   43loPI   C2B  686   1.796  10.896   9.125  0.0606 -0.1072 -0.0673
   43loPI   C3B  687   2.004  10.747   8.707 -0.3498 -0.2641 -0.1410
   43loPI   C4B  688   2.094  10.671   8.193  0.2300 -0.0385 -0.1169
   44loPI    C1  689  17.639   9.366  10.174  0.0536  0.0566 -0.1730
   44loPI    C2  690  18.026   9.268  10.146  0.0712  0.0700  0.0101
   44loPI    C3  691  17.879   9.409  10.491 -0.0837  0.1246 -0.0771
   44loPI   PO4  692  17.504   9.178  10.065  0.2173 -0.3050 -0.2814
   44loPI   GL1  693  17.205   9.106   9.863  0.1320 -0.0605 -0.1826
   44loPI   GL2  694  17.125   9.392   9.857 -0.0482 -0.2156 -0.0098
   44loPI   C1A  695  17.303   8.976   9.430 -0.1567  0.1110 -0.0913
   44loPI   C2A  696  17.365   8.868   9.039  0.2093 -0.0543  0.2526
   44loPI   C3A  697  17.408   8.960   8.593 -0.6123  0.2391 -0.0720
   44loPI   C4A  698  17.628   9.153   8.186  0.3111  0.2468 -0.0412
   44loPI   C5A  699  17.800   8.943   7.911  0.0256 -0.1299  0.2555
   44loPI   C6A  700  17.942   8.576   7.938  0.0855  0.0699  0.2059
   44loPI   C1B  701  16.995   9.293   9.458 -0.4474 -0.0918 -0.1137
   44loPI   C2B  702  16.860   9.423   9.059  0.2373 -0.1600  0.1830
   44loPI   C3B  703  16.770   9.460   8.635 -0.1654  0.0563  0.5443
   44loPI   C4B  704  16.629   9.583   8.194  0.0451 -0.0099  0.0155
   45loPI    C1  705  15.101   2.342  11.031 -0.1693 -0.0069 -0.1689
   45loPI    C2  706  15.092   2.037  11.289  0.0323  0.1078 -0.0237
   45loPI    C3  707  14.847   2.349  11.339 -0.1921 -0.0398 -0.1869
   45loPI   PO4  708  15.051   2.269  10.809  0.0076  0.2062  0.0359
   45loPI   GL1  709  15.162   2.100  10.460  0.3115  0.0641  0.0214
   45loPI   GL2  710  14.954   1.860  10.279 -0.1340 -0.1140  0.0887
   45loPI   C1A  711  15.161   2.294  10.112 -0.0359  0.0564 -0.0125
   45loPI   C2A  712  15.172   2.342   9.683  0.0570  0.0847  0.1967
   45loPI   C3A  713  15.133   2.399   9.286  0.1909  0.0992 -0.2465
   45loPI   C4A  714  15.190   2.277   8.907 -0.1775  0.0489 -0.0346
   45loPI   C5A  715  15.255   2.265   8.463 -0.1959 -0.1459  0.0902
   45loPI   C6A  716  15.111   2.290   8.068  0.0107  0.2859 -0.2196
   45loPI   C1B  717  14.961   1.828   9.842  0.0640  0.0415  0.0155
   45loPI   C2B  718  14.896   1.840   9.491  0.1390 -0.3233 -0.1160
   45loPI   C3B  719  14.855   1.842   9.015 -0.3650 -0.0002  0.0540
   45loPI   C4B  720  14.919   1.904   8.610  0.2417 -0.2027  0.0618
   46loPI    C1  721  14.151   5.037  11.222  0.1738 -0.1100  0.1075
   46loPI    C2  722  14.137   5.436  11.254  0.5040 -0.0826 -0.0497
   46loPI    C3  723  14.444   5.233  11.412  0.3357 -0.2765  0.0325
   46loPI   PO4  724  14.090   5.034  10.827  0.0099  0.1697 -0.1773
   46loPI   GL1  725  14.021   4.855  10.409  0.2902 -0.0058 -0.0107
   46loPI   GL2  726  14.272   4.569  10.408  0.2469 -0.0360 -0.2678
   46loPI   C1A  727  13.853   4.818  10.069 -0.0436  0.2161  0.3884
   46loPI   C2A  728  13.764   4.795   9.672 -0.1502  0.1831 -0.1956
   46loPI   C3A  729  13.722   4.862   9.228 -0.0028 -0.0604  0.2150
   46loPI   C4A  730  13.576   4.881   8.812 -0.1215  0.2970  0.1237
   46loPI   C5A  731  13.452   4.922   8.355  0.1543 -0.1395  0.0445
   46loPI   C6A  732  13.620   4.533   8.266 -0.1507  0.2718  0.1147
   46loPI   C1B  733  14.217   4.467   9.979 -0.1943 -0.1663  0.0415
   46loPI   C2B  734  14.141   4.460   9.653 -0.0157 -0.2429  0.1173
   46loPI   C3B  735  14.050   4.412   9.235  0.0761  0.2266 -0.2112
   46loPI   C4B  736  13.846   4.516   8.761  0.1427  0.0422 -0.0653
   47loPI    C1  737   9.036  11.586  10.587 -0.0915  0.0351 -0.0062
   47loPI    C2  738   9.229  11.391  10.879  0.1081 -0.0062 -0.1633
   47loPI    C3  739   8.879  11.569  10.955  0.1335 -0.0593  0.0879
   47loPI   PO4  740   9.171  11.695  10.478  0.0156 -0.2221  0.0347
   47loPI   GL1  741   9.357  11.674  10.099  0.1235  0.2958 -0.0263
   47loPI   GL2  742   9.456  11.989   9.991  0.3499 -0.2283 -0.1505
   47loPI   C1A  743   9.650  11.625   9.707  0.0711  0.1018  0.2052
   47loPI   C2A  744   9.717  11.609   9.239 -0.2452  0.0259  0.0805
   47loPI   C3A  745   9.850  11.447   8.835 -0.2304 -0.0532 -0.1391
   47loPI   C4A  746   9.956  11.203   8.450  0.0856  0.1804  0.0233
   47loPI   C5A  747  10.082  10.957   8.066 -0.2350 -0.2378  0.0912
   47loPI   C6A  748  10.048  10.658   7.936  0.4191  0.2356  0.3113
   47loPI   C1B  749   9.384  11.962   9.554 -0.3369 -0.0314  0.0618
   47loPI   C2B  750   9.366  11.974   9.199  0.0175 -0.2260  0.1145
   47loPI   C3B  751   9.332  12.105   8.752  0.0593  0.1396 -0.1469
   47loPI   C4B  752   9.498  12.084   8.293  0.0615  0.0793 -0.0793
   48loPI    C1  753  14.837  14.373  10.687  0.2334  0.0985 -0.3395
   48loPI    C2  754  15.090  14.088  10.809 -0.0884 -0.1327 -0.1973
   48loPI    C3  755  14.955  14.360  11.070  0.0621  0.0320 -0.2884
   48loPI   PO4  756  14.626  14.227  10.621 -0.1008 -0.3162 -0.2440
   48loPI   GL1  757  14.712  13.988  10.301 -0.1466 -0.0834 -0.1306
   48loPI   GL2  758  15.105  13.856  10.380 -0.0268 -0.2769 -0.2992
   48loPI   C1A  759  14.475  13.995   9.967 -0.0974  0.2523  0.5663
   48loPI   C2A  760  14.509  14.137   9.486 -0.0581 -0.3003 -0.0929
   48loPI   C3A  761  14.504  14.118   8.997 -0.2116  0.2339  0.1662
   48loPI   C4A  762  14.444  14.121   8.599 -0.0837 -0.1248 -0.4244
   48loPI   C5A  763  14.088  14.011   8.216 -0.1215 -0.0036 -0.0019
   48loPI   C6A  764  13.867  14.399   8.042  0.0734  0.2419  0.5171
   48loPI   C1B  765  15.350  13.729  10.057 -0.0374 -0.1300  0.2762
   48loPI   C2B  766  15.265  13.817   9.629 -0.0301  0.2126  0.2399
   48loPI   C3B  767  15.278  13.751   9.150 -0.1413 -0.2299  0.3436
   48loPI   C4B  768  15.319  13.833   8.726 -0.0567 -0.0127 -0.1095
   49loPI    C1  769   0.958  17.761  10.309  0.2762  0.0728  0.0045
   49loPI    C2  770   0.943  17.771  10.708 -0.0109  0.2170 -0.0066
   49loPI    C3  771   0.710  17.516  10.506 -0.0405  0.3100 -0.0901
   49loPI   PO4  772   1.281  17.680  10.123  0.1285 -0.0228  0.0458
   49loPI   GL1  773   1.227  17.694   9.684 -0.2234  0.0085 -0.0938
   49loPI   GL2  774   0.900  17.848   9.814  0.1242 -0.2693 -0.1938
   49loPI   C1A  775   1.600  17.852   9.348  0.1734  0.0113  0.4551
   49loPI   C2A  776   1.722  17.861   8.888  0.1479  0.2678  0.0401
   49loPI   C3A  777   1.739  17.977   8.413  0.0158  0.1393 -0.5461
   49loPI   C4A  778   1.802  17.691   7.987 -0.0792  0.0908  0.0691
   49loPI   C5A  779   1.759  17.240   8.023  0.1186 -0.2644  0.1605
   49loPI   C6A  780   2.082  16.949   7.989  0.0670  0.2017  0.0339
   49loPI   C1B  781   1.180  18.143   9.582 -0.2055 -0.2624 -0.4425
   49loPI   C2B  782   1.188  18.173   9.243 -0.0643 -0.1059 -0.1267
   49loPI   C3B  783   1.164  17.903   8.840 -0.1608 -0.2119  0.3445
   49loPI   C4B  784   1.208  18.018   8.446 -0.3514  0.3211  0.2939
   50loPI    C1  785   1.979   4.126  10.368  0.0616  0.2493 -0.0370
   50loPI    C2  786   1.866   3.844  10.629 -0.0236  0.1452 -0.1847
   50loPI    C3  787   1.870   4.229  10.738 -0.1206  0.1084 -0.0500
   50loPI   PO4  788   2.057   3.942  10.175 -0.3479 -0.0410  0.2923
   50loPI   GL1  789   1.804   3.680   9.897  0.1871 -0.1753 -0.1784
   50loPI   GL2  790   1.610   4.031  10.096  0.1924  0.2031  0.1337
   50loPI   C1A  791   1.759   3.399   9.486 -0.4907  0.1754 -0.0561
   50loPI   C2A  792   1.906   3.480   9.065  0.0503  0.2298  0.0609
   50loPI   C3A  793   1.908   3.365   8.682  0.0890  0.1697 -0.0001
   50loPI   C4A  794   1.871   3.242   8.251 -0.1529  0.2108  0.0988
   50loPI   C5A  795   2.158   3.080   7.893 -0.3438  0.0897 -0.1194
   50loPI   C6A  796   2.482   2.883   7.740  0.0331  0.1584  0.1079
   50loPI   C1B  797   1.544   4.098   9.691  0.0416  0.0035 -0.2393
   50loPI   C2B  798   1.694   4.369   9.328 -0.2127  0.0963 -0.0368
   50loPI   C3B  799   1.718   4.330   8.841 -0.3283 -0.2556  0.1455
   50loPI   C4B  800   1.677   4.125   8.400 -0.3407 -0.1444 -0.2101
   51loPI    C1  801  15.074  16.279  10.955  0.0130  0.1506  0.0224
   51loPI    C2  802  15.219  15.916  11.042 -0.0533  0.0646 -0.2182
   51loPI    C3  803  15.027  16.127  11.322  0.1386 -0.0110 -0.0269
   51loPI   PO4  804  15.104  16.204  10.606  0.1725 -0.1555  0.0425
   51loPI   GL1  805  15.017  15.983  10.241 -0.2269  0.0372 -0.0623
   51loPI   GL2  806  14.850  16.341  10.135 -0.2075  0.5743 -0.1501
   51loPI   C1A  807  14.773  15.905   9.807  0.1275 -0.0676  0.0518
   51loPI   C2A  808  14.704  15.927   9.350 -0.0882 -0.1561  0.0453
   51loPI   C3A  809  14.614  15.949   8.943 -0.2828  0.0904  0.1571
   51loPI   C4A  810  14.670  16.074   8.541  0.0436  0.2589 -0.1001
   51loPI   C5A  811  14.492  16.093   8.126 -0.0163 -0.0815  0.4631
   51loPI   C6A  812  14.375  16.394   7.780  0.0539  0.0134 -0.1394
   51loPI   C1B  813  14.932  16.362   9.599 -0.5739  0.0286  0.1282
   51loPI   C2B  814  14.887  16.581   9.160  0.0347  0.1339 -0.1301
   51loPI   C3B  815  14.863  16.485   8.722  0.1994  0.0311 -0.2997
   51loPI   C4B  816  14.752  16.576   8.323  0.1785  0.2677  0.1608
   52loPI    C1  817   5.517   4.324  10.853 -0.1605  0.2049 -0.0115
   52loPI    C2  818   5.851   4.535  10.913 -0.0786  0.1366 -0.2175
   52loPI    C3  819   5.670   4.355  11.221  0.3160 -0.1872 -0.1667
   52loPI   PO4  820   5.564   4.207  10.568 -0.2013 -0.1777  0.0027
   52loPI   GL1  821   5.528   4.089  10.169 -0.1252 -0.2824  0.1739
   52loPI   GL2  822   5.854   3.954  10.199 -0.0517  0.0312  0.1883
   52loPI   C1A  823   5.673   4.258   9.807 -0.2270 -0.2584 -0.1750
   52loPI   C2A  824   5.660   4.250   9.475  0.0365 -0.2067 -0.0099
   52loPI   C3A  825   5.688   4.235   8.999  0.3237  0.2894  0.0052
   52loPI   C4A  826   5.567   4.246   8.544  0.0578 -0.1499  0.0325
   52loPI   C5A  827   5.726   4.322   8.120 -0.1807  0.0300 -0.0242
   52loPI   C6A  828   5.684   4.339   7.635 -0.0753  0.1033 -0.0409
   52loPI   C1B  829   5.978   3.854   9.834 -0.0472 -0.0349 -0.0951
   52loPI   C2B  830   6.003   3.792   9.437 -0.0109 -0.1529  0.0882
   52loPI   C3B  831   6.052   3.730   9.031  0.3974  0.4357  0.1317
   52loPI   C4B  832   5.942   3.801   8.548 -0.0274  0.3324 -0.1725
   53loPI    C1  833   1.278   7.808  10.061  0.1837  0.0175  0.1051
   53loPI    C2  834   1.416   7.973  10.398 -0.1196  0.1241  0.1811
   53loPI    C3  835   1.264   8.205  10.109  0.0331  0.0238  0.0178
   53loPI   PO4  836   1.466   7.648  10.026  0.1038 -0.1133  0.0021
   53loPI   GL1  837   1.417   7.530   9.636  0.0193 -0.0810 -0.2567
   53loPI   GL2  838   1.099   7.689   9.551 -0.2562  0.3955 -0.0372
   53loPI   C1A  839   1.463   7.539   9.069 -0.0605  0.0197  0.0798
   53loPI   C2A  840   1.876   7.369   8.889  0.0377 -0.0993 -0.4258
   53loPI   C3A  841   2.047   7.008   8.593 -0.1030 -0.1510  0.0001
   53loPI   C4A  842   2.105   6.961   8.201 -0.1798  0.0299 -0.0762
   53loPI   C5A  843   2.260   6.633   7.928  0.3439 -0.3985  0.1369
   53loPI   C6A  844   2.554   6.523   7.503  0.0714 -0.0671  0.0839
   53loPI   C1B  845   0.940   7.845   9.167 -0.1309  0.0596  0.2589
   53loPI   C2B  846   0.693   7.791   8.865 -0.1147 -0.0432  0.0364
   53loPI   C3B  847   0.599   7.867   8.535  0.1637 -0.0879  0.1811
   53loPI   C4B  848   0.845   7.910   8.208  0.1605  0.0848  0.3034
   54loPI    C1  849   3.809  18.197  10.888  0.2598 -0.0463  0.1048
   54loPI    C2  850   3.546  17.905  10.962  0.0931  0.0501 -0.0966
   54loPI    C3  851   3.882  17.931  11.178 -0.0087 -0.1402  0.0891
   54loPI   PO4  852   3.964  18.128  10.660  0.0959  0.1801 -0.0835
   54loPI   GL1  853   3.979  17.994  10.261 -0.0155 -0.0724 -0.3689
   54loPI   GL2  854   3.822  18.217  10.023 -0.0886  0.1275  0.1793
   54loPI   C1A  855   4.002  17.760   9.957 -0.4147  0.1775  0.1644
   54loPI   C2A  856   4.134  17.751   9.524 -0.2715  0.3263 -0.3387
   54loPI   C3A  857   4.268  17.790   9.075 -0.3371 -0.1065 -0.2832
   54loPI   C4A  858   4.210  17.836   8.680  0.3168  0.2079  0.0978
   54loPI   C5A  859   4.429  17.819   8.354  0.2843  0.0312  0.1719
   54loPI   C6A  860   4.712  17.877   7.941 -0.3720 -0.1994 -0.0274
   54loPI   C1B  861   3.828  18.174   9.591 -0.3737 -0.0476  0.2285
   54loPI   C2B  862   3.936  18.216   9.185 -0.0230 -0.0408 -0.2423
   54loPI   C3B  863   3.894  18.206   8.747 -0.1301  0.2899  0.1228
   54loPI   C4B  864   4.006  18.328   8.382 -0.0064 -0.0701  0.2450
   55loPI    C1  865   3.350  14.981  11.021 -0.1764  0.0695  0.2501
   55loPI    C2  866   3.106  14.667  10.982 -0.1278  0.0170  0.3644
   55loPI    C3  867   3.292  14.733  11.329 -0.0328  0.0958  0.2990
   55loPI   PO4  868   3.444  14.974  10.773 -0.1102  0.1585  0.2041
   55loPI   GL1  869   3.440  15.154  10.391  0.0485  0.0564  0.0946
   55loPI   GL2  870   3.229  15.300  10.267  0.7250  0.0554 -0.1670
   55loPI   C1A  871   3.413  14.860  10.125 -0.0797  0.1481 -0.1123
   55loPI   C2A  872   3.381  14.801   9.680  0.0084 -0.0363 -0.1284
   55loPI   C3A  873   3.425  14.893   9.206  0.2641 -0.0612 -0.1352
   55loPI   C4A  874   3.508  14.978   8.785  0.1542  0.4950  0.1823
   55loPI   C5A  875   3.695  15.116   8.372  0.1739  0.0083  0.1478
   55loPI   C6A  876   3.845  15.616   8.280 -0.1297 -0.3040  0.2297
   55loPI   C1B  877   3.194  15.278   9.882  0.0756  0.1451 -0.2732
   55loPI   C2B  878   3.262  15.276   9.515  0.1149 -0.0459 -0.1528
   55loPI   C3B  879   3.206  15.417   9.101  0.0484 -0.4258 -0.0336
   55loPI   C4B  880   3.181  15.307   8.700  0.1448 -0.1624 -0.1075
   56loPI    C1  881  14.411   3.483  10.743 -0.3627  0.3415 -0.0676
   56loPI    C2  882  14.431   3.550  11.136  0.2586 -0.1349 -0.0036
   56loPI    C3  883  14.344   3.185  11.000 -0.1840  0.0794 -0.3189
   56loPI   PO4  884  14.260   3.744  10.682  0.1542  0.0190  0.0997
   56loPI   GL1  885  14.085   3.844  10.240 -0.1885 -0.3569 -0.2888
   56loPI   GL2  886  14.174   3.449  10.274  0.0966  0.2360 -0.0582
   56loPI   C1A  887  13.873   3.936   9.744  0.0905 -0.0698 -0.0427
   56loPI   C2A  888  13.852   3.902   9.304 -0.0766 -0.0134 -0.1218
   56loPI   C3A  889  13.770   3.942   8.879  0.2450 -0.1093  0.2868
   56loPI   C4A  890  13.771   4.090   8.461 -0.0731 -0.0534 -0.3626
   56loPI   C5A  891  14.008   3.982   8.151 -0.0051  0.0862  0.0358
   56loPI   C6A  892  14.429   4.100   8.164  0.2121 -0.1109  0.0147
   56loPI   C1B  893  14.188   3.544   9.839 -0.1649  0.0077 -0.0068
   56loPI   C2B  894  14.136   3.513   9.362 -0.2129 -0.0648 -0.1014
   56loPI   C3B  895  14.084   3.537   8.904  0.1316  0.1934 -0.0239
   56loPI   C4B  896  13.981   3.627   8.510 -0.0069 -0.1406 -0.3042
   57loPI    C1  897   7.203  16.658  10.916  0.2513  0.1416 -0.0761
   57loPI    C2  898   7.493  16.762  11.171  0.1119 -0.1461  0.2072
   57loPI    C3  899   7.116  16.879  11.238  0.1353  0.1089 -0.0843
   57loPI   PO4  900   7.410  16.527  10.741 -0.1342 -0.2998  0.3918
   57loPI   GL1  901   7.634  16.221  10.507  0.3129 -0.4219  0.1642
   57loPI   GL2  902   7.778  15.949  10.395  0.3042 -0.0479  0.4108
   57loPI   C1A  903   7.410  16.295  10.128 -0.2754  0.3892 -0.1520
   57loPI   C2A  904   7.489  16.350   9.721  0.1814  0.2754 -0.0659
   57loPI   C3A  905   7.471  16.441   9.301 -0.0781 -0.2227  0.1196
   57loPI   C4A  906   7.534  16.434   8.889  0.1951  0.3434  0.1524
   57loPI   C5A  907   7.610  16.498   8.504  0.0948  0.5900  0.2879
   57loPI   C6A  908   7.829  16.419   8.145  0.1192  0.1222  0.0137
   57loPI   C1B  909   7.791  15.984  10.010 -0.1271 -0.3835 -0.0775
   57loPI   C2B  910   7.815  15.965   9.558  0.3357 -0.0530 -0.0930
   57loPI   C3B  911   7.932  16.139   9.228  0.4298 -0.0202 -0.0337
   57loPI   C4B  912   7.866  16.114   8.749 -0.1027 -0.1301 -0.1567
   58loPI    C1  913  10.057  15.644  11.149  0.0768  0.0188 -0.0740
   58loPI    C2  914  10.348  15.578  11.415 -0.0785 -0.0122  0.0908
   58loPI    C3  915   9.973  15.635  11.540 -0.1542 -0.0302 -0.1232
   58loPI   PO4  916  10.043  15.477  11.051 -0.1623  0.0323 -0.3329
   58loPI   GL1  917   9.822  15.414  10.739 -0.0191  0.0778  0.0311
   58loPI   GL2  918   9.702  15.286  10.517 -0.2659 -0.3044 -0.0516
   58loPI   C1A  919  10.092  15.483  10.359 -0.2217  0.1374 -0.0600
   58loPI   C2A  920  10.030  15.373  10.048 -0.2501  0.0198 -0.1596
   58loPI   C3A  921   9.973  15.442   9.605  0.2350 -0.0038 -0.1161
   58loPI   C4A  922  10.104  15.382   9.176  0.0448 -0.0861  0.0154
   58loPI   C5A  923  10.214  15.440   8.810  0.3543  0.2006  0.0208
   58loPI   C6A  924  10.479  15.637   8.544 -0.1451 -0.2005  0.1923
   58loPI   C1B  925   9.531  15.438  10.121  0.0421 -0.2660  0.2375
   58loPI   C2B  926   9.485  15.330   9.678 -0.2820 -0.0267 -0.0090
   58loPI   C3B  927   9.550  15.399   9.232  0.1611 -0.2037 -0.0197
   58loPI   C4B  928   9.557  15.463   8.761 -0.0915 -0.1316  0.2465
   59loPI    C1  929   4.123  15.255  10.843 -0.1340 -0.1348 -0.2784
   59loPI    C2  930   3.931  14.941  10.687 -0.3580 -0.2730  0.2526
   59loPI    C3  931   3.820  15.087  11.042  0.0887  0.0760  0.2584
   59loPI   PO4  932   4.146  15.381  10.584  0.2320 -0.1618 -0.2068
   59loPI   GL1  933   4.043  15.733  10.301  0.0811 -0.2553  0.1731
   59loPI   GL2  934   4.007  16.108  10.365  0.4079  0.0671 -0.2401
   59loPI   C1A  935   4.235  15.451   9.945 -0.0476 -0.1187 -0.1610
   59loPI   C2A  936   4.179  15.487   9.490  0.0266  0.0298 -0.0889
   59loPI   C3A  937   4.299  15.558   9.076 -0.0185  0.1618 -0.0477
   59loPI   C4A  938   4.179  15.485   8.643 -0.0045 -0.1047  0.1856
   59loPI   C5A  939   4.186  15.197   8.260 -0.1423 -0.1560  0.1872
   59loPI   C6A  940   4.180  14.751   8.298 -0.0502 -0.1679 -0.0863
   59loPI   C1B  941   4.311  16.051   9.994  0.2514  0.2298  0.2441
   59loPI   C2B  942   4.454  16.028   9.601  0.0827 -0.0041 -0.2061
   59loPI   C3B  943   4.441  16.044   9.156  0.0504 -0.0939  0.1945
   59loPI   C4B  944   4.474  16.075   8.817  0.0913 -0.0158 -0.0432
   60loPI    C1  945   5.412  13.365  11.035 -0.0663 -0.0885 -0.1628
   60loPI    C2  946   5.686  13.577  11.235  0.0889 -0.1633 -0.2941
   60loPI    C3  947   5.299  13.609  11.331  0.1302  0.0379 -0.1903
   60loPI   PO4  948   5.513  13.367  10.808 -0.0263  0.1876  0.1144
   60loPI   GL1  949   5.680  13.173  10.421  0.2403  0.1749  0.1094
   60loPI   GL2  950   5.612  13.566  10.354  0.0858 -0.0913  0.1209
   60loPI   C1A  951   6.008  13.139  10.178 -0.2339 -0.0705 -0.0808
   60loPI   C2A  952   6.048  13.095   9.767 -0.1205  0.1255  0.0064
   60loPI   C3A  953   6.120  13.022   9.380 -0.5109  0.3470 -0.3371
   60loPI   C4A  954   6.182  13.065   8.941  0.2872 -0.3888 -0.0399
   60loPI   C5A  955   6.219  13.108   8.531 -0.3663 -0.3217 -0.1718
   60loPI   C6A  956   6.223  13.255   8.099 -0.3090  0.1710 -0.0272
   60loPI   C1B  957   5.743  13.499   9.983  0.2103 -0.1338 -0.1631
   60loPI   C2B  958   5.723  13.517   9.549  0.3465  0.0157  0.2087
   60loPI   C3B  959   5.895  13.417   9.066  0.0484  0.0738 -0.0510
   60loPI   C4B  960   5.887  13.484   8.658 -0.1173  0.2013 -0.3281
   61loPI    C1  961  17.244   1.103  10.842  0.1093 -0.1727  0.0363
   61loPI    C2  962  17.587   0.956  10.987  0.1624 -0.1546 -0.0712
   61loPI    C3  963  17.453   1.312  11.112  0.0974 -0.2368  0.0954
   61loPI   PO4  964  17.167   1.239  10.544 -0.0218 -0.3302  0.1208
   61loPI   GL1  965  17.237   1.428  10.219 -0.1099  0.0541  0.0746
   61loPI   GL2  966  17.446   1.675  10.012  0.0194 -0.1593  0.1496
   61loPI   C1A  967  17.144   1.352   9.785  0.0088  0.1897 -0.1595
   61loPI   C2A  968  17.111   1.338   9.398 -0.0170 -0.1099 -0.1253
   61loPI   C3A  969  17.259   1.212   9.041  0.1539 -0.3811  0.1486
   61loPI   C4A  970  17.106   1.238   8.642  0.0316 -0.1617 -0.1077
   61loPI   C5A  971  17.066   1.083   8.292  0.3140  0.0760 -0.5269
   61loPI   C6A  972  17.304   1.235   7.933 -0.0327 -0.5123  0.1484
   61loPI   C1B  973  17.395   1.779   9.619  0.1871  0.0605 -0.2311
   61loPI   C2B  974  17.406   1.719   9.155 -0.0325 -0.1825  0.0284
   61loPI   C3B  975  17.473   1.674   8.703  0.1429 -0.1076  0.0684
   61loPI   C4B  976  17.254   1.610   8.327 -0.1784  0.0536  0.0539
   62loPI    C1  977  13.010   5.361  10.801  0.0782 -0.4423 -0.1691
   62loPI    C2  978  12.893   5.262  11.170 -0.0015 -0.0698 -0.0912
   62loPI    C3  979  12.623   5.300  10.878 -0.0018  0.1382 -0.0657
   62loPI   PO4  980  13.240   5.155  10.666  0.2776  0.3416 -0.3124
   62loPI   GL1  981  13.202   4.772  10.417 -0.1322  0.0958 -0.0446
   62loPI   GL2  982  12.865   4.786  10.293 -0.2777 -0.1771  0.4022
   62loPI   C1A  983  13.352   4.727  10.000  0.1642  0.1883 -0.0137
   62loPI   C2A  984  13.253   4.807   9.535 -0.0443  0.0669 -0.1451
   62loPI   C3A  985  13.129   4.783   9.122 -0.3558 -0.0609 -0.1831
   62loPI   C4A  986  13.030   4.858   8.714 -0.0512  0.0515 -0.0216
   62loPI   C5A  987  12.954   4.887   8.337  0.0094  0.0509 -0.0199
   62loPI   C6A  988  12.574   4.922   8.097 -0.2060  0.0442  0.0441
   62loPI   C1B  989  12.807   4.688   9.816  0.2027  0.1544 -0.5092
   62loPI   C2B  990  12.621   4.719   9.339 -0.2285 -0.1463 -0.0620
   62loPI   C3B  991  12.636   4.687   8.969 -0.1594  0.1272 -0.0436
   62loPI   C4B  992  12.568   4.597   8.531  0.1681  0.1365  0.0617
   63loPI    C1  993   9.802  14.229  10.838  0.3490 -0.3105 -0.0902
   63loPI    C2  994   9.539  14.076  11.097 -0.0151  0.1057 -0.2019
   63loPI    C3  995   9.922  13.960  11.108 -0.1841 -0.4649  0.0028
   63loPI   PO4  996   9.675  14.173  10.582 -0.1888 -0.1632 -0.2649
   63loPI   GL1  997   9.641  14.372  10.221  0.2508  0.2094  0.0307
   63loPI   GL2  998   9.526  14.630  10.217  0.1675  0.2336  0.0168
   63loPI   C1A  999   9.676  14.396   9.767  0.0338 -0.2433 -0.0592
   63loPI   C2A 1000   9.675  14.479   9.299 -0.0855 -0.2304 -0.2106
   63loPI   C3A 1001   9.719  14.411   8.793  0.1610 -0.1321 -0.2934
   63loPI   C4A 1002   9.646  14.337   8.393  0.0522  0.0906  0.1110
   63loPI   C5A 1003   9.367  14.200   8.146 -0.0323  0.0167 -0.0230
   63loPI   C6A 1004   9.263  13.980   7.819 -0.1186 -0.2851 -0.1680
   63loPI   C1B 1005   9.398  14.856   9.833  0.0003  0.3717  0.2014
   63loPI   C2B 1006   9.436  14.931   9.381  0.1133 -0.2080 -0.1680
   63loPI   C3B 1007   9.374  14.942   8.894  0.1717 -0.2815  0.2409
   63loPI   C4B 1008   9.565  14.810   8.543  0.0972 -0.0449 -0.3932
   64loPI    C1 1009   9.351   9.610  10.671 -0.0004 -0.0763 -0.0154
   64loPI    C2 1010   9.695   9.685  10.861 -0.0786  0.0628  0.0736
   64loPI    C3 1011   9.361   9.877  10.969 -0.1098  0.1996 -0.2533
   64loPI   PO4 1012   9.306   9.640  10.342  0.0118 -0.1293 -0.2412
   64loPI   GL1 1013   9.354   9.593   9.995 -0.1379 -0.1242 -0.0156
   64loPI   GL2 1014   9.417   9.240   9.946 -0.0758 -0.1111  0.4548
   64loPI   C1A 1015   9.233   9.672   9.620  0.2157 -0.0287  0.0069
   64loPI   C2A 1016   9.051   9.782   9.200  0.1334  0.1499  0.1184
   64loPI   C3A 1017   8.949  10.048   8.771 -0.0191 -0.0239  0.1393
   64loPI   C4A 1018   9.114  10.217   8.361 -0.0771 -0.2303  0.3663
   64loPI   C5A 1019   9.315  10.170   7.966 -0.0624  0.1338 -0.1165
   64loPI   C6A 1020   9.502   9.897   7.652 -0.2423 -0.0171 -0.2744
   64loPI   C1B 1021   9.378   9.162   9.580  0.1078 -0.2196  0.0083
   64loPI   C2B 1022   9.415   9.100   9.175 -0.1311  0.1228  0.2348
   64loPI   C3B 1023   9.143   9.275   8.897  0.0008  0.0522 -0.0254
   64loPI   C4B 1024   9.104   9.323   8.481  0.1282 -0.1377  0.1350
   65loPI    C1 1025   5.231  16.336  11.050 -0.0828 -0.0560  0.2946
   65loPI    C2 1026   5.445  16.257  11.378 -0.0354 -0.2136  0.2268
   65loPI    C3 1027   5.341  16.634  11.293  0.1348 -0.1468  0.3090
   65loPI   PO4 1028   5.398  16.184  10.888 -0.1557 -0.1640 -0.2870
   65loPI   GL1 1029   5.474  16.121  10.336  0.1522 -0.2031 -0.1079
   65loPI   GL2 1030   5.224  15.938  10.336  0.0302  0.0694  0.0973
   65loPI   C1A 1031   5.408  16.217   9.979 -0.4468  0.0893 -0.0423
   65loPI   C2A 1032   5.459  16.277   9.535  0.0685  0.1394  0.1983
   65loPI   C3A 1033   5.506  16.189   9.087  0.0449  0.1286 -0.1047
   65loPI   C4A 1034   5.536  16.232   8.647  0.1882 -0.2876  0.0728
   65loPI   C5A 1035   5.329  16.039   8.292  0.0200  0.3817  0.1100
   65loPI   C6A 1036   4.895  16.165   8.109 -0.1780 -0.0532  0.0143
   65loPI   C1B 1037   5.157  15.738   9.917  0.0399 -0.0599 -0.1742
   65loPI   C2B 1038   5.174  15.505   9.588 -0.0287  0.2080  0.2460
   65loPI   C3B 1039   5.267  15.502   9.205 -0.1569  0.1396 -0.1682
   65loPI   C4B 1040   5.234  15.757   8.856 -0.2030 -0.0103  0.2734
   66loPI    C1 1041   7.079  18.098  11.334 -0.0299 -0.3260  0.0090
   66loPI    C2 1042   6.891  18.348  11.085  0.2212  0.1416  0.2743
   66loPI    C3 1043   6.731  18.262  11.441  0.2287  0.0749  0.2618
   66loPI   PO4 1044   7.393  18.189  11.173 -0.0096 -0.1504 -0.4679
   66loPI   GL1 1045   7.543  18.114  10.754 -0.1268 -0.0559  0.2218
   66loPI   GL2 1046   7.218  18.236  10.690 -0.2118  0.1560 -0.2027
   66loPI   C1A 1047   7.684  18.064  10.366  0.1826  0.1588 -0.0105
   66loPI   C2A 1048   7.832  18.191   9.960  0.0934  0.0700  0.0755
   66loPI   C3A 1049   7.833  18.189   9.501  0.1338  0.3372  0.0768
   66loPI   C4A 1050   7.838  18.273   9.057  0.1120  0.1357  0.3495
   66loPI   C5A 1051   7.672  18.379   8.682  0.0160 -0.2532 -0.4626
   66loPI   C6A 1052   7.749  18.407   8.294 -0.2111 -0.4659  0.1055
   66loPI   C1B 1053   7.159  18.164  10.278 -0.1791 -0.0357  0.1367
   66loPI   C2B 1054   7.330  18.108   9.810  0.0027 -0.0880 -0.0428
   66loPI   C3B 1055   7.330  18.258   9.416 -0.0438  0.0813 -0.0434
   66loPI   C4B 1056   7.264  18.273   9.003 -0.3436  0.0607  0.0967
   67loPI    C1 1057  18.128  17.205  10.327 -0.1982 -0.1869 -0.0485
   67loPI    C2 1058  17.916  17.461  10.549 -0.0018 -0.0247 -0.0453
   67loPI    C3 1059  18.146  17.187  10.726 -0.0094 -0.0333 -0.0487
   67loPI   PO4 1060  18.032  17.132  10.131  0.1428 -0.0810 -0.1992
   67loPI   GL1 1061  18.304  17.072   9.813  0.2684 -0.2770 -0.1305
   67loPI   GL2 1062  18.517  16.861   9.754  0.2011 -0.2213 -0.0543
   67loPI   C1A 1063  18.346  17.134   9.404 -0.1784  0.0142  0.2327
   67loPI   C2A 1064  18.458  16.874   9.012  0.0577  0.3464  0.1444
   67loPI   C3A 1065  18.556  16.978   8.670 -0.1580  0.0054 -0.0641
   67loPI   C4A 1066  18.255  17.258   8.448  0.3634  0.1274  0.0210
   67loPI   C5A 1067  17.961  17.158   8.224  0.0300  0.3344  0.2114
   67loPI   C6A 1068  17.653  16.941   8.432 -0.1963 -0.0316 -0.0733
   67loPI   C1B 1069  18.287  16.575   9.384  0.2462  0.1597  0.1861
   67loPI   C2B 1070  18.173  16.494   8.887  0.3186  0.1984 -0.4293
   67loPI   C3B 1071  18.215  16.652   8.489 -0.0460  0.0086 -0.2100
   67loPI   C4B 1072  18.433  16.764   8.173  0.4457  0.1725 -0.2240
   68loPI    C1 1073   1.052   5.957  10.499 -0.0341 -0.0687 -0.0931
   68loPI    C2 1074   0.793   6.094  10.772  0.0132  0.2308 -0.1950
   68loPI    C3 1075   0.766   5.716  10.643 -0.2360  0.1952 -0.0449
   68loPI   PO4 1076   1.056   6.132  10.300  0.1353 -0.1905 -0.3459
   68loPI   GL1 1077   1.141   6.349   9.851 -0.2736  0.2308 -0.1550
   68loPI   GL2 1078   0.912   6.575   9.791 -0.1644  0.1516 -0.1640
   68loPI   C1A 1079   0.936   6.178   9.486 -0.1108  0.0077  0.2700
   68loPI   C2A 1080   0.898   6.236   9.081  0.0381 -0.0782 -0.2257
   68loPI   C3A 1081   0.837   6.137   8.610 -0.1869  0.1446  0.1382
   68loPI   C4A 1082   0.715   6.200   8.283  0.0194  0.1476  0.1397
   68loPI   C5A 1083   0.938   6.373   7.841 -0.0580 -0.1202 -0.2814
   68loPI   C6A 1084   0.718   6.433   7.408 -0.0946 -0.1603  0.1995
   68loPI   C1B 1085   1.256   6.668   9.514  0.1593  0.1305  0.0234
   68loPI   C2B 1086   1.601   6.645   9.291 -0.0064 -0.0453  0.1185
   68loPI   C3B 1087   1.719   6.674   8.882 -0.0195  0.0565 -0.0280
   68loPI   C4B 1088   1.841   6.517   8.547  0.2156  0.2566 -0.0685
   69loPI    C1 1089   2.788   3.672  10.730  0.2739  0.3097 -0.0224
   69loPI    C2 1090   3.066   3.802  10.986  0.0241  0.1603  0.3326
   69loPI    C3 1091   2.751   3.595  11.121 -0.1290  0.1052 -0.0950
   69loPI   PO4 1092   2.930   3.669  10.463  0.2382  0.4624 -0.2571
   69loPI   GL1 1093   3.205   3.449  10.192 -0.0222  0.0685  0.1433
   69loPI   GL2 1094   3.364   3.566   9.937  0.1825 -0.2901  0.0242
   69loPI   C1A 1095   2.967   3.093  10.109  0.0646 -0.0658 -0.1946
   69loPI   C2A 1096   3.008   2.790   9.653  0.1267  0.1288  0.0099
   69loPI   C3A 1097   3.108   2.656   9.329 -0.0363 -0.2837  0.0303
   69loPI   C4A 1098   3.062   2.714   8.985  0.0328  0.0400  0.2100
   69loPI   C5A 1099   3.027   2.481   8.696 -0.0562  0.3793 -0.0951
   69loPI   C6A 1100   2.793   2.075   8.463  0.1174 -0.2304 -0.1901
   69loPI   C1B 1101   3.423   3.538   9.441 -0.2777  0.1603  0.1239
   69loPI   C2B 1102   3.432   3.570   9.058 -0.1184 -0.2998  0.0806
   69loPI   C3B 1103   3.334   3.654   8.600 -0.2465 -0.0668 -0.2452
   69loPI   C4B 1104   3.424   3.676   8.152 -0.1186  0.3930 -0.1816
   70loPI    C1 1105   3.697  11.984  10.579 -0.1118  0.2292 -0.0572
   70loPI    C2 1106   4.041  11.798  10.660 -0.1677  0.0325 -0.2595
   70loPI    C3 1107   3.936  12.124  10.866 -0.0496 -0.1354  0.0740
   70loPI   PO4 1108   3.673  12.047  10.367  0.0941  0.0012  0.0825
   70loPI   GL1 1109   3.746  12.183  10.003  0.0550  0.3411 -0.0306
   70loPI   GL2 1110   3.748  12.419  10.010 -0.1306  0.1473  0.0594
   70loPI   C1A 1111   3.764  12.167   9.592 -0.2614 -0.3634  0.2053
   70loPI   C2A 1112   3.817  12.200   9.214 -0.0610 -0.1136  0.0281
   70loPI   C3A 1113   3.983  12.172   8.827  0.0681 -0.1750 -0.0063
   70loPI   C4A 1114   3.872  11.839   8.472 -0.1941 -0.0073 -0.1524
   70loPI   C5A 1115   3.721  11.552   8.181 -0.1385 -0.4053 -0.2861
   70loPI   C6A 1116   3.522  11.201   8.437  0.1706  0.1412 -0.2104
   70loPI   C1B 1117   3.571  12.640   9.726 -0.0284  0.2291  0.2442
   70loPI   C2B 1118   3.468  12.572   9.329  0.0780  0.0167 -0.1643
   70loPI   C3B 1119   3.542  12.591   8.899  0.0181 -0.0418 -0.1694
   70loPI   C4B 1120   3.746  12.513   8.534  0.0392 -0.0101  0.3337
   71loPI    C1 1121  17.907  12.296  10.968 -0.0822 -0.0149 -0.1684
   71loPI    C2 1122  17.954  11.950  11.164  0.0120  0.0210 -0.1271
   71loPI    C3 1123  17.657  12.198  11.264  0.0312  0.0175 -0.0614
   71loPI   PO4 1124  17.939  12.164  10.698 -0.1801  0.0880 -0.3209
   71loPI   GL1 1125  17.651  12.003  10.387  0.0659  0.2415  0.1824
   71loPI   GL2 1126  17.771  11.762  10.343  0.0112  0.1769  0.0054
   71loPI   C1A 1127  17.352  12.033  10.165 -0.0911 -0.1162  0.0699
   71loPI   C2A 1128  17.262  12.086   9.794 -0.0760  0.2931  0.0873
   71loPI   C3A 1129  17.162  12.142   9.408 -0.0007  0.1785  0.1712
   71loPI   C4A 1130  17.126  12.200   8.980  0.1197  0.2298 -0.0083
   71loPI   C5A 1131  17.123  12.219   8.582 -0.1527 -0.1039  0.0531
   71loPI   C6A 1132  16.990  12.290   8.144  0.0983 -0.0884  0.0395
   71loPI   C1B 1133  17.618  11.734   9.942 -0.4250 -0.2279 -0.0110
   71loPI   C2B 1134  17.393  11.730   9.441  0.0633 -0.1988  0.1777
   71loPI   C3B 1135  17.519  11.845   9.112  0.3614 -0.2099  0.0794
   71loPI   C4B 1136  17.343  11.811   8.695  0.1668  0.1317 -0.1231
   72loPI    C1 1137  11.414   3.923  10.977 -0.0046 -0.0662 -0.1278
   72loPI    C2 1138  11.188   3.599  11.037 -0.1107  0.0575  0.1634
   72loPI    C3 1139  11.405   3.749  11.337  0.1129  0.1269 -0.0296
   72loPI   PO4 1140  11.510   3.855  10.754 -0.0280 -0.1223  0.3981
   72loPI   GL1 1141  11.258   3.465  10.503  0.0139  0.0308 -0.2736
   72loPI   GL2 1142  10.996   3.347  10.548  0.0337  0.2729 -0.1593
   72loPI   C1A 1143  11.357   3.760  10.174  0.1829  0.1451 -0.0699
   72loPI   C2A 1144  11.327   3.676   9.834  0.0306 -0.0642  0.1905
   72loPI   C3A 1145  11.270   3.701   9.381 -0.1312 -0.3244 -0.1847
   72loPI   C4A 1146  11.288   3.586   9.074 -0.1243 -0.1522 -0.2281
   72loPI   C5A 1147  11.153   3.676   8.697 -0.2679 -0.1510  0.0348
   72loPI   C6A 1148  11.357   3.751   8.309  0.1117 -0.2958  0.1488
   72loPI   C1B 1149  11.057   3.304  10.092 -0.1367  0.0247 -0.1545
   72loPI   C2B 1150  11.053   3.238   9.690 -0.1475  0.0569  0.3011
   72loPI   C3B 1151  11.016   3.164   9.268 -0.0261  0.0677  0.2115
   72loPI   C4B 1152  11.110   3.182   8.826  0.0209  0.0578 -0.4772
   73loPI    C1 1153  10.721  14.096  10.969 -0.0204  0.0882 -0.0262
   73loPI    C2 1154  10.436  13.829  11.057  0.0330  0.0130 -0.0803
   73loPI    C3 1155  10.750  13.876  11.301 -0.2334  0.3947  0.2024
   73loPI   PO4 1156  10.688  14.052  10.682 -0.0950 -0.2593  0.2351
   73loPI   GL1 1157  10.721  14.080  10.306 -0.1752 -0.3796 -0.0655
   73loPI   GL2 1158  11.024  14.031  10.157 -0.2260 -0.0692 -0.2300
   73loPI   C1A 1159  10.532  14.152   9.952 -0.0258 -0.0501 -0.0806
   73loPI   C2A 1160  10.554  14.061   9.556  0.1065  0.0285 -0.0715
   73loPI   C3A 1161  10.565  14.076   9.111  0.0773 -0.0892  0.0180
   73loPI   C4A 1162  10.496  14.173   8.673  0.0211  0.1288  0.1408
   73loPI   C5A 1163  10.413  14.237   8.228 -0.1758 -0.1685  0.1171
   73loPI   C6A 1164  10.656  14.216   7.900 -0.1595  0.1200 -0.1298
   73loPI   C1B 1165  11.022  14.193   9.748  0.1628  0.0894 -0.3105
   73loPI   C2B 1166  11.046  14.107   9.333  0.0974 -0.1491 -0.0322
   73loPI   C3B 1167  11.040  14.134   8.820  0.0191 -0.2018 -0.1204
   73loPI   C4B 1168  10.950  14.167   8.355 -0.1600 -0.1692  0.2123
   74loPI    C1 1169   0.328  14.528  10.697 -0.1581 -0.2523 -0.0964
   74loPI    C2 1170   0.349  14.178  10.890  0.0522 -0.1061  0.1514
   74loPI    C3 1171   0.640  14.450  10.936 -0.1331  0.1212 -0.0006
   74loPI   PO4 1172   0.356  14.470  10.462  0.2753 -0.2611 -0.0616
   74loPI   GL1 1173   0.673  14.423  10.050  0.2316 -0.1487 -0.1423
   74loPI   GL2 1174   0.937  14.450   9.915  0.0034 -0.0482  0.1799
   74loPI   C1A 1175   0.459  14.575   9.623  0.0613  0.0653 -0.2033
   74loPI   C2A 1176   0.417  14.652   9.234 -0.0952  0.1602 -0.0670
   74loPI   C3A 1177   0.408  14.635   8.814 -0.0268  0.2733 -0.3094
   74loPI   C4A 1178   0.623  14.843   8.512  0.3289 -0.0867 -0.4323
   74loPI   C5A 1179   0.729  15.046   8.158 -0.0974  0.3551  0.0730
   74loPI   C6A 1180   0.959  15.377   8.001 -0.0749  0.0888 -0.1756
   74loPI   C1B 1181   1.100  14.343   9.463  0.1428 -0.0942 -0.2189
   74loPI   C2B 1182   1.312  14.235   9.104 -0.2220  0.2174  0.1174
   74loPI   C3B 1183   1.234  14.320   8.682  0.1173  0.3359 -0.0540
   74loPI   C4B 1184   1.109  14.502   8.302  0.2795 -0.1066  0.3938
   75loPI    C1 1185   3.562   2.930  10.922  0.3697 -0.1095 -0.1726
   75loPI    C2 1186   3.584   2.719  11.262  0.2230 -0.0798 -0.1438
   75loPI    C3 1187   3.907   2.911  11.124  0.2118  0.1415  0.1299
   75loPI   PO4 1188   3.439   2.770  10.797 -0.0989 -0.2091 -0.2179
   75loPI   GL1 1189   3.533   2.521  10.447  0.1104 -0.1903 -0.1600
   75loPI   GL2 1190   3.601   2.229  10.510 -0.2497 -0.4187  0.0350
   75loPI   C1A 1191   3.518   2.540  10.048  0.0220 -0.3502  0.2582
   75loPI   C2A 1192   3.533   2.596   9.585 -0.0165 -0.1494  0.1649
   75loPI   C3A 1193   3.558   2.686   9.144 -0.2585  0.0515  0.1982
   75loPI   C4A 1194   3.593   2.701   8.727  0.1254 -0.3635 -0.0340
   75loPI   C5A 1195   3.468   2.600   8.275  0.1566 -0.1624  0.0175
   75loPI   C6A 1196   3.195   2.264   8.103 -0.0156  0.3464 -0.0936
   75loPI   C1B 1197   3.868   2.122  10.063 -0.0525 -0.1011 -0.1981
   75loPI   C2B 1198   3.876   2.101   9.569  0.2232 -0.2145 -0.0700
   75loPI   C3B 1199   3.713   2.189   9.329  0.0786 -0.0103  0.1482
   75loPI   C4B 1200   3.848   2.210   8.871 -0.1570 -0.1253 -0.0545
   76loPI    C1 1201  10.039   1.837  10.975  0.2108  0.0890 -0.0654
   76loPI    C2 1202   9.726   1.852  11.224 -0.0986 -0.0051 -0.4408
   76loPI    C3 1203  10.093   1.793  11.369 -0.2580  0.0538  0.0008
   76loPI   PO4 1204  10.000   2.031  10.803 -0.0771 -0.1424 -0.0490
   76loPI   GL1 1205   9.971   2.160  10.428 -0.0296  0.0455  0.0940
   76loPI   GL2 1206   9.700   1.938  10.368 -0.1438 -0.1974  0.0924
   76loPI   C1A 1207  10.191   2.208  10.089 -0.0307 -0.0270 -0.0229
   76loPI   C2A 1208  10.237   2.190   9.614 -0.0923 -0.3431  0.3888
   76loPI   C3A 1209  10.222   1.997   9.233 -0.0846  0.1962 -0.1679
   76loPI   C4A 1210  10.122   2.118   8.775 -0.0994 -0.3545  0.1415
   76loPI   C5A 1211  10.399   1.956   8.413 -0.0934 -0.1260 -0.0271
   76loPI   C6A 1212  10.409   1.574   8.119  0.0591  0.2405 -0.1131
   76loPI   C1B 1213   9.711   2.086   9.939 -0.1920  0.0270 -0.3138
   76loPI   C2B 1214   9.651   2.053   9.478  0.0926  0.0600  0.1718
   76loPI   C3B 1215   9.715   2.025   9.049 -0.0034  0.0713 -0.0825
   76loPI   C4B 1216   9.701   1.931   8.665 -0.1894 -0.0426 -0.1584
   77loPI    C1 1217   2.983  17.008  10.642  0.4750 -0.0073  0.0451
   77loPI    C2 1218   2.972  16.747  10.945 -0.2176  0.0722  0.1039
   77loPI    C3 1219   2.991  17.139  11.020 -0.0132  0.0774  0.0320
   77loPI   PO4 1220   3.120  16.895  10.423  0.0897  0.2912 -0.0952
   77loPI   GL1 1221   3.128  16.929   9.989 -0.0552  0.1194  0.1982
   77loPI   GL2 1222   3.314  17.212   9.830  0.1054  0.1268  0.1214
   77loPI   C1A 1223   3.376  16.787   9.587 -0.2458  0.1808 -0.1462
   77loPI   C2A 1224   3.230  16.780   9.205 -0.0429 -0.2033 -0.1135
   77loPI   C3A 1225   3.319  16.728   8.773  0.1118 -0.0180  0.0371
   77loPI   C4A 1226   3.222  16.825   8.332  0.3088  0.1137  0.1841
   77loPI   C5A 1227   3.150  17.070   7.994  0.1838 -0.2903 -0.5568
   77loPI   C6A 1228   3.006  17.060   7.594  0.0082  0.4104  0.1930
   77loPI   C1B 1229   3.429  17.269   9.351  0.1184 -0.2141  0.0345
   77loPI   C2B 1230   3.419  17.230   8.932  0.1985  0.4801  0.1485
   77loPI   C3B 1231   3.448  17.283   8.443 -0.0951  0.1850  0.0913
   77loPI   C4B 1232   3.629  17.103   8.154 -0.2105 -0.1319  0.1042
   78loPI    C1 1233   6.485  13.986  11.421 -0.0235  0.2284 -0.0151
   78loPI    C2 1234   6.580  14.252  11.705 -0.0231  0.0996  0.1062
   78loPI    C3 1235   6.779  13.906  11.679 -0.0692  0.0810 -0.0080
   78loPI   PO4 1236   6.482  14.070  11.182  0.1611 -0.1208 -0.2796
   78loPI   GL1 1237   6.371  14.103  10.754 -0.0483 -0.3320  0.2538
   78loPI   GL2 1238   6.128  14.344  10.541 -0.3397 -0.2819  0.1181
   78loPI   C1A 1239   6.509  13.999  10.409  0.0915  0.5505 -0.0444
   78loPI   C2A 1240   6.519  14.030   9.894  0.1086  0.2323 -0.0502
   78loPI   C3A 1241   6.482  14.068   9.457 -0.0703 -0.0095  0.0360
   78loPI   C4A 1242   6.552  14.002   9.064 -0.0682 -0.0552 -0.0738
   78loPI   C5A 1243   6.569  14.004   8.635 -0.0643 -0.2684 -0.2305
   78loPI   C6A 1244   6.554  13.570   8.389 -0.0333 -0.0928 -0.3116
   78loPI   C1B 1245   6.209  14.382  10.059 -0.3089  0.3602 -0.1617
   78loPI   C2B 1246   6.203  14.456   9.609 -0.0824  0.0913  0.0348
   78loPI   C3B 1247   6.214  14.375   9.222  0.2374  0.1833 -0.1594
   78loPI   C4B 1248   6.208  14.428   8.775 -0.1334  0.0025 -0.0330
   79loPI    C1 1249   9.638  11.681  10.623  0.2783 -0.0470  0.0210
   79loPI    C2 1250   9.537  11.322  10.479 -0.0029  0.0655 -0.0694
   79loPI    C3 1251   9.702  11.352  10.842 -0.1160 -0.1419  0.0010
   79loPI   PO4 1252   9.740  11.784  10.456 -0.4201  0.0384 -0.1631
   79loPI   GL1 1253   9.922  12.076  10.084 -0.1353  0.0892  0.1488
   79loPI   GL2 1254   9.987  11.775  10.024 -0.1540  0.1449  0.3421
   79loPI   C1A 1255   9.838  12.103   9.674 -0.1605  0.0536 -0.1176
   79loPI   C2A 1256   9.845  12.046   9.285 -0.1174 -0.1151  0.3419
   79loPI   C3A 1257   9.922  11.950   8.861 -0.1283 -0.1960  0.0423
   79loPI   C4A 1258   9.848  11.768   8.422 -0.0644 -0.2368 -0.1589
   79loPI   C5A 1259   9.862  11.514   8.110  0.0581  0.0861  0.1117
   79loPI   C6A 1260   9.727  11.328   7.849  0.1935 -0.0265  0.0546
   79loPI   C1B 1261  10.151  11.714   9.576 -0.4337 -0.1817 -0.1107
   79loPI   C2B 1262  10.269  11.627   9.071  0.2728  0.2066  0.1798
   79loPI   C3B 1263  10.373  11.550   8.607 -0.0890  0.0054  0.1847
   79loPI   C4B 1264  10.361  11.399   8.111  0.1252 -0.0774  0.2879
   80loPI    C1 1265   1.821   5.097  10.949  0.1529 -0.0185  0.0682
   80loPI    C2 1266   1.838   5.388  11.224  0.1500  0.0193  0.0284
   80loPI    C3 1267   1.824   5.005  11.338  0.4531  0.0208  0.0777
   80loPI   PO4 1268   1.615   5.176  10.795  0.4224  0.1306 -0.0136
   80loPI   GL1 1269   1.559   5.021  10.409  0.3928 -0.5261 -0.2241
   80loPI   GL2 1270   1.250   4.823  10.209 -0.0635  0.0823  0.1661
   80loPI   C1A 1271   1.635   5.193   9.949  0.0730  0.0603  0.1052
   80loPI   C2A 1272   1.618   5.214   9.483 -0.2645 -0.0043  0.0449
   80loPI   C3A 1273   1.586   5.366   9.101  0.0640 -0.0074  0.1879
   80loPI   C4A 1274   1.496   5.408   8.748 -0.0812  0.0975 -0.0572
   80loPI   C5A 1275   1.384   5.136   8.467 -0.2953  0.1930 -0.3735
   80loPI   C6A 1276   1.545   4.962   7.997 -0.0139 -0.2548 -0.4710
   80loPI   C1B 1277   1.318   4.839   9.795 -0.2101 -0.0797 -0.0068
   80loPI   C2B 1278   1.350   4.806   9.335 -0.0201  0.0368  0.1566
   80loPI   C3B 1279   1.359   4.860   8.870  0.2722  0.6772  0.0082
   80loPI   C4B 1280   1.659   4.701   8.523 -0.0019 -0.1318 -0.1113
   81loPI    C1 1281   0.787   1.689  10.589  0.0446 -0.2111 -0.2413
   81loPI    C2 1282   0.505   1.632  10.867  0.1429 -0.1750 -0.1333
   81loPI    C3 1283   0.822   1.389  10.851  0.3188  0.0402  0.0184
   81loPI   PO4 1284   0.716   1.759  10.384  0.2346  0.1668  0.0254
   81loPI   GL1 1285   0.590   1.855   9.998  0.2312 -0.2019  0.0899
   81loPI   GL2 1286   0.916   1.860   9.849  0.2121  0.0613 -0.0582
   81loPI   C1A 1287   0.321   1.792   9.670 -0.1462 -0.2828  0.1078
   81loPI   C2A 1288   0.143   2.024   9.389 -0.0001  0.2389 -0.0508
   81loPI   C3A 1289   0.283   2.337   9.089 -0.4548 -0.3088  0.1588
   81loPI   C4A 1290   0.366   2.468   8.690 -0.2366 -0.0021 -0.0597
   81loPI   C5A 1291   0.453   2.708   8.371 -0.1993  0.0029 -0.2518
   81loPI   C6A 1292   0.155   2.847   8.025  0.3609  0.2055 -0.0391
   81loPI   C1B 1293   1.122   1.952   9.438  0.0934  0.1633  0.0436
   81loPI   C2B 1294   1.477   1.954   9.189 -0.3517  0.1582  0.0497
   81loPI   C3B 1295   1.763   2.025   8.922  0.0144  0.0417  0.0405
   81loPI   C4B 1296   1.658   2.078   8.389  0.1659  0.0488 -0.0410
   82loPI    C1 1297   9.734   5.410  10.841 -0.0338  0.0091 -0.0231
   82loPI    C2 1298   9.764   5.105  11.098 -0.2430 -0.0034 -0.0118
   82loPI    C3 1299   9.555   5.431  11.198  0.0245  0.1684 -0.0022
   82loPI   PO4 1300   9.660   5.351  10.637 -0.0156  0.0690  0.1810
   82loPI   GL1 1301   9.781   5.386  10.265  0.0386 -0.0587  0.2020
   82loPI   GL2 1302  10.075   5.186  10.229  0.0436  0.1800 -0.2294
   82loPI   C1A 1303   9.888   5.343   9.829  0.1052 -0.0704 -0.0436
   82loPI   C2A 1304   9.879   5.401   9.523  0.0137 -0.4749  0.1505
   82loPI   C3A 1305  10.002   5.394   9.054 -0.3452  0.1807  0.2483
   82loPI   C4A 1306  10.101   5.315   8.677  0.0464 -0.2408 -0.1387
   82loPI   C5A 1307   9.963   5.184   8.330  0.3579 -0.2589 -0.1225
   82loPI   C6A 1308  10.074   4.937   8.046  0.0275 -0.0666  0.2870
   82loPI   C1B 1309   9.930   4.823   9.993  0.0525  0.0782  0.2993
   82loPI   C2B 1310   9.751   4.934   9.517  0.3018 -0.0610  0.3301
   82loPI   C3B 1311   9.839   4.865   9.081 -0.0237 -0.2273 -0.1860
   82loPI   C4B 1312   9.777   4.850   8.684 -0.1277  0.0239  0.2374
   83loPI    C1 1313   3.860   2.477  10.845  0.1434  0.1634  0.1325
   83loPI    C2 1314   3.848   2.350  11.224 -0.3026  0.1456  0.1169
   83loPI    C3 1315   3.519   2.333  10.996 -0.0557  0.2155 -0.2534
   83loPI   PO4 1316   4.025   2.428  10.747  0.0312 -0.0506 -0.1808
   83loPI   GL1 1317   4.091   2.395  10.372 -0.0017 -0.3495  0.2876
   83loPI   GL2 1318   3.991   2.639  10.214 -0.4207 -0.0608  0.1894
   83loPI   C1A 1319   4.358   2.216  10.012 -0.4268  0.1067  0.0863
   83loPI   C2A 1320   4.395   2.210   9.621  0.0502 -0.2496  0.0067
   83loPI   C3A 1321   4.298   2.232   9.150  0.2188  0.0458  0.0022
   83loPI   C4A 1322   4.362   2.274   8.771 -0.2549  0.3108 -0.1508
   83loPI   C5A 1323   4.555   2.204   8.317  0.0003 -0.0869  0.3535
   83loPI   C6A 1324   4.328   2.454   7.952  0.1683  0.0341  0.0124
   83loPI   C1B 1325   4.048   2.585   9.811  0.0971 -0.0546  0.1619
   83loPI   C2B 1326   4.025   2.596   9.358  0.1932 -0.1398  0.3065
   83loPI   C3B 1327   4.041   2.696   8.902  0.2273  0.1009 -0.4436
   83loPI   C4B 1328   4.100   2.533   8.439 -0.1037  0.2704 -0.3055
   84loPI    C1 1329  14.999   9.304  11.174 -0.3325 -0.2499 -0.0046
   84loPI    C2 1330  15.193   8.992  11.333 -0.1128 -0.0151  0.1951
   84loPI    C3 1331  15.202   9.348  11.516 -0.2598  0.1405 -0.0937
   84loPI   PO4 1332  15.117   9.291  10.821  0.2159 -0.1453  0.0997
   84loPI   GL1 1333  15.193   9.243  10.402  0.0164 -0.3864 -0.0014
   84loPI   GL2 1334  14.875   9.159  10.275 -0.2244 -0.2929  0.1516
   84loPI   C1A 1335  15.430   9.281  10.069  0.5192  0.5433  0.2388
   84loPI   C2A 1336  15.374   9.165   9.620 -0.1603  0.1917 -0.0302
   84loPI   C3A 1337  15.457   9.202   9.227  0.1996 -0.1380  0.4647
   84loPI   C4A 1338  15.400   9.230   8.763  0.0415 -0.0771 -0.0534
   84loPI   C5A 1339  15.258   9.427   8.374  0.0132  0.2508  0.2202
   84loPI   C6A 1340  14.847   9.391   8.159  0.0336 -0.0633 -0.2356
   84loPI   C1B 1341  14.898   9.187   9.824  0.1749 -0.1209  0.0018
   84loPI   C2B 1342  14.908   9.155   9.383 -0.1170 -0.2644  0.0069
   84loPI   C3B 1343  14.924   9.189   8.948 -0.1408 -0.2306 -0.2070
   84loPI   C4B 1344  14.902   9.106   8.563 -0.1269  0.2192 -0.0912
   85loPI    C1 1345   1.836  12.272  10.710  0.0713 -0.1383 -0.1163
   85loPI    C2 1346   1.525  12.392  10.931 -0.0157 -0.0831 -0.2669
   85loPI    C3 1347   1.801  12.149  11.089  0.0807  0.1904 -0.0058
   85loPI   PO4 1348   1.735  12.462  10.503 -0.2783  0.0767 -0.1662
   85loPI   GL1 1349   1.891  12.539  10.077  0.1121  0.3409  0.1711
   85loPI   GL2 1350   1.619  12.330   9.974 -0.1248  0.2222 -0.1272
   85loPI   C1A 1351   1.898  12.444   9.589  0.0098  0.0821  0.3066
   85loPI   C2A 1352   1.920  12.505   9.132  0.0041 -0.3087 -0.0053
   85loPI   C3A 1353   2.092  12.453   8.688 -0.0015  0.2408  0.2614
   85loPI   C4A 1354   2.209  12.433   8.258  0.0405  0.0705  0.1589
   85loPI   C5A 1355   1.948  12.708   7.917 -0.1583  0.0448 -0.2746
   85loPI   C6A 1356   1.939  13.200   7.881  0.0112 -0.0648 -0.1507
   85loPI   C1B 1357   1.655  12.008   9.702 -0.1353  0.1680 -0.1365
   85loPI   C2B 1358   1.650  12.078   9.256  0.0761  0.0272  0.1554
   85loPI   C3B 1359   1.822  12.085   8.794 -0.1284 -0.0075  0.0647
   85loPI   C4B 1360   1.984  11.946   8.410  0.1700 -0.0712 -0.2650
   86loPI    C1 1361  12.064  17.684  10.939  0.1177  0.3373 -0.1941
   86loPI    C2 1362  12.348  17.570  10.682  0.1653 -0.0278  0.0127
   86loPI    C3 1363  12.423  17.571  11.074 -0.1299 -0.1676  0.0723
   86loPI   PO4 1364  11.857  17.635  10.806  0.0549 -0.0911 -0.0768
   86loPI   GL1 1365  11.882  17.821  10.421  0.0566  0.2229 -0.0375
   86loPI   GL2 1366  12.002  17.556  10.295 -0.0331  0.0671 -0.1167
   86loPI   C1A 1367  11.684  17.826   9.987 -0.1585 -0.1268  0.0533
   86loPI   C2A 1368  11.634  17.811   9.586  0.2981  0.1931  0.3813
   86loPI   C3A 1369  11.557  17.804   9.184  0.3650 -0.1282  0.0076
   86loPI   C4A 1370  11.592  17.723   8.746 -0.1312  0.2595  0.0819
   86loPI   C5A 1371  11.744  17.691   8.376  0.0321 -0.0204 -0.1674
   86loPI   C6A 1372  11.714  17.301   8.124 -0.2147  0.0013  0.3466
   86loPI   C1B 1373  12.027  17.535   9.792  0.2068  0.0164 -0.1021
   86loPI   C2B 1374  11.895  17.422   9.326  0.0300  0.5147  0.3956
   86loPI   C3B 1375  11.731  17.110   9.075 -0.0374  0.0158  0.2782
   86loPI   C4B 1376  11.601  17.250   8.627 -0.2294 -0.3708  0.1660
   87loPI    C1 1377  17.697   2.937  10.791 -0.2255  0.2163  0.2109
   87loPI    C2 1378  17.447   2.645  10.682  0.1104 -0.0501  0.1351
   87loPI    C3 1379  17.730   2.573  10.955  0.3204  0.1483 -0.0265
   87loPI   PO4 1380  17.817   3.052  10.543  0.2459  0.2330  0.0803
   87loPI   GL1 1381  17.551   2.918  10.258 -0.0748 -0.0856 -0.0115
   87loPI   GL2 1382  17.830   2.875  10.033 -0.2115 -0.1728 -0.1408
   87loPI   C1A 1383  17.335   2.697   9.852  0.2252 -0.0094 -0.0484
   87loPI   C2A 1384  17.294   2.697   9.414  0.0838 -0.3481 -0.1013
   87loPI   C3A 1385  17.299   2.730   9.023  0.3220  0.0138 -0.1112
   87loPI   C4A 1386  17.184   2.687   8.648 -0.0596 -0.1396  0.1655
   87loPI   C5A 1387  16.998   2.648   8.202 -0.3424 -0.1658  0.0698
   87loPI   C6A 1388  16.761   2.366   8.023  0.0448  0.1580 -0.2451
   87loPI   C1B 1389  17.854   2.763   9.550 -0.1700 -0.0813 -0.0511
   87loPI   C2B 1390  17.818   2.824   9.145  0.2285 -0.2350  0.4953
   87loPI   C3B 1391  17.724   2.796   8.648 -0.1507 -0.1213  0.0881
   87loPI   C4B 1392  17.530   2.585   8.286 -0.1415  0.2453  0.1381
   88loPI    C1 1393   8.269   9.236  10.148  0.1616  0.2036  0.3627
   88loPI    C2 1394   8.019   9.184  10.455 -0.0394  0.0184  0.1716
   88loPI    C3 1395   7.978   9.502  10.216 -0.1162 -0.0303  0.1195
   88loPI   PO4 1396   8.539   9.268  10.270 -0.1334 -0.0806 -0.3423
   88loPI   GL1 1397   8.947   9.220   9.983  0.1202  0.1995 -0.1020
   88loPI   GL2 1398   8.687   9.070   9.854 -0.1685 -0.0172 -0.0512
   88loPI   C1A 1399   8.867   9.363   9.452  0.1282  0.0744 -0.2089
   88loPI   C2A 1400   8.690   9.372   9.058  0.1673 -0.0694  0.1401
   88loPI   C3A 1401   8.669   9.534   8.620 -0.0114  0.1441 -0.2444
   88loPI   C4A 1402   8.871   9.722   8.223  0.1240  0.1942  0.1895
   88loPI   C5A 1403   8.943   9.890   7.799  0.0689  0.0225  0.0237
   88loPI   C6A 1404   9.001  10.194   7.465  0.0784  0.2907  0.2972
   88loPI   C1B 1405   8.914   8.864   9.583 -0.1016 -0.0782  0.1886
   88loPI   C2B 1406   8.870   8.876   9.101  0.2325 -0.0517 -0.1672
   88loPI   C3B 1407   8.703   9.025   8.666  0.1152 -0.0916 -0.2706
   88loPI   C4B 1408   8.792   9.051   8.208  0.0150 -0.1874 -0.1155
   89loPI    C1 1409   3.076  15.381  10.714  0.0616 -0.0467 -0.1017
   89loPI    C2 1410   3.078  15.440  11.110 -0.3073  0.1630 -0.1268
   89loPI    C3 1411   2.876  15.132  10.955 -0.2064  0.1115 -0.1568
   89loPI   PO4 1412   3.051  15.737  10.645 -0.1995  0.0679  0.1263
   89loPI   GL1 1413   3.228  15.912  10.269  0.0500  0.0880  0.1929
   89loPI   GL2 1414   3.496  15.752  10.329 -0.2375 -0.0364  0.0847
   89loPI   C1A 1415   3.483  15.989   9.881  0.1269  0.1836 -0.0124
   89loPI   C2A 1416   3.844  15.933   9.843  0.1286  0.2995  0.1991
   89loPI   C3A 1417   3.944  15.950   9.382 -0.1218  0.3288 -0.1614
   89loPI   C4A 1418   3.917  15.953   9.006 -0.0290 -0.1795  0.0888
   89loPI   C5A 1419   3.928  16.048   8.552  0.0670 -0.1696  0.5034
   89loPI   C6A 1420   4.285  16.030   8.185  0.2376  0.3955  0.1973
   89loPI   C1B 1421   3.613  15.490   9.960 -0.0185 -0.2256 -0.4198
   89loPI   C2B 1422   3.660  15.575   9.582 -0.3333 -0.0115 -0.0130
   89loPI   C3B 1423   3.716  15.532   9.183 -0.0968 -0.0032  0.1639
   89loPI   C4B 1424   3.684  15.460   8.824 -0.1356  0.0776  0.3393
   90loPI    C1 1425  16.555  12.939  10.830 -0.0560  0.1941  0.1603
   90loPI    C2 1426  16.791  12.911  11.151 -0.0758 -0.0373  0.1568
   90loPI    C3 1427  16.393  12.927  11.196 -0.0754  0.0051  0.1468
   90loPI   PO4 1428  16.694  12.822  10.694  0.1481  0.0174 -0.1407
   90loPI   GL1 1429  16.869  12.938  10.260 -0.2595 -0.0090 -0.2817
   90loPI   GL2 1430  17.106  13.043   9.956  0.1223 -0.1594 -0.0017
   90loPI   C1A 1431  16.611  12.938   9.940 -0.2299 -0.1497 -0.1946
   90loPI   C2A 1432  16.515  13.063   9.549 -0.0018  0.1911  0.1323
   90loPI   C3A 1433  16.556  12.968   9.107  0.0737  0.2544 -0.1838
   90loPI   C4A 1434  16.511  13.052   8.636 -0.4776  0.1144  0.1999
   90loPI   C5A 1435  16.354  12.944   8.225  0.1379  0.2485  0.2196
   90loPI   C6A 1436  16.118  13.133   7.865  0.2525  0.1193 -0.2438
   90loPI   C1B 1437  17.020  13.088   9.531 -0.0444  0.1303  0.0144
   90loPI   C2B 1438  17.086  13.067   9.113  0.2102  0.0138  0.0460
   90loPI   C3B 1439  17.074  13.097   8.625 -0.0503 -0.0222 -0.2696
   90loPI   C4B 1440  17.089  13.110   8.204 -0.1339  0.0714 -0.1227
   91loPI    C1 1441  15.510   8.279  11.108 -0.0473 -0.0632  0.2660
   91loPI    C2 1442  15.621   8.637  11.247 -0.2371  0.0637  0.0980
   91loPI    C3 1443  15.426   8.382  11.485 -0.1954  0.1138  0.1864
   91loPI   PO4 1444  15.370   8.389  10.878 -0.0537 -0.0493 -0.0056
   91loPI   GL1 1445  15.370   8.176  10.557 -0.0879  0.1959 -0.2409
   91loPI   GL2 1446  15.064   8.046  10.342  0.1551  0.1900 -0.1204
   91loPI   C1A 1447  15.578   8.273  10.221  0.0710  0.2220  0.0126
   91loPI   C2A 1448  15.638   8.263   9.883 -0.1228  0.0478 -0.1545
   91loPI   C3A 1449  15.656   8.184   9.383 -0.4668  0.0851 -0.0665
   91loPI   C4A 1450  15.558   8.278   9.006  0.1875  0.3688  0.0123
   91loPI   C5A 1451  15.577   8.304   8.496 -0.0356  0.1304  0.1262
   91loPI   C6A 1452  15.333   8.154   8.231 -0.1929 -0.2376 -0.2278
   91loPI   C1B 1453  15.021   8.150   9.960  0.0597  0.1299 -0.1030
   91loPI   C2B 1454  15.104   8.147   9.569 -0.0569  0.0401  0.1005
   91loPI   C3B 1455  15.091   8.146   9.062  0.1232 -0.0770 -0.3207
   91loPI   C4B 1456  15.120   8.238   8.671  0.1928  0.0222  0.2765
   92loPI    C1 1457  10.926   9.108  10.696 -0.1353  0.0412  0.1246
   92loPI    C2 1458  10.652   9.092  10.405 -0.0008 -0.0613  0.0019
   92loPI    C3 1459  10.545   9.204  10.774 -0.1673  0.0963 -0.0922
   92loPI   PO4 1460  11.199   9.172  10.549  0.1094 -0.1085  0.0877
   92loPI   GL1 1461  11.200   9.147  10.185  0.1001  0.0577 -0.1317
   92loPI   GL2 1462  10.965   9.384  10.134 -0.0321 -0.0601 -0.1664
   92loPI   C1A 1463  11.298   9.028   9.755 -0.0096 -0.0124  0.1241
   92loPI   C2A 1464  11.304   8.897   9.331 -0.0722 -0.1643  0.2515
   92loPI   C3A 1465  11.197   8.748   8.886  0.2181  0.1292 -0.0043
   92loPI   C4A 1466  11.060   8.818   8.450 -0.0846  0.1449 -0.1823
   92loPI   C5A 1467  11.194   9.070   8.043 -0.0586 -0.0149  0.0880
   92loPI   C6A 1468  11.502   9.406   7.866 -0.1450  0.0563 -0.0092
   92loPI   C1B 1469  11.198   9.463   9.814 -0.3103  0.0106  0.3305
   92loPI   C2B 1470  11.329   9.383   9.357 -0.0336  0.0239 -0.1865
   92loPI   C3B 1471  11.402   9.303   8.995 -0.0290  0.1746  0.0484
   92loPI   C4B 1472  11.376   9.185   8.585 -0.1752 -0.0388 -0.1090
   93loPI    C1 1473  16.796   8.936  10.744  0.1276  0.4524 -0.0564
   93loPI    C2 1474  16.488   8.927  10.999 -0.0202 -0.1987 -0.2383
   93loPI    C3 1475  16.844   8.780  11.109  0.1876  0.3846 -0.0929
   93loPI   PO4 1476  16.706   8.883  10.485 -0.2361 -0.0006  0.1546
   93loPI   GL1 1477  16.710   8.913  10.109 -0.3679  0.0568 -0.6222
   93loPI   GL2 1478  16.766   9.207  10.123  0.2031 -0.0946 -0.2810
   93loPI   C1A 1479  16.722   8.902   9.623 -0.3431 -0.0400  0.1414
   93loPI   C2A 1480  16.814   8.878   9.220 -0.1184 -0.1016 -0.2738
   93loPI   C3A 1481  16.904   8.991   8.777  0.0429  0.0047 -0.1347
   93loPI   C4A 1482  16.926   8.867   8.318  0.0349  0.0968  0.1196
   93loPI   C5A 1483  17.234   8.894   7.922  0.1869 -0.2027 -0.0118
   93loPI   C6A 1484  17.506   8.657   7.582  0.1237 -0.5481  0.0940
   93loPI   C1B 1485  16.579   9.330   9.850 -0.0388 -0.1664 -0.3241
   93loPI   C2B 1486  16.496   9.323   9.385  0.0982 -0.0548 -0.2520
   93loPI   C3B 1487  16.372   9.376   8.906  0.1199 -0.2012 -0.4223
   93loPI   C4B 1488  16.280   9.506   8.529 -0.0535  0.2893  0.1102
   94loPI    C1 1489   7.582   8.320  10.333 -0.0460  0.1595 -0.0078
   94loPI    C2 1490   7.383   8.492  10.635  0.0225 -0.0013  0.1299
   94loPI    C3 1491   7.604   8.164  10.701 -0.2298 -0.2354 -0.1583
   94loPI   PO4 1492   7.448   8.268  10.171 -0.2227  0.3391 -0.1576
   94loPI   GL1 1493   7.700   8.117   9.837  0.4187  0.1282 -0.1068
   94loPI   GL2 1494   7.563   7.819  10.014 -0.0888 -0.2528  0.2801
   94loPI   C1A 1495   7.689   8.288   9.378  0.0289 -0.0345 -0.3034
   94loPI   C2A 1496   7.755   8.230   9.057 -0.3201 -0.1478  0.2234
   94loPI   C3A 1497   7.713   8.168   8.608 -0.0905  0.0513  0.1110
   94loPI   C4A 1498   7.918   8.073   8.188  0.0538  0.3042  0.1742
   94loPI   C5A 1499   7.726   7.997   7.827 -0.0012  0.2596  0.0299
   94loPI   C6A 1500   7.856   7.841   7.471 -0.1387 -0.0865  0.2590
   94loPI   C1B 1501   7.522   7.775   9.573 -0.0511  0.1593 -0.0166
   94loPI   C2B 1502   7.552   7.809   9.184  0.3610  0.4577  0.2095
   94loPI   C3B 1503   7.558   7.728   8.715  0.0178  0.1391  0.0387
   94loPI   C4B 1504   7.519   7.778   8.262  0.0696 -0.0096 -0.0837
   95loPI    C1 1505   8.420  13.385  10.823 -0.0802  0.0017 -0.1029
   95loPI    C2 1506   8.596  13.118  11.063 -0.2138 -0.1148 -0.1325
   95loPI    C3 1507   8.199  13.165  11.073 -0.1857  0.1287 -0.0832
   95loPI   PO4 1508   8.488  13.311  10.601  0.3526  0.2029  0.5608
   95loPI   GL1 1509   8.820  13.412  10.372  0.2883  0.2364  0.1983
   95loPI   GL2 1510   8.825  13.651  10.258 -0.0099 -0.2029 -0.3735
   95loPI   C1A 1511   8.661  13.323   9.948 -0.2634 -0.0796 -0.2659
   95loPI   C2A 1512   8.745  13.388   9.473 -0.2593  0.0659 -0.1982
   95loPI   C3A 1513   8.759  13.474   8.972  0.0284 -0.1348 -0.3987
   95loPI   C4A 1514   8.765  13.480   8.533  0.0735 -0.3576 -0.1444
   95loPI   C5A 1515   8.299  13.548   8.381 -0.1225  0.1216  0.1015
   95loPI   C6A 1516   7.968  13.315   8.391 -0.1177 -0.2179 -0.1416
   95loPI   C1B 1517   8.925  13.798   9.933  0.2644 -0.1139  0.1662
   95loPI   C2B 1518   8.939  13.894   9.451 -0.1995  0.0576  0.1378
   95loPI   C3B 1519   8.982  13.961   9.032  0.3547 -0.0626 -0.1505
   95loPI   C4B 1520   9.049  13.981   8.542  0.1337 -0.2737  0.1679
   96loPI    C1 1521   6.371   1.542  11.238 -0.1257  0.1064 -0.1704
   96loPI    C2 1522   6.087   1.355  11.447 -0.1576 -0.0879 -0.3836
   96loPI    C3 1523   6.281   1.665  11.607  0.1171 -0.4942  0.1027
   96loPI   PO4 1524   6.322   1.594  11.017 -0.0070  0.0829 -0.0883
   96loPI   GL1 1525   6.259   1.544  10.557 -0.0612  0.2161  0.2603
   96loPI   GL2 1526   6.525   1.795  10.439  0.3812  0.1580  0.2012
   96loPI   C1A 1527   6.001   1.528  10.226 -0.0651  0.3428 -0.0866
   96loPI   C2A 1528   6.064   1.630   9.734 -0.1757  0.0823  0.2760
   96loPI   C3A 1529   6.033   1.623   9.263  0.0236 -0.3110 -0.2302
   96loPI   C4A 1530   5.918   1.545   8.756 -0.0390  0.0513  0.1038
   96loPI   C5A 1531   5.734   1.642   8.340  0.1316  0.0242  0.2797
   96loPI   C6A 1532   5.307   1.434   8.112  0.0451 -0.2960 -0.0433
   96loPI   C1B 1533   6.478   1.700  10.028  0.1216  0.1096  0.1168
   96loPI   C2B 1534   6.576   1.611   9.578  0.0346 -0.3541  0.1071
   96loPI   C3B 1535   6.593   1.598   9.095 -0.1250 -0.0459 -0.2787
   96loPI   C4B 1536   6.677   1.318   8.721  0.1550 -0.0274  0.2920
   97loPI    C1 1537   3.964  16.756  11.213 -0.0537 -0.2008 -0.1589
   97loPI    C2 1538   3.749  16.582  11.502 -0.0685  0.0610 -0.0094
   97loPI    C3 1539   3.787  16.980  11.493 -0.0005  0.0501 -0.3228
   97loPI   PO4 1540   3.826  16.708  10.963  0.0448  0.0012 -0.0497
   97loPI   GL1 1541   3.928  16.894  10.494  0.2382 -0.0277  0.0621
   97loPI   GL2 1542   3.960  16.607  10.479 -0.1943  0.1465  0.2738
   97loPI   C1A 1543   4.102  17.062  10.134  0.0664 -0.0938  0.0677
   97loPI   C2A 1544   4.280  16.942   9.778  0.0670 -0.1628  0.0283
   97loPI   C3A 1545   4.336  16.944   9.332 -0.0914  0.0154  0.2168
   97loPI   C4A 1546   4.351  16.867   8.790  0.2164  0.4396  0.0627
   97loPI   C5A 1547   4.364  16.984   8.347 -0.0602 -0.0341 -0.2817
   97loPI   C6A 1548   4.754  17.321   8.240 -0.0922  0.1809  0.0733
   97loPI   C1B 1549   4.072  16.521  10.010  0.2856  0.0672  0.1189
   97loPI   C2B 1550   4.262  16.497   9.602 -0.2245 -0.3644 -0.1255
   97loPI   C3B 1551   4.031  16.414   9.232  0.0445  0.0577  0.1309
   97loPI   C4B 1552   4.133  16.438   8.809  0.2504 -0.2814 -0.0003
   98loPI    C1 1553  10.054  10.905  10.520  0.1413  0.0094  0.1260
   98loPI    C2 1554  10.020  10.530  10.654 -0.0264  0.0032  0.0679
   98loPI    C3 1555   9.868  10.833  10.867  0.0348  0.0301  0.0734
   98loPI   PO4 1556  10.144  10.753  10.181 -0.3382  0.0480 -0.0547
   98loPI   GL1 1557  10.316  10.530   9.768 -0.0050 -0.2344 -0.0927
   98loPI   GL2 1558  10.506  10.271   9.839 -0.0232  0.1120 -0.1881
   98loPI   C1A 1559  10.172  10.589   9.349 -0.1112 -0.1882 -0.1237
   98loPI   C2A 1560  10.450  10.559   8.924 -0.0874 -0.0535  0.1683
   98loPI   C3A 1561  10.477  10.428   8.472 -0.0747 -0.0945 -0.0177
   98loPI   C4A 1562  10.725  10.382   8.115 -0.0040  0.2557  0.0138
   98loPI   C5A 1563  11.061  10.516   7.758  0.0720  0.1097 -0.0894
   98loPI   C6A 1564  10.983  10.830   7.496 -0.0204  0.4748 -0.0125
   98loPI   C1B 1565  10.457  10.156   9.383  0.1855 -0.4166 -0.2703
   98loPI   C2B 1566  10.279  10.065   8.943  0.0921 -0.2726  0.3718
   98loPI   C3B 1567  10.161  10.017   8.445 -0.0255  0.0809 -0.2839
   98loPI   C4B 1568  10.254  10.215   8.018  0.3046 -0.2613  0.0400
   99loPI    C1 1569   3.637  11.489  10.409  0.1497 -0.2838 -0.0269
   99loPI    C2 1570   3.645  11.208  10.693 -0.2809 -0.2405  0.0339
   99loPI    C3 1571   3.584  11.591  10.792  0.2147 -0.1312 -0.0577
   99loPI   PO4 1572   3.673  11.327  10.184 -0.2119 -0.2084 -0.1561
   99loPI   GL1 1573   3.734  11.404   9.802 -0.0383 -0.1478  0.2627
   99loPI   GL2 1574   3.409  11.276   9.794 -0.0199 -0.0016  0.0898
   99loPI   C1A 1575   4.007  11.574   9.408  0.0123  0.0904 -0.1501
   99loPI   C2A 1576   3.959  11.552   9.013 -0.1252  0.0186  0.1394
   99loPI   C3A 1577   4.105  11.373   8.572 -0.2446  0.1461  0.0352
   99loPI   C4A 1578   4.088  11.171   8.176  0.0821 -0.1174  0.0923
   99loPI   C5A 1579   4.193  11.315   7.715 -0.0286  0.2611 -0.3659
   99loPI   C6A 1580   4.086  11.528   7.240 -0.1289 -0.2119  0.2101
   99loPI   C1B 1581   3.665  11.173   9.346 -0.0759 -0.0350 -0.1947
   99loPI   C2B 1582   3.707  11.094   8.951  0.1590  0.1294  0.1780
   99loPI   C3B 1583   3.869  10.893   8.588 -0.0332  0.2523 -0.0045
   99loPI   C4B 1584   3.936  10.677   8.199 -0.0252 -0.0122  0.3845
  100loPI    C1 1585   7.392  14.391  11.239  0.1222  0.0876 -0.2500
  100loPI    C2 1586   7.031  14.351  11.407  0.2222 -0.1773 -0.0933
  100loPI    C3 1587   7.175  14.715  11.327 -0.0448 -0.0674 -0.0827
  100loPI   PO4 1588   7.374  14.200  11.012  0.2037  0.0501 -0.0422
  100loPI   GL1 1589   7.385  14.236  10.552  0.2740 -0.1225  0.1578
  100loPI   GL2 1590   7.135  14.182  10.396  0.0992 -0.0496 -0.2512
  100loPI   C1A 1591   7.243  14.617  10.308  0.0276 -0.0805 -0.1203
  100loPI   C2A 1592   7.246  14.508   9.887  0.1724  0.3119  0.0576
  100loPI   C3A 1593   7.247  14.513   9.457  0.0328  0.1388  0.0910
  100loPI   C4A 1594   7.222  14.642   9.084  0.1064 -0.1534  0.3779
  100loPI   C5A 1595   7.300  14.642   8.734 -0.0807 -0.0475 -0.3673
  100loPI   C6A 1596   7.345  14.472   8.390  0.0302  0.3646  0.1989
  100loPI   C1B 1597   7.034  14.046   9.888  0.0842 -0.0470  0.2296
  100loPI   C2B 1598   6.991  14.051   9.574 -0.1419 -0.2690 -0.0307
  100loPI   C3B 1599   7.123  14.174   9.112 -0.1057  0.1070 -0.1381
  100loPI   C4B 1600   7.076  14.213   8.735  0.0834 -0.1703  0.0938
  101loPI    C1 1601   9.465   8.229  10.973 -0.2762  0.2766 -0.0020
  101loPI    C2 1602   9.635   8.421  11.279  0.2544  0.0171 -0.1218
  101loPI    C3 1603   9.482   8.056  11.333  0.3811 -0.0438 -0.1717
  101loPI   PO4 1604   9.612   8.311  10.803 -0.0179 -0.0984  0.0485
  101loPI   GL1 1605   9.591   8.298  10.390  0.0822  0.0308 -0.0691
  101loPI   GL2 1606   9.376   8.179  10.197 -0.0858  0.2950  0.3002
  101loPI   C1A 1607   9.749   8.351   9.908 -0.0829 -0.0802  0.0820
  101loPI   C2A 1608  10.125   8.394   9.688 -0.0733  0.0219  0.0743
  101loPI   C3A 1609  10.406   8.073   9.462  0.0787  0.1271 -0.1836
  101loPI   C4A 1610  10.658   7.900   9.204  0.1493 -0.2092 -0.0143
  101loPI   C5A 1611  10.725   7.895   8.788 -0.1497 -0.0724  0.0118
  101loPI   C6A 1612  10.961   8.195   8.553 -0.0757  0.3872 -0.3353
  101loPI   C1B 1613   9.492   7.975   9.705 -0.2165 -0.0619 -0.3452
  101loPI   C2B 1614   9.635   8.141   9.338  0.2162 -0.0263 -0.1190
  101loPI   C3B 1615  10.046   8.246   9.137 -0.0675  0.1126 -0.1231
  101loPI   C4B 1616  10.521   8.317   8.993 -0.1721 -0.1014  0.1591
  102loPI    C1 1617  16.384   8.068  11.120 -0.0172  0.0193  0.2089
  102loPI    C2 1618  16.434   8.462  11.166  0.1260  0.0535 -0.2027
  102loPI    C3 1619  16.447   8.220  11.484 -0.2749  0.4107  0.0961
  102loPI   PO4 1620  16.286   8.021  10.901 -0.0987  0.0403  0.2307
  102loPI   GL1 1621  16.268   8.007  10.387 -0.6144  0.1491  0.2057
  102loPI   GL2 1622  15.956   8.036  10.334 -0.0410  0.0719  0.0406
  102loPI   C1A 1623  16.443   8.029   9.983  0.1749 -0.0515 -0.2613
  102loPI   C2A 1624  16.504   7.954   9.484 -0.1166  0.1257 -0.0067
  102loPI   C3A 1625  16.388   7.929   9.109 -0.1953  0.0085 -0.3032
  102loPI   C4A 1626  16.383   8.046   8.624  0.3949  0.0726 -0.0835
  102loPI   C5A 1627  16.403   7.955   8.146 -0.2052 -0.0131 -0.2234
  102loPI   C6A 1628  16.562   8.010   7.744  0.0957  0.0179 -0.3525
  102loPI   C1B 1629  15.952   7.907   9.870 -0.0381 -0.1970  0.0544
  102loPI   C2B 1630  15.941   7.761   9.522 -0.0425  0.2284  0.2207
  102loPI   C3B 1631  15.928   7.827   9.054 -0.0958  0.0949  0.1642
  102loPI   C4B 1632  15.894   7.936   8.590  0.0123 -0.1296 -0.0394
  103loPI    C1 1633   5.783   4.997  10.793  0.0229 -0.0712  0.0423
  103loPI    C2 1634   6.021   5.025  11.113  0.1380  0.3342 -0.0722
  103loPI    C3 1635   5.786   5.332  11.011 -0.2122  0.0515 -0.1384
  103loPI   PO4 1636   5.893   5.035  10.598  0.0513 -0.1182  0.0011
  103loPI   GL1 1637   5.844   5.062  10.201  0.0916  0.2401  0.3840
  103loPI   GL2 1638   5.772   4.784   9.998  0.1484  0.0904 -0.1177
  103loPI   C1A 1639   6.028   5.243   9.796  0.0273  0.0016 -0.1772
  103loPI   C2A 1640   6.174   5.253   9.357  0.3170  0.2521  0.1536
  103loPI   C3A 1641   6.069   5.122   8.972  0.0854 -0.2389 -0.2866
  103loPI   C4A 1642   6.118   5.173   8.565  0.1473 -0.1098 -0.1078
  103loPI   C5A 1643   6.245   4.948   8.186 -0.1440 -0.0389 -0.1007
  103loPI   C6A 1644   6.570   4.831   7.918 -0.0252 -0.0903 -0.0244
  103loPI   C1B 1645   6.040   4.766   9.678  0.2820 -0.1142 -0.1386
  103loPI   C2B 1646   5.913   4.686   9.256 -0.2101 -0.2457 -0.0868
  103loPI   C3B 1647   5.855   4.659   8.803 -0.1268 -0.3024 -0.0803
  103loPI   C4B 1648   5.834   4.815   8.418  0.3012  0.2477  0.1036
  104loPI    C1 1649   8.794  12.451  11.115  0.3863 -0.0430  0.0859
  104loPI    C2 1650   8.747  12.732  11.396  0.0929  0.0132 -0.0164
  104loPI    C3 1651   8.709  12.345  11.492  0.0635  0.0290  0.0362
  104loPI   PO4 1652   8.665  12.664  10.873  0.2896  0.1769  0.1783
  104loPI   GL1 1653   8.561  12.796  10.438  0.0617 -0.4654 -0.2118
  104loPI   GL2 1654   8.832  12.878  10.151  0.4031 -0.0028 -0.1944
  104loPI   C1A 1655   8.399  12.913   9.994  0.0769 -0.1475  0.1562
  104loPI   C2A 1656   8.543  12.843   9.585 -0.2156  0.1569 -0.1943
  104loPI   C3A 1657   8.644  13.051   9.111 -0.0236  0.0135 -0.1567
  104loPI   C4A 1658   8.669  12.975   8.671 -0.2841  0.1399 -0.3561
  104loPI   C5A 1659   8.436  13.025   8.328  0.0683 -0.3834  0.1364
  104loPI   C6A 1660   8.590  13.296   8.031 -0.0154  0.0554 -0.1271
  104loPI   C1B 1661   9.019  12.921   9.781  0.0164  0.0254  0.1291
  104loPI   C2B 1662   8.989  12.905   9.390 -0.1211  0.1269 -0.0682
  104loPI   C3B 1663   9.134  12.962   8.943 -0.0089  0.0843 -0.0868
  104loPI   C4B 1664   9.120  12.962   8.488 -0.0438  0.1266 -0.1491
  105loPI    C1 1665  14.289  10.274  10.769 -0.2723  0.1301 -0.1268
  105loPI    C2 1666  14.587  10.011  10.814 -0.1559  0.2723 -0.0597
  105loPI    C3 1667  14.427  10.189  11.135 -0.2337  0.2845 -0.1049
  105loPI   PO4 1668  14.388  10.450  10.566 -0.2762  0.4240 -0.1334
  105loPI   GL1 1669  14.299  10.513  10.154  0.1483  0.0419  0.2287
  105loPI   GL2 1670  14.246  10.758  10.037 -0.0446  0.0656  0.0515
  105loPI   C1A 1671  14.504  10.344   9.747  0.0470 -0.1755  0.2714
  105loPI   C2A 1672  14.476  10.396   9.297  0.0553  0.2151 -0.0863
  105loPI   C3A 1673  14.413  10.523   8.851  0.3079  0.3277 -0.1119
  105loPI   C4A 1674  14.381  10.690   8.501  0.1655 -0.2274 -0.0584
  105loPI   C5A 1675  14.098  10.628   8.050 -0.1494  0.0501 -0.1066
  105loPI   C6A 1676  13.640  10.537   8.017 -0.0346 -0.1109 -0.1285
  105loPI   C1B 1677  14.151  10.872   9.685  0.1414 -0.0925  0.1706
  105loPI   C2B 1678  14.160  10.851   9.193 -0.0668 -0.3822  0.0559
  105loPI   C3B 1679  13.981  10.940   8.741 -0.1421 -0.1527 -0.1401
  105loPI   C4B 1680  13.936  11.008   8.332 -0.0342 -0.0915  0.1612
  106loPI    C1 1681  12.882   3.727  11.118 -0.1420  0.0372 -0.0340
  106loPI    C2 1682  12.695   3.470  11.361  0.1544  0.0694  0.2344
  106loPI    C3 1683  12.793   3.835  11.492  0.0350  0.2022 -0.0384
  106loPI   PO4 1684  12.754   3.793  10.893  0.4129 -0.0000  0.0817
  106loPI   GL1 1685  12.660   3.618  10.467  0.0410  0.3841  0.0011
  106loPI   GL2 1686  12.477   3.833  10.457  0.1844 -0.1721 -0.2873
  106loPI   C1A 1687  12.672   3.361  10.072  0.2134  0.0437 -0.0495
  106loPI   C2A 1688  12.697   3.338   9.512 -0.0879  0.0890  0.1283
  106loPI   C3A 1689  12.609   3.374   9.099 -0.1033  0.1497  0.1478
  106loPI   C4A 1690  12.574   3.398   8.686 -0.4884 -0.4068  0.0232
  106loPI   C5A 1691  12.425   3.565   8.279  0.0966  0.0012 -0.2206
  106loPI   C6A 1692  12.285   3.209   7.986 -0.1592 -0.3573  0.0925
  106loPI   C1B 1693  12.389   3.800  10.023 -0.0371 -0.0401 -0.0663
  106loPI   C2B 1694  12.398   3.718   9.539  0.0396 -0.2382  0.5644
  106loPI   C3B 1695  12.286   3.756   9.135 -0.0155 -0.1107 -0.0548
  106loPI   C4B 1696  12.179   3.760   8.678 -0.0818  0.4183 -0.0092
  107loPI    C1 1697   3.936  13.521  10.994 -0.0117 -0.1164 -0.3160
  107loPI    C2 1698   4.166  13.496  11.320 -0.1618  0.3405 -0.1681
  107loPI    C3 1699   3.779  13.396  11.340 -0.1425  0.2499 -0.2392
  107loPI   PO4 1700   4.050  13.619  10.843  0.1314  0.1664  0.2143
  107loPI   GL1 1701   4.143  13.617  10.350  0.0910  0.0594 -0.0788
  107loPI   GL2 1702   4.063  14.020  10.458 -0.0204 -0.2884  0.1716
  107loPI   C1A 1703   4.389  13.565   9.880  0.2675 -0.1529  0.2804
  107loPI   C2A 1704   4.421  13.603   9.360 -0.0754 -0.1693  0.0637
  107loPI   C3A 1705   4.398  13.765   8.964 -0.1713 -0.1057  0.2796
  107loPI   C4A 1706   4.667  13.772   8.590  0.3535 -0.0928  0.1201
  107loPI   C5A 1707   4.992  13.804   8.242 -0.1541  0.0992  0.1141
  107loPI   C6A 1708   4.985  13.664   7.867 -0.1697 -0.0971  0.2524
  107loPI   C1B 1709   3.979  14.050  10.064  0.2864 -0.0760  0.1830
  107loPI   C2B 1710   4.073  14.077   9.600  0.1649 -0.1464  0.1880
  107loPI   C3B 1711   4.188  14.171   9.167  0.4861 -0.2039  0.4890
  107loPI   C4B 1712   4.056  14.194   8.813  0.1703 -0.0589 -0.0616
  108loPI    C1 1713  13.770   1.664  11.098 -0.0189  0.0723  0.0101
  108loPI    C2 1714  13.840   1.301  11.251  0.1091  0.1253  0.0785
  108loPI    C3 1715  14.088   1.454  10.976  0.0445  0.1530  0.0355
  108loPI   PO4 1716  13.474   1.637  10.976 -0.1982 -0.0048 -0.1304
  108loPI   GL1 1717  13.413   1.768  10.513 -0.0655 -0.0164 -0.3201
  108loPI   GL2 1718  13.446   1.492  10.258 -0.2885  0.2749  0.2014
  108loPI   C1A 1719  13.612   2.013  10.265  0.1070 -0.0865  0.1708
  108loPI   C2A 1720  13.548   2.147   9.843  0.0099  0.1505 -0.1683
  108loPI   C3A 1721  13.550   2.162   9.356  0.1279  0.0347 -0.1451
  108loPI   C4A 1722  13.571   2.155   8.969  0.0259  0.2164 -0.1785
  108loPI   C5A 1723  13.579   2.157   8.543  0.1160  0.0448  0.4465
  108loPI   C6A 1724  13.863   2.176   8.126 -0.0394 -0.3746 -0.0869
  108loPI   C1B 1725  13.401   1.698   9.892  0.1617  0.0805 -0.2870
  108loPI   C2B 1726  13.363   1.636   9.523 -0.2380  0.1219 -0.1350
  108loPI   C3B 1727  13.441   1.656   9.085 -0.0578 -0.0485 -0.0542
  108loPI   C4B 1728  13.390   1.661   8.611 -0.1786 -0.1144  0.0998
  109loPI    C1 1729   1.077  11.066  10.555 -0.0694 -0.1702 -0.0309
  109loPI    C2 1730   1.084  10.718  10.752  0.1498 -0.0118  0.2487
  109loPI    C3 1731   0.955  11.049  10.936 -0.1266  0.0443 -0.0381
  109loPI   PO4 1732   0.992  10.929  10.308 -0.1534  0.2287 -0.0194
  109loPI   GL1 1733   1.276  10.969  10.024 -0.3880 -0.0933  0.1005
  109loPI   GL2 1734   1.189  10.584  10.011 -0.1264  0.1992  0.1207
  109loPI   C1A 1735   1.337  10.811   9.597 -0.1421  0.1237  0.0251
  109loPI   C2A 1736   1.344  11.043   9.289  0.2252 -0.5424 -0.0171
  109loPI   C3A 1737   1.454  11.078   8.801 -0.0585 -0.6876 -0.1716
  109loPI   C4A 1738   1.379  11.138   8.396  0.0310 -0.1299  0.0368
  109loPI   C5A 1739   1.154  11.089   8.101  0.0389 -0.1517  0.2008
  109loPI   C6A 1740   0.807  11.296   8.035 -0.0363 -0.2212 -0.0423
  109loPI   C1B 1741   1.073  10.400   9.711  0.0666  0.2532  0.1765
  109loPI   C2B 1742   0.952  10.364   9.235  0.2347  0.0607  0.0635
  109loPI   C3B 1743   0.819  10.386   8.826 -0.0026 -0.0270  0.1341
  109loPI   C4B 1744   0.511  10.521   8.550  0.0683 -0.3820 -0.0241
  110loPI    C1 1745  11.582   9.968  10.686  0.2198 -0.0010  0.2469
  110loPI    C2 1746  11.723   9.760  10.997  0.4437 -0.0600  0.1087
  110loPI    C3 1747  11.809  10.149  10.961  0.2667 -0.0096  0.2139
  110loPI   PO4 1748  11.698   9.947  10.439 -0.1656 -0.2050  0.1531
  110loPI   GL1 1749  11.678   9.666  10.041  0.0217  0.1493 -0.0127
  110loPI   GL2 1750  11.638  10.048   9.976  0.3163  0.3318  0.2065
  110loPI   C1A 1751  11.647   9.705   9.577 -0.1964 -0.0719 -0.0487
  110loPI   C2A 1752  11.649   9.698   9.078 -0.1358 -0.0380 -0.0387
  110loPI   C3A 1753  11.547   9.719   8.685  0.0801  0.1703  0.1854
  110loPI   C4A 1754  11.341   9.605   8.304  0.0688 -0.0947 -0.1744
  110loPI   C5A 1755  11.037   9.562   8.101  0.4362  0.0829  0.3149
  110loPI   C6A 1756  10.654   9.591   7.853  0.0873  0.1448 -0.0920
  110loPI   C1B 1757  11.803  10.218   9.592 -0.0281  0.0099  0.2027
  110loPI   C2B 1758  11.947  10.244   9.247  0.1500 -0.3090 -0.0191
  110loPI   C3B 1759  11.749  10.177   8.814  0.1482 -0.0785 -0.0327
  110loPI   C4B 1760  11.435  10.182   8.507 -0.3633 -0.3819  0.2075
  111loPI    C1 1761   4.311   3.599  10.763 -0.2605  0.0044 -0.0074
  111loPI    C2 1762   3.929   3.685  10.682 -0.2734 -0.2391 -0.2181
  111loPI    C3 1763   4.018   3.390  10.937 -0.2251 -0.0538 -0.0175
  111loPI   PO4 1764   4.397   3.472  10.531  0.1730 -0.4280  0.0149
  111loPI   GL1 1765   4.485   3.158  10.252  0.3002  0.2813 -0.0667
  111loPI   GL2 1766   4.161   3.160  10.181  0.2929 -0.2013 -0.0765
  111loPI   C1A 1767   4.716   3.316   9.943  0.4480 -0.0363  0.3291
  111loPI   C2A 1768   4.703   3.203   9.497  0.0474 -0.3426  0.2577
  111loPI   C3A 1769   4.766   3.203   9.104 -0.3269  0.1916  0.2784
  111loPI   C4A 1770   4.678   3.139   8.679 -0.2009 -0.2306 -0.0357
  111loPI   C5A 1771   4.687   3.180   8.257 -0.0882 -0.0304 -0.1832
  111loPI   C6A 1772   4.645   3.428   7.888 -0.0805  0.2223 -0.0103
  111loPI   C1B 1773   4.288   3.151   9.772 -0.0991  0.1744  0.0518
  111loPI   C2B 1774   4.249   3.105   9.307  0.2212  0.0549  0.1953
  111loPI   C3B 1775   4.260   3.147   8.945  0.1117  0.2932 -0.1930
  111loPI   C4B 1776   4.253   3.037   8.551 -0.1116  0.0381 -0.0085
  112loPI    C1 1777   9.004  12.085  10.772  0.1133  0.4173  0.0003
  112loPI    C2 1778   9.018  12.048  11.170  0.0208  0.0099 -0.0305
  112loPI    C3 1779   9.303  11.883  10.943 -0.0453  0.0506 -0.1441
  112loPI   PO4 1780   8.840  12.205  10.669 -0.4856 -0.2151 -0.4986
  112loPI   GL1 1781   8.810  12.402  10.211 -0.1681  0.0828  0.0444
  112loPI   GL2 1782   8.923  12.039  10.209 -0.2922  0.0321 -0.1052
  112loPI   C1A 1783   8.766  12.486   9.841 -0.2074  0.1854 -0.0656
  112loPI   C2A 1784   8.583  12.296   9.454 -0.1718  0.0703 -0.2815
  112loPI   C3A 1785   8.756  12.322   9.047 -0.0174 -0.0611 -0.2434
  112loPI   C4A 1786   8.962  12.522   8.756  0.0128 -0.0561  0.6012
  112loPI   C5A 1787   9.115  12.470   8.363 -0.0191  0.2466 -0.0849
  112loPI   C6A 1788   9.051  12.304   7.961  0.0598  0.1094  0.2287
  112loPI   C1B 1789   9.006  12.049   9.803  0.0880  0.0583 -0.1032
  112loPI   C2B 1790   8.949  11.850   9.395 -0.0770 -0.0302  0.1584
  112loPI   C3B 1791   8.883  11.804   8.935  0.0811  0.1302  0.1482
  112loPI   C4B 1792   8.896  12.044   8.585  0.3054  0.2724  0.0786
  113loPI    C1 1793  15.884   6.409  10.799  0.0245  0.1758  0.0664
  113loPI    C2 1794  15.501   6.514  10.851 -0.0042  0.0276  0.1611
  113loPI    C3 1795  15.606   6.128  10.861  0.0766  0.0314 -0.3270
  113loPI   PO4 1796  15.910   6.567  10.559 -0.1079 -0.0428  0.1444
  113loPI   GL1 1797  16.098   6.554  10.164 -0.0241 -0.0499 -0.0352
  113loPI   GL2 1798  16.352   6.198  10.041 -0.0368 -0.3094 -0.1097
  113loPI   C1A 1799  15.993   6.532   9.642 -0.2429  0.0377 -0.0064
  113loPI   C2A 1800  15.888   6.545   9.229  0.0544  0.3758  0.0683
  113loPI   C3A 1801  15.794   6.475   8.719  0.1831 -0.1061 -0.2286
  113loPI   C4A 1802  15.789   6.472   8.222  0.0107  0.0662  0.2569
  113loPI   C5A 1803  15.579   6.635   7.953 -0.0721  0.3278 -0.0622
  113loPI   C6A 1804  15.533   6.939   7.662 -0.3369  0.1899 -0.0691
  113loPI   C1B 1805  16.286   6.096   9.519  0.0033  0.1642  0.7479
  113loPI   C2B 1806  16.145   6.103   9.068  0.2582 -0.2907 -0.1859
  113loPI   C3B 1807  16.151   6.003   8.589  0.0793  0.2532 -0.1683
  113loPI   C4B 1808  16.176   6.193   8.203 -0.0605  0.0998  0.1044
  114loPI    C1 1809  15.192   5.226  10.862  0.3373  0.0189  0.0025
  114loPI    C2 1810  15.510   4.984  10.845  0.3053 -0.0358  0.1581
  114loPI    C3 1811  15.462   5.230  11.157  0.0608 -0.2170  0.2671
  114loPI   PO4 1812  15.025   5.117  10.701  0.0143  0.0648  0.2985
  114loPI   GL1 1813  14.997   5.156  10.332 -0.0884  0.4020 -0.2068
  114loPI   GL2 1814  15.373   5.241  10.365  0.1518  0.0705 -0.0835
  114loPI   C1A 1815  14.886   5.061   9.942  0.1113 -0.2137  0.0312
  114loPI   C2A 1816  14.810   5.029   9.543 -0.0346 -0.0008  0.1785
  114loPI   C3A 1817  14.708   4.997   9.119  0.2428 -0.3347 -0.0733
  114loPI   C4A 1818  14.624   4.994   8.739  0.5466  0.1258 -0.0564
  114loPI   C5A 1819  14.542   4.644   8.365 -0.0592  0.0956  0.1152
  114loPI   C6A 1820  14.161   4.508   8.311 -0.1750  0.0306 -0.0695
  114loPI   C1B 1821  15.368   5.116   9.895  0.0223 -0.1047  0.0400
  114loPI   C2B 1822  15.353   5.087   9.389  0.3405  0.3825 -0.1175
  114loPI   C3B 1823  15.257   5.104   8.932  0.0083 -0.2217 -0.0139
  114loPI   C4B 1824  15.094   4.908   8.548 -0.0608 -0.0371 -0.0256
  115loPI    C1 1825  10.075   2.629  11.043  0.0763 -0.4133 -0.0632
  115loPI    C2 1826   9.872   2.310  11.174 -0.0813 -0.1943  0.2400
  115loPI    C3 1827  10.255   2.358  11.276 -0.0415 -0.3127  0.1487
  115loPI   PO4 1828   9.973   2.607  10.778 -0.2527 -0.0113 -0.2525
  115loPI   GL1 1829  10.023   2.872  10.465  0.0451  0.4938 -0.1223
  115loPI   GL2 1830   9.837   2.600  10.258 -0.5550  0.0147 -0.0932
  115loPI   C1A 1831  10.124   3.073  10.109 -0.0337 -0.0502  0.1831
  115loPI   C2A 1832  10.036   2.990   9.762 -0.1698 -0.0560  0.6988
  115loPI   C3A 1833  10.059   2.951   9.298 -0.2058 -0.0565  0.0386
  115loPI   C4A 1834  10.073   3.047   8.810  0.1185  0.2366 -0.3228
  115loPI   C5A 1835  10.215   2.969   8.357 -0.4134 -0.0118  0.0885
  115loPI   C6A 1836  10.333   2.791   7.955  0.2429  0.0060 -0.1445
  115loPI   C1B 1837   9.905   2.504   9.800  0.2088 -0.1445 -0.3818
  115loPI   C2B 1838   9.889   2.468   9.282 -0.4031 -0.0451 -0.0731
  115loPI   C3B 1839   9.842   2.539   8.852  0.2235 -0.0354  0.0397
  115loPI   C4B 1840   9.860   2.548   8.461 -0.2589 -0.0844 -0.1305
  116loPI    C1 1841   3.027  10.810  10.506  0.1947  0.0147  0.0504
  116loPI    C2 1842   2.881  10.437  10.496  0.2036  0.0102  0.0835
  116loPI    C3 1843   2.955  10.614  10.847  0.1820  0.0502  0.0681
  116loPI   PO4 1844   2.872  10.887  10.340 -0.0291 -0.1009 -0.0502
  116loPI   GL1 1845   3.047  10.913   9.913  0.0415  0.2924 -0.0885
  116loPI   GL2 1846   2.856  11.149   9.751 -0.0529  0.2401  0.1396
  116loPI   C1A 1847   3.261  10.854   9.559  0.1889 -0.2544 -0.3316
  116loPI   C2A 1848   3.330  10.752   9.157  0.2626 -0.0044  0.1064
  116loPI   C3A 1849   3.352  10.789   8.784  0.0551  0.5787 -0.0998
  116loPI   C4A 1850   3.386  10.711   8.371  0.1049  0.0488 -0.0181
  116loPI   C5A 1851   3.061  10.658   7.974  0.2028  0.0177  0.1123
  116loPI   C6A 1852   2.707  10.414   7.739  0.1334  0.2456 -0.0590
  116loPI   C1B 1853   2.800  10.924   9.457 -0.0696 -0.2345  0.0378
  116loPI   C2B 1854   2.765  10.860   9.051 -0.1787 -0.1437  0.0509
  116loPI   C3B 1855   2.833  10.723   8.694 -0.2085  0.1128  0.0562
  116loPI   C4B 1856   2.596  10.696   8.321  0.2409  0.2355 -0.0073
  117loPI    C1 1857  11.975  13.921  10.981 -0.0234 -0.0526  0.0831
  117loPI    C2 1858  12.033  14.067  11.349 -0.1667  0.1447  0.0295
  117loPI    C3 1859  11.980  13.674  11.295  0.0379  0.0921  0.1972
  117loPI   PO4 1860  11.734  14.085  10.814 -0.0227 -0.2104 -0.0544
  117loPI   GL1 1861  11.702  14.385  10.526 -0.0367 -0.3190 -0.3320
  117loPI   GL2 1862  11.412  14.305  10.354  0.0956  0.1485 -0.1082
  117loPI   C1A 1863  12.015  14.351  10.224  0.0185 -0.0681  0.4829
  117loPI   C2A 1864  12.001  14.306   9.747 -0.3363 -0.3141  0.0615
  117loPI   C3A 1865  12.115  14.291   9.296  0.0206 -0.3523  0.0632
  117loPI   C4A 1866  12.108  14.375   8.858 -0.0038 -0.0439 -0.1874
  117loPI   C5A 1867  12.026  14.437   8.384  0.0227  0.1541 -0.0080
  117loPI   C6A 1868  11.661  14.273   8.106 -0.0542 -0.2751 -0.0793
  117loPI   C1B 1869  11.547  14.200   9.933 -0.2096  0.0319  0.0535
  117loPI   C2B 1870  11.541  14.119   9.473  0.0499  0.2968  0.0188
  117loPI   C3B 1871  11.560  14.231   9.036  0.0932  0.2087 -0.1104
  117loPI   C4B 1872  11.599  14.237   8.668  0.1202 -0.1226 -0.0427
  118loPI    C1 1873  11.501  10.945  10.648 -0.2206  0.2277 -0.1817
  118loPI    C2 1874  11.523  11.310  10.811 -0.1467  0.1515 -0.0191
  118loPI    C3 1875  11.574  10.985  11.039  0.0845  0.0457 -0.2164
  118loPI   PO4 1876  11.643  10.879  10.433  0.2623  0.1738 -0.1655
  118loPI   GL1 1877  11.513  10.775  10.048  0.4548  0.1960 -0.0459
  118loPI   GL2 1878  11.453  11.119   9.815 -0.0811 -0.2218  0.1416
  118loPI   C1A 1879  11.664  10.690   9.680  0.0516  0.3425  0.1579
  118loPI   C2A 1880  11.614  10.989   9.282 -0.0081 -0.1360 -0.2268
  118loPI   C3A 1881  11.765  11.159   8.781  0.1131  0.1053 -0.0449
  118loPI   C4A 1882  11.809  11.460   8.485 -0.3228 -0.1985  0.0625
  118loPI   C5A 1883  11.984  11.649   8.197 -0.0089  0.0555  0.2769
  118loPI   C6A 1884  11.958  11.888   7.818 -0.2400 -0.3675  0.1737
  118loPI   C1B 1885  11.606  11.428   9.469  0.0875 -0.0785 -0.0339
  118loPI   C2B 1886  11.483  11.477   9.025 -0.1972 -0.1495 -0.3897
  118loPI   C3B 1887  11.290  11.507   8.611 -0.2533  0.0413  0.0794
  118loPI   C4B 1888  10.947  11.402   8.256  0.0257  0.0541  0.3541
  119loPI    C1 1889  12.041   6.393  11.133 -0.1300  0.0051 -0.0086
  119loPI    C2 1890  12.423   6.390  11.251 -0.1030 -0.2795 -0.0947
  119loPI    C3 1891  12.135   6.500  11.506  0.0415  0.0172 -0.0544
  119loPI   PO4 1892  12.026   6.494  10.910 -0.0830 -0.3206 -0.0405
  119loPI   GL1 1893  12.070   6.489  10.499 -0.1230 -0.1841  0.0728
  119loPI   GL2 1894  11.677   6.670  10.536 -0.1871 -0.3101 -0.0273
  119loPI   C1A 1895  12.077   6.709  10.112  0.0860  0.0229 -0.3502
  119loPI   C2A 1896  12.245   6.864   9.780  0.0995 -0.2003 -0.3477
  119loPI   C3A 1897  12.092   6.933   9.435 -0.1668 -0.0967 -0.0227
  119loPI   C4A 1898  12.204   6.951   8.996 -0.0381  0.1251  0.1256
  119loPI   C5A 1899  12.248   6.885   8.559 -0.0018 -0.1515  0.2303
  119loPI   C6A 1900  12.457   7.029   8.218 -0.2902 -0.1454 -0.1511
  119loPI   C1B 1901  11.525   6.724  10.159 -0.0636 -0.0557  0.0744
  119loPI   C2B 1902  11.582   6.860   9.842 -0.2152 -0.2838  0.4498
  119loPI   C3B 1903  11.610   6.876   9.419  0.0254 -0.2923  0.0708
  119loPI   C4B 1904  11.741   6.867   9.016  0.2622  0.0539  0.0701
  120loPI    C1 1905   4.570  17.285  11.037 -0.0626  0.1848  0.1943
  120loPI    C2 1906   4.573  16.967  11.279 -0.0988  0.2623  0.2975
  120loPI    C3 1907   4.230  17.159  11.207 -0.1975 -0.1031 -0.2696
  120loPI   PO4 1908   4.649  17.208  10.793 -0.0061 -0.1399 -0.0370
  120loPI   GL1 1909   4.984  17.176  10.523  0.3477  0.2401 -0.1324
  120loPI   GL2 1910   4.927  17.498  10.393  0.3174 -0.4040  0.2288
  120loPI   C1A 1911   5.183  17.004  10.193  0.1315  0.1521  0.1675
  120loPI   C2A 1912   5.271  17.097   9.782 -0.2940 -0.0406 -0.1965
  120loPI   C3A 1913   5.367  17.110   9.427 -0.0574 -0.0026  0.1662
  120loPI   C4A 1914   5.437  17.108   8.956  0.0517 -0.1839  0.3077
  120loPI   C5A 1915   5.349  17.082   8.502  0.0506  0.1302 -0.2718
  120loPI   C6A 1916   5.173  17.265   7.994  0.0362 -0.1774 -0.0790
  120loPI   C1B 1917   4.880  17.477   9.943 -0.0161  0.2497 -0.4062
  120loPI   C2B 1918   5.044  17.446   9.506 -0.1763 -0.0639  0.2753
  120loPI   C3B 1919   4.992  17.435   9.047 -0.2706  0.0663 -0.1442
  120loPI   C4B 1920   5.016  17.459   8.676 -0.0548  0.4293 -0.1501
  121loPI    C1 1921   8.125  16.844  11.196 -0.0029 -0.0873 -0.0574
  121loPI    C2 1922   8.234  17.060  11.513  0.0545 -0.0574 -0.0974
  121loPI    C3 1923   7.848  17.035  11.412  0.0298 -0.1151  0.0093
  121loPI   PO4 1924   8.291  16.868  10.990  0.4071 -0.1902 -0.0463
  121loPI   GL1 1925   8.264  16.973  10.582 -0.3907  0.0475  0.0862
  121loPI   GL2 1926   8.103  17.266  10.610 -0.2212  0.1140 -0.0434
  121loPI   C1A 1927   8.126  16.919  10.117  0.0995 -0.0160 -0.3077
  121loPI   C2A 1928   8.148  16.930   9.738  0.2797  0.0505 -0.0685
  121loPI   C3A 1929   8.308  17.025   9.363 -0.0088  0.0607  0.2722
  121loPI   C4A 1930   8.202  17.107   9.013  0.1122 -0.2411  0.0108
  121loPI   C5A 1931   8.323  17.018   8.557 -0.2828  0.1948  0.0968
  121loPI   C6A 1932   8.693  16.832   8.295  0.1226 -0.1215  0.1804
  121loPI   C1B 1933   8.370  17.349  10.216  0.0304  0.1380  0.2486
  121loPI   C2B 1934   8.396  17.364   9.705  0.1749 -0.0973  0.2024
  121loPI   C3B 1935   8.521  17.487   9.331  0.2139  0.0217 -0.4090
  121loPI   C4B 1936   8.480  17.448   8.868  0.1065 -0.2976 -0.0763
  122loPI    C1 1937  15.521   7.006  11.116 -0.3347  0.1399  0.0889
  122loPI    C2 1938  15.887   6.846  11.129 -0.4257 -0.0854 -0.0534
  122loPI    C3 1939  15.831   7.226  11.238 -0.1813 -0.1047  0.1484
  122loPI   PO4 1940  15.400   7.004  10.857 -0.0867 -0.1696 -0.3398
  122loPI   GL1 1941  15.466   6.719  10.418  0.2184  0.3270 -0.1608
  122loPI   GL2 1942  15.412   6.399  10.369 -0.0750  0.0651  0.1608
  122loPI   C1A 1943  15.587   6.854  10.048 -0.0389 -0.3753  0.2016
  122loPI   C2A 1944  15.643   6.833   9.630  0.4135 -0.4510  0.1427
  122loPI   C3A 1945  15.564   6.902   9.264 -0.0588  0.0078  0.0715
  122loPI   C4A 1946  15.469   6.841   8.868  0.0911 -0.0720  0.0694
  122loPI   C5A 1947  15.396   6.838   8.472 -0.2107  0.0283  0.0837
  122loPI   C6A 1948  15.105   6.648   8.218  0.1238  0.0419 -0.0446
  122loPI   C1B 1949  15.432   6.376   9.931 -0.3664  0.0998 -0.4197
  122loPI   C2B 1950  15.400   6.415   9.459 -0.0578  0.0044 -0.3339
  122loPI   C3B 1951  15.341   6.370   8.999  0.0002 -0.1497 -0.1437
  122loPI   C4B 1952  15.355   6.352   8.590 -0.0577 -0.3267 -0.1806
  123loPI    C1 1953   4.126   4.107  10.779 -0.0164 -0.0636  0.0889
  123loPI    C2 1954   4.076   4.469  10.941  0.0880 -0.0827  0.1653
  123loPI    C3 1955   3.936   4.145  11.129  0.0229 -0.0853  0.1128
  123loPI   PO4 1956   4.133   4.133  10.565  0.1349  0.2242  0.1176
  123loPI   GL1 1957   3.969   4.012  10.202  0.2289  0.1324 -0.2436
  123loPI   GL2 1958   3.803   3.704  10.150  0.5210 -0.0421 -0.1867
  123loPI   C1A 1959   4.107   4.081   9.849 -0.0299  0.2652  0.0274
  123loPI   C2A 1960   4.194   4.057   9.384 -0.2832 -0.1075 -0.1129
  123loPI   C3A 1961   4.126   4.087   8.965  0.0100 -0.0468  0.1591
  123loPI   C4A 1962   3.950   4.253   8.512 -0.0323 -0.4624  0.1137
  123loPI   C5A 1963   4.202   4.520   8.285 -0.1850 -0.2694  0.2347
  123loPI   C6A 1964   4.069   4.877   8.042 -0.0697  0.1400 -0.2742
  123loPI   C1B 1965   3.847   3.489   9.750  0.1415 -0.1282  0.0063
  123loPI   C2B 1966   3.959   3.569   9.367  0.0329 -0.2456  0.4324
  123loPI   C3B 1967   3.916   3.649   8.987 -0.2413  0.3502  0.2161
  123loPI   C4B 1968   3.863   3.692   8.544 -0.1348  0.0816  0.1777
  124loPI    C1 1969   5.546   9.175  10.329  0.0784 -0.2061 -0.0756
  124loPI    C2 1970   5.603   9.239  10.720  0.0419  0.4301 -0.1635
  124loPI    C3 1971   5.239   9.287  10.559 -0.0184 -0.1612 -0.2247
  124loPI   PO4 1972   5.785   9.265  10.162  0.0255  0.0807 -0.0605
  124loPI   GL1 1973   6.039   9.447   9.798 -0.0042  0.2760 -0.0944
  124loPI   GL2 1974   6.020   9.144   9.749 -0.1149 -0.0947 -0.0684
  124loPI   C1A 1975   5.914   9.444   9.302 -0.1540  0.0769  0.2145
  124loPI   C2A 1976   5.830   9.414   8.840  0.0495  0.0113  0.0863
  124loPI   C3A 1977   5.706   9.225   8.531 -0.0220  0.0055 -0.2197
  124loPI   C4A 1978   5.531   8.910   8.121  0.1201 -0.0510  0.0709
  124loPI   C5A 1979   5.364   8.484   8.037 -0.2944 -0.0742  0.0496
  124loPI   C6A 1980   5.471   8.092   7.784  0.1078 -0.0790  0.0949
  124loPI   C1B 1981   6.175   9.009   9.454 -0.1978 -0.0565  0.1924
  124loPI   C2B 1982   6.142   9.066   9.064  0.1907 -0.0278  0.1386
  124loPI   C3B 1983   5.950   8.863   8.736  0.2974  0.4963 -0.2422
  124loPI   C4B 1984   5.927   8.690   8.344 -0.2681 -0.0969 -0.0119
  125loPI    C1 1985  12.694  15.350  10.998 -0.1413  0.1020 -0.1932
  125loPI    C2 1986  12.398  15.481  11.233 -0.1112  0.0722 -0.1386
  125loPI    C3 1987  12.685  15.733  11.113  0.0406  0.0193  0.1069
  125loPI   PO4 1988  12.582  15.289  10.772 -0.0067 -0.1162  0.0555
  125loPI   GL1 1989  12.238  15.366  10.432 -0.3097  0.2096 -0.2493
  125loPI   GL2 1990  12.055  15.638  10.354  0.0794  0.0006 -0.0322
  125loPI   C1A 1991  12.409  15.228   9.997 -0.2894  0.0813 -0.0398
  125loPI   C2A 1992  12.456  15.189   9.450  0.1608 -0.3602  0.1080
  125loPI   C3A 1993  12.533  15.266   9.029  0.0247 -0.2850  0.2862
  125loPI   C4A 1994  12.533  15.414   8.629  0.0020  0.1739  0.0749
  125loPI   C5A 1995  12.283  15.197   8.228  0.1288 -0.0085 -0.1759
  125loPI   C6A 1996  12.105  14.692   7.984  0.0532  0.0862 -0.2345
  125loPI   C1B 1997  12.071  15.703   9.917  0.0586  0.3438  0.1788
  125loPI   C2B 1998  12.135  15.671   9.469 -0.0304  0.1807 -0.0587
  125loPI   C3B 1999  12.159  15.720   8.999 -0.0760  0.1568 -0.0833
  125loPI   C4B 2000  12.175  15.737   8.564 -0.0770  0.0648  0.1938
  126loPI    C1 2001  16.772  12.408  11.070 -0.1944 -0.0759  0.2227
  126loPI    C2 2002  17.110  12.596  10.966 -0.1669 -0.4109 -0.3369
  126loPI    C3 2003  17.064  12.457  11.339 -0.0260  0.3310 -0.0242
  126loPI   PO4 2004  16.801  12.217  10.876  0.0342  0.1062  0.2549
  126loPI   GL1 2005  16.897  12.430  10.506  0.1705  0.2405  0.5702
  126loPI   GL2 2006  16.638  12.114  10.416 -0.3060  0.1211 -0.1764
  126loPI   C1A 2007  16.941  12.538  10.047 -0.1544  0.2883  0.1746
  126loPI   C2A 2008  16.933  12.525   9.605  0.2711 -0.1425  0.3010
  126loPI   C3A 2009  16.922  12.592   9.231 -0.0791 -0.1596 -0.0967
  126loPI   C4A 2010  16.880  12.684   8.810 -0.1390  0.2533  0.1077
  126loPI   C5A 2011  16.785  12.669   8.385  0.0617  0.0694  0.0243
  126loPI   C6A 2012  16.849  12.746   7.969  0.1698  0.1545  0.1244
  126loPI   C1B 2013  16.639  12.030   9.982  0.1051 -0.1359 -0.2300
  126loPI   C2B 2014  16.638  12.096   9.504  0.0937 -0.3836  0.0227
  126loPI   C3B 2015  16.599  12.195   9.054 -0.1536  0.3241 -0.0326
  126loPI   C4B 2016  16.625  12.267   8.676 -0.1486  0.1094  0.3979
  127loPI    C1 2017   6.858  17.353  11.207 -0.1726 -0.1204 -0.1184
  127loPI    C2 2018   6.592  17.101  11.367 -0.0005 -0.2049  0.0389
  127loPI    C3 2019   6.885  17.252  11.593  0.0555 -0.0721 -0.1204
  127loPI   PO4 2020   6.963  17.309  10.989 -0.0806  0.1358 -0.1847
  127loPI   GL1 2021   6.945  17.384  10.612 -0.0728 -0.0824  0.0452
  127loPI   GL2 2022   6.753  17.247  10.390 -0.0029 -0.3393  0.0208
  127loPI   C1A 2023   6.985  17.701  10.281 -0.3295  0.0182  0.0057
  127loPI   C2A 2024   7.133  17.593   9.867 -0.1210 -0.0747  0.1114
  127loPI   C3A 2025   7.059  17.739   9.550  0.4324 -0.2179  0.0788
  127loPI   C4A 2026   7.060  17.803   9.122  0.1686 -0.1147  0.1332
  127loPI   C5A 2027   7.150  17.841   8.665 -0.1009  0.1566 -0.2142
  127loPI   C6A 2028   7.391  17.458   8.459  0.1523  0.2219  0.0315
  127loPI   C1B 2029   6.770  17.257   9.981  0.0398  0.1957  0.2708
  127loPI   C2B 2030   6.904  17.196   9.560  0.0430 -0.0035 -0.2607
  127loPI   C3B 2031   6.889  17.309   9.144  0.0976  0.0318 -0.1379
  127loPI   C4B 2032   6.970  17.320   8.750 -0.0284 -0.2504  0.0331
  128loPI    C1 2033  16.153  17.458  10.580  0.1940  0.0820  0.0235
  128loPI    C2 2034  16.406  17.344  10.868 -0.0706 -0.1345  0.1746
  128loPI    C3 2035  16.020  17.407  10.953 -0.1090  0.0059 -0.0920
  128loPI   PO4 2036  16.269  17.619  10.481  0.0200  0.1382  0.0595
  128loPI   GL1 2037  16.211  17.777  10.087  0.1676  0.1899  0.2304
  128loPI   GL2 2038  16.441  17.610   9.971  0.2786  0.1806 -0.0272
  128loPI   C1A 2039  16.146  18.115   9.810 -0.1561 -0.0013  0.0348
  128loPI   C2A 2040  16.201  18.406   9.458 -0.2905 -0.1747  0.3925
  128loPI   C3A 2041  16.085  18.476   9.043 -0.2136  0.1396  0.0159
  128loPI   C4A 2042  16.084  18.373   8.643  0.1899 -0.0194 -0.0934
  128loPI   C5A 2043  16.141  18.173   8.244  0.4939 -0.1880  0.0226
  128loPI   C6A 2044  16.425  18.074   7.883  0.0819  0.0753 -0.1886
  128loPI   C1B 2045  16.508  17.598   9.438  0.3402  0.0573 -0.2135
  128loPI   C2B 2046  16.353  17.591   9.047 -0.0416 -0.3056  0.1918
  128loPI   C3B 2047  16.267  17.532   8.569 -0.1475  0.1665  0.0180
  128loPI   C4B 2048  15.924  17.301   8.378  0.3196 -0.2570  0.1519
  129loPI    C1 2049   2.054   9.241  10.313  0.0497  0.1480  0.0732
  129loPI    C2 2050   2.276   9.178  10.639  0.1577  0.0548 -0.0175
  129loPI    C3 2051   2.288   9.532  10.455  0.2537  0.0408 -0.0387
  129loPI   PO4 2052   2.098   9.139  10.162 -0.2657 -0.3184 -0.0098
  129loPI   GL1 2053   1.988   9.134   9.683 -0.1105  0.0565 -0.0637
  129loPI   GL2 2054   1.923   8.892   9.591 -0.0118 -0.1638  0.2315
  129loPI   C1A 2055   1.909   9.266   9.263 -0.0040 -0.2334  0.1462
  129loPI   C2A 2056   1.977   9.378   8.855 -0.0985  0.1427  0.0434
  129loPI   C3A 2057   1.937   9.099   8.503 -0.0434 -0.2625 -0.1366
  129loPI   C4A 2058   1.892   8.865   8.114  0.1495  0.0637 -0.1047
  129loPI   C5A 2059   1.930   8.462   7.966 -0.1240  0.1413  0.1347
  129loPI   C6A 2060   1.851   8.141   7.651  0.1174  0.0407 -0.1917
  129loPI   C1B 2061   2.059   8.592   9.258  0.3821  0.4613  0.2008
  129loPI   C2B 2062   2.258   8.434   8.997 -0.1074  0.1396  0.0419
  129loPI   C3B 2063   2.592   8.474   8.678 -0.1775 -0.1576 -0.1101
  129loPI   C4B 2064   2.995   8.504   8.635 -0.1337  0.0308 -0.1891
  130loPI    C1 2065   9.413  14.521  10.873  0.0284  0.1843 -0.1525
  130loPI    C2 2066   9.175  14.722  11.123 -0.0478  0.0560 -0.1208
  130loPI    C3 2067   9.519  14.567  11.256  0.0068  0.1573 -0.1433
  130loPI   PO4 2068   9.276  14.537  10.647 -0.2938  0.1787 -0.2064
  130loPI   GL1 2069   9.152  14.356  10.317  0.5115  0.0121  0.1515
  130loPI   GL2 2070   8.879  14.212  10.329  0.0978 -0.0064 -0.1789
  130loPI   C1A 2071   9.149  14.413   9.877 -0.2691  0.1634 -0.1421
  130loPI   C2A 2072   9.164  14.427   9.381  0.1597 -0.0758 -0.0943
  130loPI   C3A 2073   9.272  14.446   9.020  0.4051 -0.0545 -0.0862
  130loPI   C4A 2074   9.173  14.480   8.509  0.0997 -0.1025 -0.1449
  130loPI   C5A 2075   8.834  14.319   8.227 -0.0008  0.1777  0.0958
  130loPI   C6A 2076   8.803  13.968   8.043  0.2469 -0.2255  0.0109
  130loPI   C1B 2077   8.688  14.247   9.932 -0.0154  0.2119 -0.0120
  130loPI   C2B 2078   8.676  14.339   9.497 -0.0911 -0.1037 -0.0634
  130loPI   C3B 2079   8.672  14.367   9.116  0.0109 -0.0292 -0.3064
  130loPI   C4B 2080   8.710  14.429   8.722  0.5222  0.1372  0.0919
  131loPI    C1 2081  15.059   4.206  10.815  0.0856 -0.0220  0.0394
  131loPI    C2 2082  15.397   4.333  10.987  0.0926  0.0512 -0.0280
  131loPI    C3 2083  15.054   4.529  11.051  0.0611 -0.0272  0.0462
  131loPI   PO4 2084  15.066   4.194  10.605 -0.2101 -0.0938  0.0415
  131loPI   GL1 2085  15.026   4.208  10.213  0.2446  0.1223  0.3048
  131loPI   GL2 2086  15.482   4.196  10.227 -0.0793 -0.0180  0.0210
  131loPI   C1A 2087  14.986   4.019   9.792  0.3961 -0.1301 -0.0379
  131loPI   C2A 2088  14.884   4.135   9.393 -0.1162  0.0881 -0.1337
  131loPI   C3A 2089  14.763   4.152   9.038  0.0267 -0.0958  0.1387
  131loPI   C4A 2090  14.716   4.043   8.614  0.3149 -0.2532  0.0333
  131loPI   C5A 2091  14.901   3.936   8.315  0.2240 -0.0774  0.0437
  131loPI   C6A 2092  15.376   3.937   8.155 -0.2147  0.2674  0.1180
  131loPI   C1B 2093  15.437   4.190   9.760 -0.0849  0.0947 -0.2245
  131loPI   C2B 2094  15.372   4.184   9.362 -0.2894  0.0696  0.1578
  131loPI   C3B 2095  15.331   4.203   8.954  0.1613 -0.1946  0.0389
  131loPI   C4B 2096  15.328   4.111   8.578  0.2236 -0.2544 -0.3198
  132loPI    C1 2097   3.156  11.331  10.273 -0.0140 -0.1913  0.1095
  132loPI    C2 2098   2.899  11.499  10.529  0.0306  0.0220  0.0175
  132loPI    C3 2099   3.150  11.214  10.655 -0.0433  0.0264  0.1772
  132loPI   PO4 2100   3.188  11.528  10.126 -0.0795  0.1832 -0.1535
  132loPI   GL1 2101   3.403  11.736   9.962  0.1932 -0.0289  0.3045
  132loPI   GL2 2102   3.252  12.105   9.988  0.1320  0.2777  0.1837
  132loPI   C1A 2103   3.583  11.712   9.509 -0.2530 -0.0530  0.1926
  132loPI   C2A 2104   3.505  11.652   9.151  0.0783 -0.0431  0.3076
  132loPI   C3A 2105   3.431  11.662   8.678  0.0002  0.1154 -0.1698
  132loPI   C4A 2106   3.201  11.582   8.321 -0.1466 -0.0184  0.1983
  132loPI   C5A 2107   3.247  11.368   7.927  0.0671 -0.1385 -0.1955
  132loPI   C6A 2108   3.623  11.472   7.677 -0.0512  0.3134  0.0411
  132loPI   C1B 2109   3.291  12.083   9.592  0.1770 -0.0805  0.3543
  132loPI   C2B 2110   3.359  12.104   9.205 -0.2068  0.1225 -0.1210
  132loPI   C3B 2111   3.498  12.113   8.744  0.1585 -0.3684 -0.3503
  132loPI   C4B 2112   3.487  12.126   8.323  0.0533 -0.0210  0.0409
  133loPI    C1 2113   0.535  15.938  10.617 -0.1245 -0.0888  0.2237
  133loPI    C2 2114   0.155  15.815  10.594 -0.0837 -0.1886  0.0652
  133loPI    C3 2115   0.276  16.031  10.908 -0.2905 -0.0878  0.0780
  133loPI   PO4 2116   0.661  16.007  10.360  0.0764 -0.3186 -0.2353
  133loPI   GL1 2117   0.653  15.936   9.942  0.0465 -0.0021  0.1425
  133loPI   GL2 2118   0.846  15.786   9.745  0.0096  0.0630  0.1734
  133loPI   C1A 2119   0.407  15.907   9.507  0.0508  0.1953 -0.0112
  133loPI   C2A 2120   0.439  16.245   9.110 -0.0908 -0.0594  0.1440
  133loPI   C3A 2121   0.284  16.199   8.583 -0.2515  0.0237  0.0443
  133loPI   C4A 2122   0.004  16.257   8.202  0.2609 -0.0566  0.2363
  133loPI   C5A 2123   0.205  16.382   7.804  0.0763  0.0201  0.1541
  133loPI   C6A 2124   0.520  16.786   7.786 -0.1863 -0.0805  0.2062
  133loPI   C1B 2125   0.928  15.725   9.338 -0.0609  0.2178 -0.1498
  133loPI   C2B 2126   1.080  16.002   8.992  0.2322 -0.0651 -0.0757
  133loPI   C3B 2127   0.857  16.359   8.867  0.0280 -0.3659  0.2257
  133loPI   C4B 2128   0.642  16.582   8.651  0.0396  0.0176  0.2200
  134loPI    C1 2129   4.871   1.464  11.187 -0.0840  0.0140 -0.0487
  134loPI    C2 2130   4.581   1.221  11.058  0.1756 -0.2724 -0.1049
  134loPI    C3 2131   4.794   1.123  11.382  0.0086  0.0886  0.1208
  134loPI   PO4 2132   5.024   1.562  10.975  0.0701  0.1433  0.0654
  134loPI   GL1 2133   5.088   1.409  10.558  0.2820 -0.3153 -0.3448
  134loPI   GL2 2134   5.253   1.128  10.429  0.1672  0.0559  0.2686
  134loPI   C1A 2135   4.970   1.508  10.186 -0.0225  0.0152 -0.1176
  134loPI   C2A 2136   5.025   1.454   9.750 -0.2006  0.0154  0.0872
  134loPI   C3A 2137   5.023   1.533   9.443 -0.3387  0.0980  0.1065
  134loPI   C4A 2138   4.977   1.556   8.961  0.1389  0.0973 -0.1969
  134loPI   C5A 2139   5.020   1.298   8.595 -0.2307 -0.2017 -0.1009
  134loPI   C6A 2140   5.246   0.981   8.341  0.3104  0.2505  0.3432
  134loPI   C1B 2141   5.270   1.014  10.121  0.1917 -0.0038 -0.1903
  134loPI   C2B 2142   5.292   0.993   9.713  0.0558 -0.3433 -0.1891
  134loPI   C3B 2143   5.380   0.973   9.375  0.1925 -0.3267  0.2391
  134loPI   C4B 2144   5.158   1.082   9.074  0.1192 -0.0765  0.0312
  135loPI    C1 2145   7.592   2.008  11.392  0.2346 -0.2006  0.0468
  135loPI    C2 2146   7.371   2.341  11.368  0.2400 -0.1969  0.0485
  135loPI    C3 2147   7.535   2.235  11.717  0.1570 -0.2537  0.0707
  135loPI   PO4 2148   7.733   1.876  11.176  0.0689 -0.1651 -0.0670
  135loPI   GL1 2149   7.708   1.723  10.753  0.0001 -0.1094  0.0651
  135loPI   GL2 2150   8.042   1.626  10.841 -0.1931 -0.1293  0.0829
  135loPI   C1A 2151   7.632   1.774  10.259  0.0962 -0.2738  0.0825
  135loPI   C2A 2152   7.543   1.740   9.795 -0.0079 -0.2125  0.0890
  135loPI   C3A 2153   7.641   1.770   9.352  0.0339 -0.3503  0.0096
  135loPI   C4A 2154   7.633   1.807   8.930  0.0889  0.0245  0.0194
  135loPI   C5A 2155   7.915   1.590   8.621 -0.1564 -0.1617 -0.1116
  135loPI   C6A 2156   8.031   1.578   8.265  0.2237  0.2989  0.3108
  135loPI   C1B 2157   8.041   1.507  10.469 -0.2020 -0.2348  0.2010
  135loPI   C2B 2158   7.930   1.378  10.160  0.0204 -0.1045 -0.0516
  135loPI   C3B 2159   7.954   1.436   9.580 -0.0193  0.1606 -0.0253
  135loPI   C4B 2160   7.977   1.404   9.202 -0.2536  0.0099  0.0788
  136loPI    C1 2161  13.744  10.530  10.582 -0.4132  0.1319 -0.1241
  136loPI    C2 2162  13.854  10.696  10.929 -0.1113 -0.0729 -0.1182
  136loPI    C3 2163  13.491  10.532  10.892 -0.1021 -0.1548  0.1382
  136loPI   PO4 2164  13.807  10.659  10.351  0.1097 -0.3095 -0.0696
  136loPI   GL1 2165  13.678  10.783   9.902 -0.1521  0.0572  0.2751
  136loPI   GL2 2166  13.516  11.003  10.005 -0.0097 -0.5376  0.6163
  136loPI   C1A 2167  13.714  10.812   9.464  0.0844  0.0716 -0.0930
  136loPI   C2A 2168  13.569  10.828   8.953  0.4262  0.0529 -0.3382
  136loPI   C3A 2169  13.483  10.822   8.516  0.0596 -0.0953  0.2232
  136loPI   C4A 2170  13.291  10.859   8.025  0.3445 -0.1590 -0.2891
  136loPI   C5A 2171  13.248  11.140   7.785 -0.0332 -0.1053 -0.1558
  136loPI   C6A 2172  13.045  11.442   7.662 -0.0682 -0.2879 -0.0071
  136loPI   C1B 2173  13.387  11.196   9.605 -0.1663 -0.1864 -0.0386
  136loPI   C2B 2174  13.224  11.171   9.189 -0.1725 -0.0221 -0.2553
  136loPI   C3B 2175  13.222  11.298   8.802  0.0464  0.1242  0.1774
  136loPI   C4B 2176  13.291  11.226   8.352  0.1843 -0.1536  0.3706
  137loPI    C1 2177   0.633  11.724  10.316 -0.1226  0.0527 -0.1705
  137loPI    C2 2178   0.696  11.452  10.603 -0.0323 -0.2647 -0.4844
  137loPI    C3 2179   0.959  11.748  10.547 -0.0958 -0.1478 -0.1855
  137loPI   PO4 2180   0.406  11.727  10.219  0.2577  0.1249  0.1486
  137loPI   GL1 2181   0.141  11.911   9.918 -0.2186 -0.2452  0.3884
  137loPI   GL2 2182  -0.118  11.747   9.960  0.0648 -0.1585  0.0159
  137loPI   C1A 2183   0.219  11.779   9.522  0.3065 -0.0878  0.1242
  137loPI   C2A 2184   0.210  11.932   9.230  0.1067  0.1398 -0.1995
  137loPI   C3A 2185   0.162  11.860   8.827  0.1181 -0.3090  0.1385
  137loPI   C4A 2186   0.093  11.910   8.482  0.0817  0.0265  0.1509
  137loPI   C5A 2187   0.207  12.142   8.242  0.0425  0.0048 -0.0724
  137loPI   C6A 2188   0.506  12.033   7.857 -0.1841  0.1086 -0.1097
  137loPI   C1B 2189  -0.303  11.777   9.517  0.3050 -0.0688 -0.2788
  137loPI   C2B 2190  -0.256  11.883   9.156 -0.2677  0.1835 -0.0184
  137loPI   C3B 2191  -0.338  11.869   8.795 -0.1075 -0.0269 -0.1264
  137loPI   C4B 2192  -0.372  11.817   8.372  0.0570 -0.2408  0.3028
  138loPI    C1 2193  16.385  10.139  10.617  0.1836 -0.0870 -0.2177
  138loPI    C2 2194  16.343   9.742  10.629 -0.1042 -0.0504  0.1787
  138loPI    C3 2195  16.589   9.925  10.886  0.0692  0.0268 -0.0386
  138loPI   PO4 2196  16.163  10.160  10.410 -0.0154  0.2628  0.0131
  138loPI   GL1 2197  15.796   9.887  10.192 -0.0396  0.1677  0.0014
  138loPI   GL2 2198  15.822  10.106  10.012  0.1364 -0.0384  0.0739
  138loPI   C1A 2199  15.646   9.603   9.798 -0.0092 -0.2638  0.2484
  138loPI   C2A 2200  15.569   9.647   9.351  0.0150  0.0212 -0.1109
  138loPI   C3A 2201  15.584   9.679   8.919 -0.2091  0.0749  0.1800
  138loPI   C4A 2202  15.758   9.587   8.434 -0.0881  0.0112 -0.0662
  138loPI   C5A 2203  15.768   9.392   8.090 -0.0050 -0.0784 -0.0401
  138loPI   C6A 2204  15.771   9.155   7.784 -0.0654 -0.2517 -0.1469
  138loPI   C1B 2205  15.795  10.039   9.595  0.0140  0.2440  0.0321
  138loPI   C2B 2206  15.821  10.147   9.245  0.3312  0.0175  0.1750
  138loPI   C3B 2207  15.757  10.255   8.799 -0.0854 -0.1037  0.2433
  138loPI   C4B 2208  15.676  10.382   8.361  0.2118 -0.0265  0.1404
  139loPI    C1 2209   3.077  14.197  10.829  0.0102  0.0991 -0.1163
  139loPI    C2 2210   3.380  14.159  11.086 -0.1376  0.1974  0.0747
  139loPI    C3 2211   3.039  13.960  11.148 -0.0747 -0.0018 -0.2007
  139loPI   PO4 2212   3.136  14.061  10.525 -0.0579 -0.1139  0.0322
  139loPI   GL1 2213   2.848  13.967  10.131 -0.1367  0.1092  0.1464
  139loPI   GL2 2214   3.094  13.906   9.887 -0.0342  0.1445 -0.0391
  139loPI   C1A 2215   2.896  14.382   9.909  0.1723  0.0078  0.4303
  139loPI   C2A 2216   2.745  14.328   9.497 -0.3713  0.4238  0.0380
  139loPI   C3A 2217   2.745  14.448   8.990 -0.0325  0.1758  0.1399
  139loPI   C4A 2218   2.794  14.329   8.524 -0.0895  0.2202  0.0426
  139loPI   C5A 2219   2.913  14.164   8.185 -0.3847  0.0054 -0.0036
  139loPI   C6A 2220   2.922  14.037   7.818 -0.4245  0.2198  0.0970
  139loPI   C1B 2221   3.040  13.956   9.469 -0.0924  0.2202 -0.0392
  139loPI   C2B 2222   3.046  14.043   9.029  0.0983  0.0182 -0.1060
  139loPI   C3B 2223   3.111  13.964   8.588  0.0120  0.1400 -0.2972
  139loPI   C4B 2224   3.372  13.899   8.219 -0.3574  0.2874 -0.2103
  140loPI    C1 2225   3.632   0.999  11.113  0.1520 -0.1917  0.0910
  140loPI    C2 2226   3.479   0.730  11.366  0.0171 -0.0072  0.2080
  140loPI    C3 2227   3.492   1.116  11.468  0.2542  0.0259  0.0611
  140loPI   PO4 2228   3.562   0.962  10.884  0.0605  0.2683 -0.0969
  140loPI   GL1 2229   3.568   0.877  10.498 -0.1633 -0.3314 -0.1027
  140loPI   GL2 2230   3.499   1.210  10.390  0.1838  0.1719 -0.0675
  140loPI   C1A 2231   3.744   0.833  10.024  0.0869 -0.0718 -0.4694
  140loPI   C2A 2232   3.841   0.827   9.584  0.0752  0.0517  0.2090
  140loPI   C3A 2233   3.650   0.786   9.154  0.1000 -0.1616 -0.1925
  140loPI   C4A 2234   3.748   0.901   8.780  0.3818 -0.0986  0.0676
  140loPI   C5A 2235   3.605   0.999   8.272  0.2228 -0.0256 -0.0350
  140loPI   C6A 2236   3.807   0.690   7.946  0.0255 -0.0047  0.0920
  140loPI   C1B 2237   3.415   1.360   9.945  0.0024  0.0200 -0.2422
  140loPI   C2B 2238   3.467   1.197   9.472 -0.0043 -0.2357 -0.0390
  140loPI   C3B 2239   3.415   1.279   8.926  0.1817  0.1648 -0.1659
  140loPI   C4B 2240   3.409   1.343   8.542 -0.1956  0.1526 -0.2254
  141loPI    C1 2241  11.184  16.958  11.165  0.1183  0.2789  0.1246
  141loPI    C2 2242  10.906  17.001  11.450 -0.1923 -0.1084 -0.1104
  141loPI    C3 2243  11.210  16.747  11.504 -0.0912  0.0317 -0.0106
  141loPI   PO4 2244  11.083  16.990  10.934  0.0304  0.1666 -0.0063
  141loPI   GL1 2245  10.858  16.890  10.586  0.0102  0.0085  0.1310
  141loPI   GL2 2246  10.601  16.695  10.633  0.4866 -0.2714 -0.2034
  141loPI   C1A 2247  11.150  16.691  10.240 -0.1652 -0.1015  0.0600
  141loPI   C2A 2248  11.478  16.528   9.875  0.1625  0.0671  0.1467
  141loPI   C3A 2249  11.515  16.422   9.491 -0.3824 -0.1684  0.5183
  141loPI   C4A 2250  11.365  16.671   9.125  0.1183  0.1808 -0.1359
  141loPI   C5A 2251  11.183  16.918   8.777  0.0865 -0.0158 -0.1750
  141loPI   C6A 2252  10.781  17.171   8.506 -0.1104  0.2544 -0.0314
  141loPI   C1B 2253  10.545  16.861  10.213 -0.3263  0.3522  0.0405
  141loPI   C2B 2254  10.601  16.776   9.770 -0.4396 -0.1811  0.2090
  141loPI   C3B 2255  10.671  16.696   9.395  0.0429 -0.1009 -0.0273
  141loPI   C4B 2256  10.952  16.334   9.327 -0.1019  0.1475  0.0854
  142loPI    C1 2257  11.026   2.317  11.250 -0.3485 -0.0873  0.2280
  142loPI    C2 2258  10.724   2.470  11.462 -0.1821  0.1205  0.3186
  142loPI    C3 2259  11.092   2.456  11.619 -0.0959  0.0959  0.1173
  142loPI   PO4 2260  10.938   2.344  10.938  0.1109  0.2945 -0.2728
  142loPI   GL1 2261  10.735   2.484  10.487 -0.1246  0.2289 -0.1351
  142loPI   GL2 2262  10.379   2.558  10.359  0.2197  0.0736 -0.1592
  142loPI   C1A 2263  10.683   2.241  10.031  0.0000 -0.0731 -0.4033
  142loPI   C2A 2264  10.771   2.199   9.608 -0.1773  0.2827 -0.1124
  142loPI   C3A 2265  10.654   2.211   9.162  0.1582 -0.0776  0.0787
  142loPI   C4A 2266  10.777   2.206   8.718  0.0111 -0.1566 -0.2810
  142loPI   C5A 2267  11.117   2.300   8.331 -0.1437 -0.3572  0.2644
  142loPI   C6A 2268  11.415   2.354   8.059  0.1867  0.2296 -0.1693
  142loPI   C1B 2269  10.415   2.621   9.882  0.1052  0.1693 -0.0248
  142loPI   C2B 2270  10.497   2.601   9.472 -0.0260 -0.0810 -0.3064
  142loPI   C3B 2271  10.318   2.557   8.999 -0.0269  0.2576  0.4288
  142loPI   C4B 2272  10.378   2.520   8.566  0.0528 -0.1903 -0.1412
  143loPI    C1 2273   6.527  12.050  10.866  0.0815  0.1869 -0.1421
  143loPI    C2 2274   6.173  11.974  11.037  0.1719 -0.1292 -0.0888
  143loPI    C3 2275   6.490  12.063  11.264  0.1730 -0.0411 -0.1243
  143loPI   PO4 2276   6.485  12.189  10.657  0.2365 -0.1262 -0.0769
  143loPI   GL1 2277   6.324  12.181  10.249  0.1116 -0.0252 -0.3177
  143loPI   GL2 2278   6.048  12.151  10.015 -0.0931 -0.0257  0.0421
  143loPI   C1A 2279   6.426  12.534   9.936 -0.0793  0.0498  0.1918
  143loPI   C2A 2280   6.403  12.654   9.500 -0.1140  0.1968  0.0589
  143loPI   C3A 2281   6.513  12.688   9.099 -0.5102 -0.0090  0.0853
  143loPI   C4A 2282   6.567  12.616   8.656 -0.1518 -0.1369 -0.0081
  143loPI   C5A 2283   6.541  12.309   8.268  0.1066 -0.0585  0.0919
  143loPI   C6A 2284   6.659  12.038   7.941 -0.0950 -0.4407 -0.2992
  143loPI   C1B 2285   5.968  12.486   9.729 -0.0979 -0.0864 -0.0185
  143loPI   C2B 2286   5.978  12.543   9.308 -0.3834  0.1385 -0.1958
  143loPI   C3B 2287   6.069  12.593   8.834 -0.0188 -0.1441  0.1576
  143loPI   C4B 2288   6.010  12.407   8.426 -0.2721 -0.0050 -0.0338
  144loPI    C1 2289  13.183  14.583  11.075 -0.1335  0.0883  0.0984
  144loPI    C2 2290  13.487  14.673  11.317  0.0147  0.1082 -0.0928
  144loPI    C3 2291  13.251  14.362  11.401  0.0127  0.1658  0.1212
  144loPI   PO4 2292  13.126  14.756  10.940 -0.3127  0.4568  0.1432
  144loPI   GL1 2293  13.132  14.704  10.482 -0.1347 -0.1063  0.0275
  144loPI   GL2 2294  13.412  14.898  10.469 -0.3262  0.0298 -0.1364
  144loPI   C1A 2295  13.372  14.429  10.211  0.0946 -0.5393 -0.1540
  144loPI   C2A 2296  13.626  14.450   9.859 -0.0017 -0.0172  0.0843
  144loPI   C3A 2297  13.676  14.487   9.382  0.1883  0.2365 -0.0611
  144loPI   C4A 2298  13.544  14.533   8.874  0.1535  0.0273 -0.1215
  144loPI   C5A 2299  13.594  14.781   8.443  0.1832 -0.1196 -0.1400
  144loPI   C6A 2300  13.464  14.740   8.054  0.2165  0.2020  0.0906
  144loPI   C1B 2301  13.236  14.876  10.019 -0.2076  0.2329 -0.0472
  144loPI   C2B 2302  13.323  14.919   9.561 -0.2419 -0.2074 -0.0371
  144loPI   C3B 2303  13.311  14.861   9.282  0.0042 -0.1862  0.1056
  144loPI   C4B 2304  13.335  14.960   8.848  0.3812  0.1363 -0.0580
  145loPI    C1 2305  11.179   8.906  11.043  0.1905  0.3046  0.1630
  145loPI    C2 2306  10.866   8.663  10.989  0.3373  0.1801 -0.1574
  145loPI    C3 2307  10.872   8.916  11.299 -0.1834  0.3486 -0.2738
  145loPI   PO4 2308  11.368   8.728  10.785 -0.2206  0.0108 -0.1109
  145loPI   GL1 2309  11.533   8.753  10.354  0.0829 -0.1112 -0.3846
  145loPI   GL2 2310  11.918   8.626  10.194  0.0588 -0.3301  0.1022
  145loPI   C1A 2311  11.424   8.640  10.017  0.1813 -0.0688  0.0148
  145loPI   C2A 2312  11.679   8.584   9.763 -0.1561 -0.4188  0.1287
  145loPI   C3A 2313  11.770   8.729   9.315 -0.1229 -0.0449  0.1616
  145loPI   C4A 2314  11.742   8.765   8.936  0.0193  0.1261  0.1789
  145loPI   C5A 2315  11.688   8.772   8.527  0.2377 -0.0238 -0.0359
  145loPI   C6A 2316  11.768   8.889   8.158  0.3382 -0.1119  0.1124
  145loPI   C1B 2317  12.263   8.652   9.816  0.0739  0.5649 -0.1315
  145loPI   C2B 2318  12.327   8.744   9.318 -0.0554 -0.0656  0.1342
  145loPI   C3B 2319  12.222   8.884   8.871 -0.1358  0.3050 -0.2744
  145loPI   C4B 2320  12.274   8.706   8.359 -0.0342 -0.0133 -0.0223
  146loPI    C1 2321   2.290  12.079  10.647  0.2731 -0.0225  0.0337
  146loPI    C2 2322   1.983  11.827  10.700  0.1719  0.0661 -0.1227
  146loPI    C3 2323   2.250  11.882  10.993  0.1637 -0.1798 -0.0668
  146loPI   PO4 2324   2.402  12.101  10.307  0.2514  0.0185  0.1169
  146loPI   GL1 2325   2.259  12.199   9.914 -0.1573  0.1625 -0.0756
  146loPI   GL2 2326   2.387  12.487   9.982 -0.2650 -0.0785 -0.0852
  146loPI   C1A 2327   2.175  12.078   9.522  0.2419 -0.1250  0.0484
  146loPI   C2A 2328   2.096  11.961   9.177  0.0299  0.0497 -0.0192
  146loPI   C3A 2329   2.173  11.672   8.799 -0.1574  0.0335 -0.1955
  146loPI   C4A 2330   2.290  11.550   8.395 -0.0307 -0.0197 -0.1851
  146loPI   C5A 2331   2.271  11.795   8.019  0.0109  0.0512  0.1042
  146loPI   C6A 2332   1.973  12.109   7.909  0.0118 -0.2010  0.2210
  146loPI   C1B 2333   2.382  12.542   9.556 -0.0155 -0.2019  0.1047
  146loPI   C2B 2334   2.422  12.359   9.128  0.0042  0.1329  0.0046
  146loPI   C3B 2335   2.512  12.070   8.804 -0.1283  0.3890  0.2064
  146loPI   C4B 2336   2.473  12.021   8.384 -0.1041  0.0677 -0.1018
  147loPI    C1 2337  14.000  11.986  10.993  0.0456  0.1652  0.0836
  147loPI    C2 2338  14.275  11.812  11.226 -0.0808  0.0387  0.1397
  147loPI    C3 2339  14.204  12.204  11.260 -0.0255  0.0400  0.2414
  147loPI   PO4 2340  14.043  12.012  10.755 -0.0109  0.2947  0.2837
  147loPI   GL1 2341  14.343  12.251  10.587 -0.0280 -0.1233 -0.2177
  147loPI   GL2 2342  14.365  12.579  10.540  0.0986 -0.1711  0.1242
  147loPI   C1A 2343  14.335  12.218  10.139 -0.2148  0.2295 -0.0939
  147loPI   C2A 2344  14.198  12.284   9.715 -0.2612  0.2145 -0.0989
  147loPI   C3A 2345  14.245  12.286   9.287 -0.2172 -0.0348 -0.0615
  147loPI   C4A 2346  14.208  12.269   8.838 -0.3768 -0.1200  0.0290
  147loPI   C5A 2347  14.077  12.304   8.400  0.1703  0.0582  0.1313
  147loPI   C6A 2348  13.964  11.967   8.066 -0.2067  0.2758 -0.0063
  147loPI   C1B 2349  14.353  12.669  10.061  0.0443  0.0557  0.3389
  147loPI   C2B 2350  14.427  12.742   9.665  0.2677  0.1904  0.0670
  147loPI   C3B 2351  14.379  12.841   9.241 -0.3504  0.1027  0.2461
  147loPI   C4B 2352  14.377  12.769   8.800 -0.4356  0.0544  0.1654
  148loPI    C1 2353  11.716  13.089  10.788 -0.0549  0.2178  0.0369
  148loPI    C2 2354  11.770  13.171  11.176 -0.1449  0.2963  0.0330
  148loPI    C3 2355  11.758  12.791  11.051 -0.1969  0.2694  0.1189
  148loPI   PO4 2356  11.755  13.214  10.459 -0.3782  0.3184  0.1365
  148loPI   GL1 2357  11.697  13.392  10.174 -0.0353 -0.1568  0.0722
  148loPI   GL2 2358  11.988  13.307  10.008  0.1200  0.1821  0.0960
  148loPI   C1A 2359  11.569  13.367   9.722  0.2379  0.0289 -0.1719
  148loPI   C2A 2360  11.651  13.333   9.321 -0.2568 -0.1394  0.1256
  148loPI   C3A 2361  11.761  13.316   8.963  0.0214  0.1266  0.0279
  148loPI   C4A 2362  11.693  13.373   8.540 -0.1084 -0.0355 -0.2242
  148loPI   C5A 2363  11.746  13.377   8.164 -0.1800  0.0398  0.0251
  148loPI   C6A 2364  11.500  13.352   7.793 -0.0555 -0.0547 -0.0105
  148loPI   C1B 2365  12.247  13.387   9.660  0.2912 -0.0517  0.1952
  148loPI   C2B 2366  12.259  13.482   9.208  0.2802 -0.1264 -0.1871
  148loPI   C3B 2367  12.252  13.454   8.806  0.1088  0.0627 -0.1276
  148loPI   C4B 2368  12.237  13.549   8.349  0.2496  0.0054  0.3170
  149loPI    C1 2369  13.046  13.284  10.699  0.0856  0.0619  0.1557
  149loPI    C2 2370  12.892  12.920  10.760 -0.0230  0.1326  0.3091
  149loPI    C3 2371  13.083  13.108  11.056 -0.1349  0.2802  0.2885
  149loPI   PO4 2372  12.905  13.359  10.466 -0.0892  0.1646 -0.0678
  149loPI   GL1 2373  12.863  13.247  10.191  0.1168 -0.0095  0.2209
  149loPI   GL2 2374  12.854  12.809  10.219 -0.1589  0.2910 -0.1116
  149loPI   C1A 2375  13.075  13.101   9.816 -0.1846  0.2054  0.0433
  149loPI   C2A 2376  13.112  13.018   9.401  0.1188  0.0904 -0.0450
  149loPI   C3A 2377  13.130  12.925   9.036  0.3272  0.1573 -0.1877
  149loPI   C4A 2378  13.128  13.059   8.611  0.3206  0.0779  0.1326
  149loPI   C5A 2379  13.147  13.117   8.139  0.3618 -0.1873 -0.2226
  149loPI   C6A 2380  13.424  12.898   7.891 -0.0060  0.1052 -0.2259
  149loPI   C1B 2381  12.846  12.648   9.889  0.0278  0.1287  0.2705
  149loPI   C2B 2382  12.782  12.603   9.503  0.3285  0.1867  0.0896
  149loPI   C3B 2383  12.879  12.498   9.142 -0.0302 -0.1790  0.0368
  149loPI   C4B 2384  12.984  12.584   8.638 -0.0388 -0.1044  0.2024
  150loPI    C1 2385   0.344  13.068  10.557 -0.2731  0.1620  0.0537
  150loPI    C2 2386   0.414  13.402  10.766 -0.0823  0.0815  0.1203
  150loPI    C3 2387   0.266  13.079  10.949  0.2503 -0.0459  0.1720
  150loPI   PO4 2388   0.174  13.028  10.425 -0.0235  0.1409  0.1276
  150loPI   GL1 2389   0.192  12.877   9.959  0.2410  0.3095  0.1877
  150loPI   GL2 2390   0.300  13.110   9.981 -0.1743  0.2513 -0.0403
  150loPI   C1A 2391   0.105  12.759   9.624  0.1197  0.2130 -0.0680
  150loPI   C2A 2392   0.220  12.746   9.312 -0.0913 -0.0948 -0.4392
  150loPI   C3A 2393   0.483  12.779   9.101 -0.0820 -0.1926  0.0246
  150loPI   C4A 2394   0.622  13.020   8.707 -0.1554 -0.3358 -0.0482
  150loPI   C5A 2395   0.521  13.484   8.657  0.0762 -0.1845  0.1332
  150loPI   C6A 2396   0.421  13.807   8.400  0.1109  0.4673  0.2186
  150loPI   C1B 2397   0.237  13.274   9.631  0.2425  0.0242 -0.0591
  150loPI   C2B 2398   0.283  13.277   9.152  0.3430  0.0599  0.0744
  150loPI   C3B 2399   0.111  12.965   8.777 -0.3147  0.1038  0.0946
  150loPI   C4B 2400   0.080  12.928   8.322  0.1874  0.1332  0.1041
  151loPI    C1 2401   7.643   5.537  10.991  0.0679 -0.0710 -0.0107
  151loPI    C2 2402   7.620   5.912  11.129  0.0814 -0.0259 -0.1299
  151loPI    C3 2403   7.869   5.650  11.302 -0.2148 -0.0927  0.2067
  151loPI   PO4 2404   7.603   5.571  10.761  0.0885  0.0504  0.0913
  151loPI   GL1 2405   7.563   5.634  10.373  0.0596  0.1403 -0.0601
  151loPI   GL2 2406   7.433   5.336  10.292 -0.2737 -0.0428  0.2471
  151loPI   C1A 2407   7.639   5.733  10.012 -0.1644 -0.3233  0.1277
  151loPI   C2A 2408   7.617   5.581   9.528  0.0725  0.2593  0.2372
  151loPI   C3A 2409   7.671   5.482   9.154  0.0108  0.0844  0.0839
  151loPI   C4A 2410   7.667   5.411   8.663  0.1979 -0.0518 -0.1563
  151loPI   C5A 2411   7.547   5.274   8.240 -0.0889  0.2433 -0.2365
  151loPI   C6A 2412   7.634   4.912   7.831  0.2823  0.0475  0.1967
  151loPI   C1B 2413   7.334   5.161   9.912 -0.0532 -0.0908 -0.1175
  151loPI   C2B 2414   7.429   5.112   9.408 -0.1121  0.1465  0.1389
  151loPI   C3B 2415   7.435   4.966   9.019 -0.2857  0.2361 -0.1190
  151loPI   C4B 2416   7.373   5.021   8.627  0.1739  0.0925  0.0442
  152loPI    C1 2417  17.167  11.588  10.949  0.0617 -0.0847  0.0850
  152loPI    C2 2418  17.340  11.278  11.134  0.0704  0.0081  0.2346
  152loPI    C3 2419  17.016  11.450  11.293 -0.1746 -0.1772 -0.0538
  152loPI   PO4 2420  17.127  11.505  10.721  0.0164  0.2414 -0.0539
  152loPI   GL1 2421  17.202  11.443  10.373 -0.3266 -0.2178  0.0267
  152loPI   GL2 2422  17.241  11.138  10.166 -0.1237 -0.2900 -0.0648
  152loPI   C1A 2423  16.944  11.617  10.049 -0.0956  0.2236 -0.1694
  152loPI   C2A 2424  16.926  11.750   9.649 -0.3155 -0.0296 -0.2655
  152loPI   C3A 2425  16.904  11.716   9.221  0.1073  0.1312 -0.1222
  152loPI   C4A 2426  16.867  11.761   8.845 -0.2177  0.2529  0.0114
  152loPI   C5A 2427  16.859  11.848   8.454 -0.2044  0.3070 -0.0857
  152loPI   C6A 2428  16.524  12.097   8.238  0.0361  0.0913 -0.2831
  152loPI   C1B 2429  17.285  11.325   9.796 -0.1304  0.1183 -0.0536
  152loPI   C2B 2430  17.211  11.275   9.402 -0.3953  0.0320 -0.1363
  152loPI   C3B 2431  17.143  11.368   8.935 -0.0362  0.0544  0.1031
  152loPI   C4B 2432  17.120  11.379   8.508  0.2490 -0.2017  0.1075
  153loPI    C1 2433  13.752   8.343  10.857 -0.0523  0.0063  0.2857
  153loPI    C2 2434  13.816   8.736  10.817  0.2348 -0.0747 -0.1064
  153loPI    C3 2435  13.954   8.543  11.139  0.2549  0.1121 -0.0018
  153loPI   PO4 2436  13.731   8.353  10.554 -0.1212  0.2764  0.0591
  153loPI   GL1 2437  13.622   8.587  10.161 -0.2068  0.2882 -0.0614
  153loPI   GL2 2438  13.583   8.265  10.047  0.1074  0.2680  0.0425
  153loPI   C1A 2439  13.734   8.496   9.655 -0.3414  0.1647 -0.2243
  153loPI   C2A 2440  13.748   8.506   9.265  0.0763  0.3123  0.4569
  153loPI   C3A 2441  13.732   8.612   8.803 -0.0532  0.2116 -0.1781
  153loPI   C4A 2442  13.546   8.463   8.532  0.0388 -0.1925  0.2029
  153loPI   C5A 2443  13.528   8.547   8.188  0.0903  0.2326  0.1149
  153loPI   C6A 2444  13.564   8.806   7.951  0.0535 -0.5037  0.1716
  153loPI   C1B 2445  13.268   8.410   9.773  0.0863  0.0122  0.1710
  153loPI   C2B 2446  13.210   8.353   9.369  0.1639  0.0907  0.0254
  153loPI   C3B 2447  13.241   8.493   8.937  0.2454 -0.0609  0.3243
  153loPI   C4B 2448  13.103   8.719   8.612 -0.3847 -0.0218 -0.1097
  154loPI    C1 2449   9.566  15.112  11.087 -0.1732  0.1200  0.0989
  154loPI    C2 2450   9.759  15.181  11.430 -0.1491 -0.2453  0.1627
  154loPI    C3 2451   9.363  15.122  11.431 -0.1746 -0.0802  0.1049
  154loPI   PO4 2452   9.722  14.924  10.958  0.2897 -0.1579 -0.2272
  154loPI   GL1 2453   9.831  14.711  10.603  0.1421 -0.3056  0.0917
  154loPI   GL2 2454  10.059  14.569  10.455 -0.2746 -0.0101  0.3126
  154loPI   C1A 2455   9.886  14.961  10.212  0.0922 -0.0171 -0.1988
  154loPI   C2A 2456   9.887  14.931   9.754  0.2740  0.1801  0.0641
  154loPI   C3A 2457   9.899  14.920   9.325  0.2390  0.0537 -0.0961
  154loPI   C4A 2458   9.934  15.013   8.891 -0.1878  0.2391  0.2309
  154loPI   C5A 2459   9.925  15.185   8.473 -0.2973  0.0874  0.1402
  154loPI   C6A 2460  10.170  15.314   8.166 -0.0065 -0.0554 -0.1226
  154loPI   C1B 2461  10.196  14.470  10.059 -0.1190 -0.0621  0.0984
  154loPI   C2B 2462  10.219  14.502   9.599  0.0107 -0.0423 -0.3668
  154loPI   C3B 2463  10.157  14.422   9.127  0.0361  0.4477 -0.4049
  154loPI   C4B 2464  10.213  14.586   8.757 -0.0658 -0.3035 -0.0756
  155loPI    C1 2465   3.265   0.054  11.003  0.1058  0.2830 -0.1776
  155loPI    C2 2466   3.200   0.358  11.255  0.2485  0.1644  0.0052
  155loPI    C3 2467   3.529   0.134  11.293  0.0352 -0.1540  0.0151
  155loPI   PO4 2468   3.307   0.056  10.747  0.1032 -0.0611 -0.1431
  155loPI   GL1 2469   3.404   0.363  10.465 -0.1544  0.0608 -0.2958
  155loPI   GL2 2470   3.672   0.224  10.399  0.2235 -0.3228 -0.3242
  155loPI   C1A 2471   3.344   0.489  10.091  0.2760 -0.1310 -0.0409
  155loPI   C2A 2472   3.590   0.408   9.741 -0.3346  0.0946 -0.0142
  155loPI   C3A 2473   3.525   0.286   9.302  0.1641 -0.1866  0.0537
  155loPI   C4A 2474   3.539   0.363   8.868 -0.3638  0.0838  0.1132
  155loPI   C5A 2475   3.517   0.374   8.502 -0.2431 -0.0976  0.2847
  155loPI   C6A 2476   3.452   0.158   8.064 -0.0920 -0.0582  0.1440
  155loPI   C1B 2477   3.979   0.380  10.181 -0.0671  0.1003  0.0679
  155loPI   C2B 2478   4.058   0.366   9.737  0.1175 -0.1418  0.1671
  155loPI   C3B 2479   4.061   0.426   9.248 -0.3096  0.1516  0.1292
  155loPI   C4B 2480   4.134   0.459   8.753 -0.0660  0.1382  0.3140
  156loPI    C1 2481   0.382   8.462  10.423 -0.2956  0.1040  0.2187
  156loPI    C2 2482   0.409   8.841  10.548 -0.3106  0.1071  0.2126
  156loPI    C3 2483   0.673   8.569  10.675 -0.2638  0.1323  0.1701
  156loPI   PO4 2484   0.300   8.562  10.184 -0.1206 -0.1517  0.2477
  156loPI   GL1 2485   0.378   8.650   9.727 -0.1747  0.2675 -0.0121
  156loPI   GL2 2486   0.227   8.867   9.841 -0.2235 -0.0102  0.0051
  156loPI   C1A 2487   0.531   8.736   9.328 -0.5103 -0.2166 -0.0005
  156loPI   C2A 2488   0.601   8.801   8.944 -0.0297 -0.3982 -0.3510
  156loPI   C3A 2489   0.740   8.681   8.469  0.1661 -0.2071 -0.0833
  156loPI   C4A 2490   0.614   8.417   8.128  0.2300 -0.1544  0.0144
  156loPI   C5A 2491   0.958   8.176   7.837  0.0024 -0.2078 -0.2183
  156loPI   C6A 2492   1.290   8.024   7.620 -0.3446  0.3041  0.1460
  156loPI   C1B 2493   0.137   9.056   9.443  0.1816 -0.0680  0.0738
  156loPI   C2B 2494   0.177   9.145   9.121  0.0383  0.1157 -0.1359
  156loPI   C3B 2495   0.096   9.189   8.718  0.0951  0.1271 -0.2305
  156loPI   C4B 2496   0.319   8.942   8.447  0.2119 -0.1070  0.2177
  157loPI    C1 2497  10.503   8.311  11.084 -0.1176  0.0514 -0.2746
  157loPI    C2 2498  10.810   8.150  11.283 -0.0148  0.1052 -0.3885
  157loPI    C3 2499  10.627   8.475  11.427 -0.1513 -0.0466 -0.2152
  157loPI   PO4 2500  10.558   8.275  10.878  0.1845 -0.1804 -0.0479
  157loPI   GL1 2501  10.550   8.094  10.490 -0.0234  0.1581 -0.2845
  157loPI   GL2 2502  10.623   8.240  10.226 -0.0053 -0.0981  0.0255
  157loPI   C1A 2503  10.774   7.840  10.053  0.1435  0.1148  0.1562
  157loPI   C2A 2504  10.990   7.710   9.577 -0.2944 -0.3182 -0.2009
  157loPI   C3A 2505  11.061   7.630   9.159  0.3005  0.1780 -0.2567
  157loPI   C4A 2506  11.156   7.646   8.772 -0.3712  0.0037  0.1210
  157loPI   C5A 2507  11.463   7.437   8.549  0.1994 -0.0395  0.0114
  157loPI   C6A 2508  11.660   7.008   8.460  0.1650  0.1023 -0.2593
  157loPI   C1B 2509  10.700   8.305   9.761  0.2648  0.1485 -0.1112
  157loPI   C2B 2510  10.599   8.537   9.472  0.0831 -0.4648 -0.0147
  157loPI   C3B 2511  10.950   8.418   9.259 -0.0945 -0.2993  0.2471
  157loPI   C4B 2512  11.196   8.107   9.058  0.1635 -0.2196 -0.2523
  158loPI    C1 2513   6.509  10.750  10.663  0.3359 -0.1195 -0.2324
  158loPI    C2 2514   6.644  10.666  11.031  0.0871  0.0056 -0.1101
  158loPI    C3 2515   6.687  11.034  10.881  0.0343  0.0007 -0.1374
  158loPI   PO4 2516   6.671  10.597  10.411  0.1185 -0.4602  0.0921
  158loPI   GL1 2517   6.771  10.605  10.112 -0.0308  0.1981 -0.0299
  158loPI   GL2 2518   6.607  10.946   9.969  0.0726  0.0598 -0.1697
  158loPI   C1A 2519   6.745  10.611   9.599  0.2166  0.0105  0.2187
  158loPI   C2A 2520   6.641  10.440   9.150  0.0717  0.1178 -0.1776
  158loPI   C3A 2521   6.860  10.297   8.780 -0.1956 -0.0256  0.0148
  158loPI   C4A 2522   7.064  10.364   8.404 -0.0998 -0.1564  0.0373
  158loPI   C5A 2523   7.353  10.562   8.216 -0.2709  0.0585 -0.0793
  158loPI   C6A 2524   7.598  10.904   8.117 -0.1875 -0.1921 -0.1225
  158loPI   C1B 2525   6.760  11.129   9.680  0.2245  0.1361 -0.0686
  158loPI   C2B 2526   6.964  11.319   9.251 -0.2455 -0.1223 -0.0362
  158loPI   C3B 2527   7.114  11.441   8.742  0.1024 -0.2103  0.5331
  158loPI   C4B 2528   7.530  11.334   8.504 -0.1331  0.2015  0.0493
  159loPI    C1 2529   4.990  13.996  11.270 -0.0059 -0.1315 -0.1046
  159loPI    C2 2530   4.781  13.973  11.610  0.0300  0.1701 -0.0602
  159loPI    C3 2531   5.168  14.076  11.619  0.1323 -0.1926 -0.1603
  159loPI   PO4 2532   4.924  13.992  10.997  0.0390  0.1511  0.0374
  159loPI   GL1 2533   4.845  13.956  10.512 -0.0700  0.3185 -0.2030
  159loPI   GL2 2534   5.191  13.888  10.393  0.0094 -0.1461 -0.3170
  159loPI   C1A 2535   5.039  14.346  10.276 -0.0854  0.2019 -0.0400
  159loPI   C2A 2536   5.151  14.306   9.794  0.1930  0.1351  0.1215
  159loPI   C3A 2537   5.178  14.203   9.314  0.0937 -0.0509 -0.1808
  159loPI   C4A 2538   5.232  14.273   8.905 -0.1560 -0.0053  0.0364
  159loPI   C5A 2539   5.074  14.239   8.496  0.2460 -0.1310 -0.0672
  159loPI   C6A 2540   4.706  14.390   8.278 -0.1174  0.0866 -0.0760
  159loPI   C1B 2541   5.408  13.925  10.018  0.2550 -0.0622  0.2361
  159loPI   C2B 2542   5.457  13.923   9.594 -0.0434 -0.0693  0.0618
  159loPI   C3B 2543   5.496  13.858   9.109 -0.2791 -0.0994  0.0002
  159loPI   C4B 2544   5.589  13.890   8.657 -0.2443  0.2887  0.0392
  160loPI    C1 2545  15.039   9.748  10.662  0.1701  0.0478 -0.1951
  160loPI    C2 2546  15.326  10.024  10.623  0.0212  0.2454  0.0743
  160loPI    C3 2547  15.083  10.032  10.941 -0.1352 -0.0586 -0.0341
  160loPI   PO4 2548  14.956   9.741  10.410  0.0583  0.1467  0.0449
  160loPI   GL1 2549  15.056   9.649  10.006  0.2052  0.0904 -0.0145
  160loPI   GL2 2550  14.833   9.923   9.987  0.1680 -0.0538  0.0788
  160loPI   C1A 2551  15.130   9.588   9.576 -0.3106 -0.0002  0.1773
  160loPI   C2A 2552  15.138   9.617   9.099  0.1105  0.2271  0.0883
  160loPI   C3A 2553  14.944   9.670   8.640  0.3821  0.2387  0.0001
  160loPI   C4A 2554  14.556   9.810   8.368  0.0943  0.0892 -0.4783
  160loPI   C5A 2555  14.504   9.903   7.940  0.1713  0.6401  0.2518
  160loPI   C6A 2556  14.268   9.613   7.745  0.2739 -0.3215  0.0165
  160loPI   C1B 2557  14.816  10.000   9.542 -0.0189  0.5917 -0.1423
  160loPI   C2B 2558  14.831  10.026   9.077 -0.0180 -0.1851 -0.2220
  160loPI   C3B 2559  14.846  10.119   8.580  0.0021 -0.1722 -0.1338
  160loPI   C4B 2560  14.986   9.978   8.127  0.0871  0.1357  0.0389
  161loPI    C1 2561   9.284   9.021  10.705 -0.3149 -0.0604  0.0909
  161loPI    C2 2562   9.616   9.180  10.861 -0.2350 -0.1115 -0.0254
  161loPI    C3 2563   9.502   8.812  10.967 -0.1787 -0.1478 -0.0901
  161loPI   PO4 2564   9.320   9.004  10.368  0.1702  0.0472  0.0078
  161loPI   GL1 2565   9.088   8.640  10.048 -0.2108  0.1296 -0.5259
  161loPI   GL2 2566   8.825   8.510   9.941 -0.4005  0.3518 -0.2363
  161loPI   C1A 2567   9.295   8.421   9.705 -0.0396 -0.0951 -0.3041
  161loPI   C2A 2568   9.236   8.650   9.286 -0.0428  0.1803 -0.2067
  161loPI   C3A 2569   9.283   8.684   8.865  0.2671 -0.0180  0.1094
  161loPI   C4A 2570   9.322   8.875   8.572 -0.1892 -0.2431 -0.0285
  161loPI   C5A 2571   9.279   8.967   8.226 -0.0404 -0.0691  0.3045
  161loPI   C6A 2572   9.604   8.991   7.916  0.1034  0.1179  0.0781
  161loPI   C1B 2573   8.822   8.370   9.476  0.1752 -0.3413  0.3912
  161loPI   C2B 2574   8.699   8.327   9.027  0.1356 -0.1899 -0.2138
  161loPI   C3B 2575   8.740   8.465   8.682  0.0410 -0.0148  0.0572
  161loPI   C4B 2576   9.031   8.506   8.266 -0.1569  0.0675  0.1464
  162loPI    C1 2577  12.180  13.482  10.809 -0.0359  0.0079  0.1059
  162loPI    C2 2578  12.565  13.382  10.850 -0.1069 -0.2271  0.2200
  162loPI    C3 2579  12.406  13.664  11.084 -0.0300 -0.2013  0.2416
  162loPI   PO4 2580  12.192  13.467  10.480  0.1294  0.1649  0.3235
  162loPI   GL1 2581  12.195  13.747  10.079  0.1209  0.0060  0.0963
  162loPI   GL2 2582  12.534  13.613  10.009  0.1841  0.1302 -0.2241
  162loPI   C1A 2583  12.355  13.970   9.702 -0.1607  0.1360 -0.2709
  162loPI   C2A 2584  12.473  13.949   9.378  0.0456  0.2200 -0.1777
  162loPI   C3A 2585  12.437  13.934   8.940 -0.0513  0.1267 -0.1658
  162loPI   C4A 2586  12.350  14.070   8.546  0.1475 -0.0495  0.0951
  162loPI   C5A 2587  12.243  14.017   8.149 -0.1516  0.0630 -0.0976
  162loPI   C6A 2588  12.074  14.171   7.851  0.1085 -0.0639 -0.1715
  162loPI   C1B 2589  12.760  13.502   9.704 -0.0797  0.1042  0.1155
  162loPI   C2B 2590  12.798  13.518   9.221  0.0904 -0.2051 -0.0160
  162loPI   C3B 2591  12.771  13.549   8.788 -0.0888 -0.0684 -0.1011
  162loPI   C4B 2592  12.694  13.497   8.476 -0.0780  0.2062  0.1557
  163loPI    C1 2593  11.543   2.088  11.140  0.0369 -0.0027 -0.0066
  163loPI    C2 2594  11.384   1.858  11.426 -0.0609  0.0564 -0.0131
  163loPI    C3 2595  11.742   1.767  11.273 -0.0180  0.0117  0.1121
  163loPI   PO4 2596  11.491   2.125  10.956  0.0974  0.1280 -0.2098
  163loPI   GL1 2597  11.256   2.006  10.654 -0.0275  0.1985  0.0021
  163loPI   GL2 2598  11.180   2.288  10.532 -0.1961  0.0820 -0.1339
  163loPI   C1A 2599  11.525   1.934  10.240  0.3234  0.0002  0.1115
  163loPI   C2A 2600  11.514   1.912   9.897 -0.2613  0.0335 -0.0456
  163loPI   C3A 2601  11.506   1.927   9.523 -0.1004  0.3172  0.0523
  163loPI   C4A 2602  11.560   1.809   9.164 -0.1027  0.1248  0.0843
  163loPI   C5A 2603  11.521   1.910   8.659  0.0289  0.2901  0.0188
  163loPI   C6A 2604  11.785   1.880   8.296 -0.0497  0.1222  0.1662
  163loPI   C1B 2605  11.191   2.270  10.118  0.1402 -0.1575  0.3445
  163loPI   C2B 2606  11.241   2.341   9.593 -0.4368  0.0408  0.2281
  163loPI   C3B 2607  11.309   2.254   9.205  0.0269  0.1033  0.1158
  163loPI   C4B 2608  11.205   2.380   8.792 -0.1598 -0.2983 -0.0638
  164loPI    C1 2609  10.961  10.965  10.470 -0.0090 -0.1752  0.1623
  164loPI    C2 2610  11.039  10.826  10.837  0.1062 -0.1490  0.1481
  164loPI    C3 2611  11.012  11.220  10.774 -0.3265 -0.1638  0.2091
  164loPI   PO4 2612  11.081  10.824  10.312  0.2265  0.5129 -0.0434
  164loPI   GL1 2613  10.997  10.938   9.916 -0.2243 -0.0175 -0.1205
  164loPI   GL2 2614  10.985  11.250   9.907  0.3637 -0.1488 -0.1079
  164loPI   C1A 2615  11.214  10.811   9.503 -0.1049 -0.3526 -0.3462
  164loPI   C2A 2616  11.461  10.557   9.166  0.1402  0.0793  0.1938
  164loPI   C3A 2617  11.209  10.483   8.848 -0.0883 -0.1645 -0.2372
  164loPI   C4A 2618  10.908  10.674   8.581 -0.1769 -0.1554 -0.0506
  164loPI   C5A 2619  10.786  10.868   8.181 -0.0525 -0.2446 -0.2744
  164loPI   C6A 2620  10.734  11.169   7.886  0.3872  0.0306  0.1796
  164loPI   C1B 2621  11.061  11.243   9.494  0.4951 -0.2859 -0.0607
  164loPI   C2B 2622  10.935  11.408   9.073  0.3027 -0.0205 -0.0557
  164loPI   C3B 2623  10.817  11.159   8.684  0.0579  0.0539  0.2187
  164loPI   C4B 2624  10.408  10.992   8.507 -0.0293  0.0389  0.0211
  165loPI    C1 2625   4.913   0.030  11.271 -0.1183 -0.0260  0.1096
  165loPI    C2 2626   4.990  -0.216  11.578 -0.1428 -0.1159  0.0444
  165loPI    C3 2627   4.928   0.174  11.644  0.3306 -0.0447  0.1040
  165loPI   PO4 2628   4.812  -0.086  11.042  0.0018 -0.0092 -0.1341
  165loPI   GL1 2629   4.775   0.151  10.710 -0.2340 -0.0021 -0.2780
  165loPI   GL2 2630   4.464  -0.130  10.655 -0.0271 -0.4306  0.0770
  165loPI   C1A 2631   4.857   0.109  10.360 -0.0678 -0.1242 -0.1493
  165loPI   C2A 2632   4.766   0.049   9.925  0.0659 -0.0726 -0.0936
  165loPI   C3A 2633   4.884   0.067   9.498  0.0965  0.2443 -0.1202
  165loPI   C4A 2634   5.007   0.076   9.124  0.0283 -0.2828  0.0258
  165loPI   C5A 2635   4.853   0.047   8.704  0.3147  0.1661 -0.3427
  165loPI   C6A 2636   4.774   0.062   8.298 -0.3061 -0.1017  0.0887
  165loPI   C1B 2637   4.336   0.029  10.170 -0.3862  0.0514  0.0938
  165loPI   C2B 2638   4.296  -0.037   9.707 -0.1593  0.1049  0.3523
  165loPI   C3B 2639   4.417  -0.003   9.299 -0.1120  0.0240 -0.0297
  165loPI   C4B 2640   4.404   0.012   8.904  0.0798  0.0907  0.3992
  166loPI    C1 2641   9.515  10.590  10.548  0.0680  0.0805  0.2795
  166loPI    C2 2642   9.126  10.540  10.625  0.0369 -0.1567 -0.0116
  166loPI    C3 2643   9.400  10.394  10.877 -0.0605 -0.0435  0.1624
  166loPI   PO4 2644   9.548  10.776  10.471  0.1067 -0.1942  0.0060
  166loPI   GL1 2645   9.531  10.829  10.051 -0.1475 -0.0706 -0.0482
  166loPI   GL2 2646   9.360  11.095  10.006 -0.1402 -0.1029  0.1030
  166loPI   C1A 2647   9.755  10.743   9.676 -0.0065 -0.1762  0.1378
  166loPI   C2A 2648   9.659  10.599   9.217  0.2381  0.3404  0.0568
  166loPI   C3A 2649   9.578  10.737   8.778  0.0610 -0.0997  0.1654
  166loPI   C4A 2650   9.286  10.633   8.532 -0.2988  0.1153  0.0478
  166loPI   C5A 2651   8.957  10.936   8.334 -0.0441  0.0347 -0.0670
  166loPI   C6A 2652   8.641  11.185   8.242 -0.4406 -0.0318 -0.1141
  166loPI   C1B 2653   9.402  11.160   9.578  0.3040  0.3879  0.0464
  166loPI   C2B 2654   9.135  11.015   9.300  0.0703 -0.2213 -0.0671
  166loPI   C3B 2655   8.815  10.776   8.897 -0.1401  0.0828 -0.0603
  166loPI   C4B 2656   8.781  10.534   8.681  0.0695 -0.1126 -0.1921
  167loPI    C1 2657   7.150   9.696  10.630 -0.1341  0.3562  0.0326
  167loPI    C2 2658   6.751   9.719  10.610 -0.1590  0.0338  0.1035
  167loPI    C3 2659   6.926   9.381  10.733  0.1421  0.1158 -0.0883
  167loPI   PO4 2660   7.215   9.731  10.347 -0.2564  0.1396 -0.1693
  167loPI   GL1 2661   6.952   9.785  10.081  0.0104  0.0500 -0.2372
  167loPI   GL2 2662   6.870   9.954  10.027  0.2614 -0.0741 -0.4084
  167loPI   C1A 2663   7.217   9.798   9.598  0.2462 -0.2636  0.1345
  167loPI   C2A 2664   7.348   9.703   9.230 -0.2288  0.0211 -0.3614
  167loPI   C3A 2665   7.539   9.555   8.788 -0.2499  0.1696  0.3661
  167loPI   C4A 2666   7.644   9.597   8.356  0.0251  0.0318  0.2501
  167loPI   C5A 2667   7.406   9.351   7.954  0.1060 -0.3039 -0.0062
  167loPI   C6A 2668   7.310   9.454   7.609 -0.1983 -0.0163  0.1090
  167loPI   C1B 2669   7.100  10.255   9.713  0.0680 -0.0830 -0.0873
  167loPI   C2B 2670   7.116  10.302   9.269  0.0124  0.3430  0.2572
  167loPI   C3B 2671   7.327  10.492   8.878 -0.1047 -0.1391 -0.1543
  167loPI   C4B 2672   7.596  10.402   8.592 -0.1861 -0.0322  0.3697
  168loPI    C1 2673  12.232   0.806  10.728  0.2504 -0.0169  0.1982
  168loPI    C2 2674  12.116   0.892  11.101 -0.0942  0.0232  0.0852
  168loPI    C3 2675  11.842   0.819  10.818  0.1645 -0.0222 -0.1575
  168loPI   PO4 2676  12.386   0.987  10.649 -0.0208 -0.1630  0.0736
  168loPI   GL1 2677  12.400   1.360  10.390 -0.1808 -0.2031  0.0759
  168loPI   GL2 2678  12.220   1.603  10.487 -0.0916  0.0969 -0.1283
  168loPI   C1A 2679  12.429   1.516   9.997 -0.3295  0.1700  0.3274
  168loPI   C2A 2680  12.296   1.499   9.580 -0.4265 -0.0172 -0.0998
  168loPI   C3A 2681  12.335   1.520   9.147  0.1184  0.0395 -0.0670
  168loPI   C4A 2682  12.421   1.638   8.735 -0.2298 -0.2001 -0.0386
  168loPI   C5A 2683  12.163   1.585   8.373 -0.3569 -0.0666 -0.0325
  168loPI   C6A 2684  12.276   1.897   8.026  0.3888  0.0284  0.0892
  168loPI   C1B 2685  12.107   1.848  10.167  0.0153 -0.2761 -0.3572
  168loPI   C2B 2686  11.999   1.991   9.756  0.0038  0.0456  0.2876
  168loPI   C3B 2687  12.021   1.946   9.338 -0.1581 -0.1124  0.0800
  168loPI   C4B 2688  12.070   1.962   8.823  0.0484 -0.1282  0.1840
  169loPI    C1 2689   1.662   8.484  10.092  0.0324 -0.1388  0.3303
  169loPI    C2 2690   1.749   8.096  10.055 -0.1527 -0.1560  0.0462
  169loPI    C3 2691   1.921   8.312  10.344  0.0724 -0.4113  0.1081
  169loPI   PO4 2692   1.643   8.532   9.779 -0.0502  0.0693  0.0375
  169loPI   GL1 2693   1.403   8.663   9.436  0.2704  0.0239  0.0603
  169loPI   GL2 2694   1.480   8.414   9.271  0.0212  0.0211  0.1451
  169loPI   C1A 2695   1.611   8.878   9.148  0.2662  0.1651 -0.1384
  169loPI   C2A 2696   2.105   8.889   8.916  0.0149  0.2646  0.1433
  169loPI   C3A 2697   2.279   8.784   8.501 -0.0406 -0.1515 -0.2645
  169loPI   C4A 2698   2.409   8.987   8.098  0.2473  0.2529  0.1756
  169loPI   C5A 2699   2.739   8.905   7.769  0.3166 -0.0756  0.0844
  169loPI   C6A 2700   3.101   9.071   7.650  0.0978  0.0464 -0.1195
  169loPI   C1B 2701   1.299   8.112   8.962 -0.5443  0.1421 -0.0123
  169loPI   C2B 2702   1.147   7.791   8.692 -0.0973  0.2875 -0.1655
  169loPI   C3B 2703   1.042   7.393   8.834 -0.0364 -0.0822  0.1606
  169loPI   C4B 2704   0.798   7.117   8.606  0.2769  0.2747 -0.0223
  170loPI    C1 2705   6.546  11.571  10.915 -0.0026 -0.2686 -0.1574
  170loPI    C2 2706   6.850  11.697  11.143 -0.1517 -0.0491 -0.0759
  170loPI    C3 2707   6.614  11.401  11.270  0.1252 -0.3361 -0.2134
  170loPI   PO4 2708   6.728  11.539  10.709 -0.0685  0.2146 -0.3041
  170loPI   GL1 2709   6.754  11.167  10.380 -0.4015  0.3723 -0.1470
  170loPI   GL2 2710   6.999  11.034  10.285 -0.2756 -0.0193 -0.1769
  170loPI   C1A 2711   6.803  11.517  10.067 -0.0816 -0.1402  0.2541
  170loPI   C2A 2712   6.693  11.621   9.666  0.0827 -0.0955 -0.1279
  170loPI   C3A 2713   6.718  11.800   9.274  0.0480 -0.1331  0.1389
  170loPI   C4A 2714   6.744  11.766   8.880 -0.0810 -0.3567  0.1866
  170loPI   C5A 2715   6.772  11.824   8.439  0.0656  0.1592 -0.0526
  170loPI   C6A 2716   6.918  11.626   8.034  0.0692 -0.3298  0.0330
  170loPI   C1B 2717   7.275  11.241   9.959 -0.2340 -0.0757 -0.1405
  170loPI   C2B 2718   7.313  11.277   9.560 -0.0849 -0.0289  0.0605
  170loPI   C3B 2719   7.381  11.136   9.075 -0.0924  0.2031 -0.0577
  170loPI   C4B 2720   7.277  10.919   8.670  0.1282 -0.3435  0.1454
  171loPI    C1 2721   1.184   5.482  10.771 -0.0794  0.2916  0.0661
  171loPI    C2 2722   1.457   5.630  11.024 -0.0520  0.2103  0.0844
  171loPI    C3 2723   1.069   5.712  11.077 -0.0631  0.0552  0.2530
  171loPI   PO4 2724   1.254   5.478  10.486 -0.3035  0.1996  0.0939
  171loPI   GL1 2725   1.216   5.675  10.071 -0.0685  0.1509 -0.1013
  171loPI   GL2 2726   1.105   5.357  10.047  0.0000 -0.0005  0.1576
  171loPI   C1A 2727   1.236   5.775   9.734  0.0225  0.1667 -0.0209
  171loPI   C2A 2728   1.236   5.745   9.255 -0.4493  0.1558 -0.4094
  171loPI   C3A 2729   1.163   5.810   8.816 -0.0171 -0.2543 -0.1210
  171loPI   C4A 2730   1.222   5.689   8.367  0.2221 -0.0398 -0.3207
  171loPI   C5A 2731   1.130   5.527   7.899  0.0107 -0.0562  0.0177
  171loPI   C6A 2732   0.799   5.836   7.843  0.1694 -0.0635 -0.0067
  171loPI   C1B 2733   1.044   5.239   9.526 -0.2669 -0.2937  0.0004
  171loPI   C2B 2734   1.066   5.221   9.074  0.1449  0.2533 -0.0715
  171loPI   C3B 2735   0.919   5.306   8.634  0.3082 -0.1475 -0.1086
  171loPI   C4B 2736   0.885   5.186   8.158  0.2796  0.0652 -0.2318
  172loPI    C1 2737  12.673   7.444  11.000  0.0508 -0.1877  0.1383
  172loPI    C2 2738  12.568   7.325  11.367 -0.0316 -0.1281  0.1343
  172loPI    C3 2739  12.832   7.622  11.322  0.0570 -0.2046  0.1447
  172loPI   PO4 2740  12.470   7.248  10.896 -0.0285 -0.4466 -0.0944
  172loPI   GL1 2741  12.485   7.287  10.558 -0.0324 -0.2101 -0.2326
  172loPI   GL2 2742  12.375   6.959  10.388 -0.0054 -0.0144 -0.2977
  172loPI   C1A 2743  12.361   7.295  10.045  0.1015 -0.0807  0.2030
  172loPI   C2A 2744  12.328   7.399   9.582  0.1484 -0.0344 -0.3293
  172loPI   C3A 2745  12.387   7.420   9.091  0.2571 -0.0950 -0.3594
  172loPI   C4A 2746  12.471   7.310   8.686  0.0633  0.1290  0.0108
  172loPI   C5A 2747  12.518   7.538   8.341  0.0583 -0.4174 -0.2794
  172loPI   C6A 2748  12.726   7.945   8.092  0.4504 -0.1852  0.0525
  172loPI   C1B 2749  12.657   6.936  10.079 -0.2082  0.0040  0.1931
  172loPI   C2B 2750  12.702   6.981   9.622 -0.0197 -0.0305 -0.1832
  172loPI   C3B 2751  12.664   6.954   9.168  0.0586  0.1721  0.1739
  172loPI   C4B 2752  12.693   6.891   8.818 -0.2965  0.1694 -0.1952
  173loPI    C1 2753  10.115  17.935  10.951 -0.2019 -0.1669  0.0006
  173loPI    C2 2754  10.019  18.092  11.306 -0.2925 -0.5703  0.1604
  173loPI    C3 2755  10.397  17.985  11.230 -0.1564  0.0415 -0.0814
  173loPI   PO4 2756   9.988  18.082  10.779  0.0714 -0.0141  0.0141
  173loPI   GL1 2757   9.692  18.020  10.428  0.1321 -0.3092  0.0477
  173loPI   GL2 2758   9.584  17.776  10.538 -0.0837 -0.4029 -0.4042
  173loPI   C1A 2759   9.503  17.914  10.024  0.0803  0.0969 -0.0379
  173loPI   C2A 2760   9.376  17.584   9.831  0.0023  0.0247  0.1384
  173loPI   C3A 2761   9.541  17.560   9.430 -0.1354 -0.1362 -0.0979
  173loPI   C4A 2762   9.526  17.624   9.014 -0.1974 -0.3119 -0.0424
  173loPI   C5A 2763   9.713  17.662   8.641  0.1881 -0.1897 -0.0155
  173loPI   C6A 2764   9.848  17.627   8.304  0.1291 -0.2538  0.2846
  173loPI   C1B 2765   9.857  17.554  10.149 -0.0862  0.1167 -0.2102
  173loPI   C2B 2766   9.982  17.598   9.691 -0.1742  0.1272 -0.0072
  173loPI   C3B 2767  10.041  17.662   9.332  0.2441  0.1405 -0.0900
  173loPI   C4B 2768  10.190  17.523   9.003 -0.0667 -0.4383 -0.0542
  174loPI    C1 2769  16.071  16.975  10.675 -0.0706 -0.0309  0.2974
  174loPI    C2 2770  16.207  16.815  11.016  0.0385 -0.2168  0.1687
  174loPI    C3 2771  15.822  16.775  10.915 -0.0037 -0.1233  0.2906
  174loPI   PO4 2772  16.315  16.946  10.519 -0.0037 -0.1901 -0.0442
  174loPI   GL1 2773  16.584  16.907  10.097  0.0702  0.0133 -0.0944
  174loPI   GL2 2774  16.653  16.643   9.941 -0.4553 -0.3535  0.1970
  174loPI   C1A 2775  16.472  17.145   9.726 -0.1144  0.1426 -0.0505
  174loPI   C2A 2776  16.402  17.155   9.307  0.0698 -0.1104 -0.0883
  174loPI   C3A 2777  16.100  17.094   8.862 -0.0016  0.0577  0.1129
  174loPI   C4A 2778  16.203  16.873   8.424 -0.1386  0.0490  0.0700
  174loPI   C5A 2779  16.204  16.538   8.339 -0.2678 -0.2370  0.1338
  174loPI   C6A 2780  16.186  16.013   8.071 -0.3535  0.2417 -0.1009
  174loPI   C1B 2781  16.362  16.346   9.532 -0.1204 -0.0205  0.0778
  174loPI   C2B 2782  16.225  15.958   9.234  0.0809 -0.1227 -0.0355
  174loPI   C3B 2783  16.033  15.660   8.946  0.1079 -0.0322 -0.1975
  174loPI   C4B 2784  15.616  15.528   8.963  0.0155 -0.0556  0.0248
  175loPI    C1 2785   3.420   3.409  10.905  0.1922 -0.0236  0.0028
  175loPI    C2 2786   3.139   3.212  10.700  0.3025 -0.1533 -0.0253
  175loPI    C3 2787   3.153   3.183  11.099  0.0732  0.1178  0.0055
  175loPI   PO4 2788   3.632   3.304  10.604 -0.2258  0.2748 -0.2773
  175loPI   GL1 2789   3.637   3.227  10.233 -0.0465  0.4811 -0.0331
  175loPI   GL2 2790   3.444   3.006  10.192  0.0849  0.1473 -0.1928
  175loPI   C1A 2791   3.831   2.993   9.883  0.3153  0.1065  0.0694
  175loPI   C2A 2792   3.777   3.081   9.473  0.0734  0.3595  0.0707
  175loPI   C3A 2793   3.803   3.138   9.070  0.0921 -0.2566 -0.4619
  175loPI   C4A 2794   3.827   3.209   8.677  0.0290  0.1561  0.0093
  175loPI   C5A 2795   3.833   2.985   8.300  0.4002  0.0096  0.1289
  175loPI   C6A 2796   3.814   2.884   7.813  0.1798 -0.2939 -0.0363
  175loPI   C1B 2797   3.328   3.145   9.728  0.0391  0.0497  0.0110
  175loPI   C2B 2798   3.265   3.087   9.232  0.1491  0.2285  0.0080
  175loPI   C3B 2799   3.242   3.209   8.774 -0.0009  0.0021  0.0163
  175loPI   C4B 2800   3.320   3.046   8.396 -0.0372  0.0777 -0.1247
  176loPI    C1 2801  13.830   4.475  11.056 -0.2417  0.2313  0.3574
  176loPI    C2 2802  14.134   4.233  11.151 -0.3634  0.0087  0.1906
  176loPI    C3 2803  14.205   4.580  10.966 -0.2211 -0.1135  0.0131
  176loPI   PO4 2804  13.681   4.304  10.947  0.0625 -0.0014 -0.3034
  176loPI   GL1 2805  13.536   4.193  10.596 -0.1226  0.0659 -0.0805
  176loPI   GL2 2806  13.659   4.405  10.404 -0.0144  0.0508  0.2764
  176loPI   C1A 2807  13.202   4.341  10.227 -0.2227  0.0289  0.0151
  176loPI   C2A 2808  13.118   4.321   9.869 -0.1911  0.0292  0.0500
  176loPI   C3A 2809  13.019   4.345   9.455 -0.0829 -0.1940 -0.0069
  176loPI   C4A 2810  12.931   4.287   9.016  0.1871 -0.3218 -0.1836
  176loPI   C5A 2811  12.911   4.234   8.561  0.0031 -0.1404 -0.2201
  176loPI   C6A 2812  12.906   4.413   8.143  0.1560 -0.1706 -0.0635
  176loPI   C1B 2813  13.757   4.335  10.028  0.1538 -0.0910  0.0344
  176loPI   C2B 2814  13.524   4.388   9.611  0.0487 -0.1808 -0.0664
  176loPI   C3B 2815  13.428   4.378   9.145 -0.0607 -0.2330 -0.1465
  176loPI   C4B 2816  13.365   4.370   8.733  0.0119 -0.4736  0.0218
  177loPI    C1 2817   5.496   6.561  10.693 -0.0712  0.1204 -0.2376
  177loPI    C2 2818   5.278   6.302  10.907 -0.1016  0.2454 -0.1160
  177loPI    C3 2819   5.515   6.566  11.093  0.0913  0.1651 -0.2455
  177loPI   PO4 2820   5.662   6.422  10.500  0.0221 -0.0711  0.3267
  177loPI   GL1 2821   5.877   6.525  10.161  0.1320  0.0175 -0.0798
  177loPI   GL2 2822   5.962   6.812  10.128 -0.1431 -0.0067  0.0410
  177loPI   C1A 2823   5.724   6.620   9.744 -0.2106 -0.2406  0.0060
  177loPI   C2A 2824   5.590   6.560   9.281 -0.0849  0.0862  0.2398
  177loPI   C3A 2825   5.619   6.423   8.759 -0.1350  0.0050  0.2455
  177loPI   C4A 2826   5.826   6.579   8.274 -0.0159  0.0592 -0.3684
  177loPI   C5A 2827   6.136   6.634   8.027 -0.1526 -0.2319  0.3607
  177loPI   C6A 2828   6.506   6.780   7.654  0.1281 -0.2424  0.4326
  177loPI   C1B 2829   6.183   6.810   9.783  0.0306 -0.1057 -0.1224
  177loPI   C2B 2830   6.064   6.609   9.430  0.0999  0.0689 -0.2978
  177loPI   C3B 2831   6.067   6.564   8.881 -0.3583  0.2477  0.0623
  177loPI   C4B 2832   6.271   6.581   8.575 -0.1305 -0.1587 -0.0941
  178loPI    C1 2833   6.131   3.721  11.221  0.1626  0.0135 -0.1690
  178loPI    C2 2834   5.845   3.567  11.454 -0.0779  0.1674 -0.3580
  178loPI    C3 2835   6.224   3.569  11.579 -0.1831  0.1233 -0.0281
  178loPI   PO4 2836   6.112   3.531  10.824  0.1372  0.0120 -0.0750
  178loPI   GL1 2837   6.296   3.459  10.413 -0.1691 -0.0484 -0.1178
  178loPI   GL2 2838   6.359   3.797  10.287 -0.0058 -0.0800 -0.0732
  178loPI   C1A 2839   6.303   3.112  10.218 -0.3425 -0.1009 -0.0403
  178loPI   C2A 2840   6.262   2.991   9.876 -0.1614  0.3625 -0.4320
  178loPI   C3A 2841   6.178   2.932   9.457 -0.0244  0.1458  0.4318
  178loPI   C4A 2842   6.260   2.936   9.052  0.2907 -0.2164 -0.3051
  178loPI   C5A 2843   6.172   2.842   8.581 -0.2746 -0.0570 -0.0593
  178loPI   C6A 2844   6.183   2.972   8.146 -0.1300 -0.0657  0.0892
  178loPI   C1B 2845   6.419   3.522   9.939 -0.0173 -0.0487 -0.1010
  178loPI   C2B 2846   6.378   3.410   9.514 -0.1619 -0.0255 -0.0559
  178loPI   C3B 2847   6.394   3.383   9.151 -0.0229 -0.2375 -0.0587
  178loPI   C4B 2848   6.184   3.323   8.749  0.2376 -0.1657  0.0605
  179loPI    C1 2849  10.841   1.386  11.067 -0.0704  0.0033  0.1556
  179loPI    C2 2850  10.512   1.513  11.255 -0.2917 -0.0818 -0.1650
  179loPI    C3 2851  10.675   1.161  11.353 -0.1867  0.0427  0.1195
  179loPI   PO4 2852  10.898   1.404  10.797  0.1354 -0.1427 -0.1644
  179loPI   GL1 2853  10.840   1.097  10.462 -0.4989 -0.0504  0.2766
  179loPI   GL2 2854  10.611   0.865  10.433 -0.0256 -0.0205  0.1265
  179loPI   C1A 2855  10.797   1.267  10.003 -0.0115  0.0704  0.2277
  179loPI   C2A 2856  10.810   1.258   9.613  0.3249 -0.5493  0.1109
  179loPI   C3A 2857  10.876   1.236   9.168  0.1217  0.1049  0.0258
  179loPI   C4A 2858  10.776   1.200   8.853  0.4090 -0.1920  0.0598
  179loPI   C5A 2859  10.814   1.458   8.517  0.1808  0.3242 -0.1159
  179loPI   C6A 2860  10.989   1.798   8.499 -0.1074  0.1139 -0.0956
  179loPI   C1B 2861  10.732   0.796   9.940  0.1634 -0.2823  0.0327
  179loPI   C2B 2862  10.690   0.736   9.444  0.0883 -0.2393  0.4437
  179loPI   C3B 2863  10.705   0.763   9.055  0.1913  0.1230  0.2504
  179loPI   C4B 2864  10.565   0.797   8.705 -0.2086  0.2445 -0.2492
  180loPI    C1 2865   2.920   0.567  10.473  0.0588  0.0216  0.0560
  180loPI    C2 2866   2.925   0.336  10.799 -0.0503 -0.0878 -0.0189
  180loPI    C3 2867   3.096   0.697  10.808  0.0501 -0.1377  0.1234
  180loPI   PO4 2868   2.648   0.530  10.330 -0.2527 -0.1274 -0.0741
  180loPI   GL1 2869   2.871   0.444   9.973 -0.2179  0.0108  0.0946
  180loPI   GL2 2870   2.874   0.231   9.881 -0.0498  0.2524  0.0903
  180loPI   C1A 2871   2.623   0.576   9.612  0.1135  0.2068  0.0001
  180loPI   C2A 2872   2.681   0.652   9.149  0.2360 -0.4993 -0.1621
  180loPI   C3A 2873   2.658   0.696   8.761  0.1153  0.0778 -0.2428
  180loPI   C4A 2874   2.887   0.755   8.406 -0.2508 -0.1957  0.0502
  180loPI   C5A 2875   2.891   0.685   7.978 -0.0589 -0.1695 -0.2073
  180loPI   C6A 2876   2.713   0.468   7.564  0.3224  0.2904 -0.3900
  180loPI   C1B 2877   3.026   0.276   9.514  0.0244 -0.1738 -0.0087
  180loPI   C2B 2878   3.067   0.241   9.143 -0.0964  0.1850  0.1641
  180loPI   C3B 2879   3.082   0.370   8.657 -0.0206  0.0688 -0.0960
  180loPI   C4B 2880   2.941   0.302   8.304 -0.1035 -0.3446  0.2864
  181loPI    C1 2881  12.829   8.364  10.646 -0.4249 -0.0726  0.0829
  181loPI    C2 2882  12.811   8.207  11.014  0.1383 -0.1036  0.1072
  181loPI    C3 2883  12.763   8.601  10.962 -0.0305 -0.1106  0.1998
  181loPI   PO4 2884  12.739   8.202  10.433  0.0455  0.0457 -0.1110
  181loPI   GL1 2885  12.792   7.963  10.165 -0.2012 -0.2148 -0.1872
  181loPI   GL2 2886  12.794   7.648  10.178  0.0171 -0.0120 -0.3485
  181loPI   C1A 2887  13.010   7.990   9.781  0.2052 -0.0679 -0.2839
  181loPI   C2A 2888  13.135   7.878   9.455  0.2177  0.1176  0.0903
  181loPI   C3A 2889  13.070   8.025   9.005  0.2922  0.0433 -0.0306
  181loPI   C4A 2890  12.965   8.195   8.562  0.0098  0.0112 -0.2586
  181loPI   C5A 2891  13.120   8.317   8.187 -0.2412  0.0732  0.0906
  181loPI   C6A 2892  13.292   8.464   7.734  0.0425 -0.1398 -0.1867
  181loPI   C1B 2893  12.793   7.526   9.799 -0.0579  0.0354  0.3279
  181loPI   C2B 2894  12.966   7.434   9.414  0.1617  0.1038  0.0332
  181loPI   C3B 2895  12.886   7.580   8.932  0.2022  0.1147  0.2722
  181loPI   C4B 2896  12.939   7.735   8.516  0.0933  0.1448  0.1528
  182loPI    C1 2897  10.473   0.663  10.866  0.5109  0.2664 -0.2149
  182loPI    C2 2898  10.832   0.826  10.935  0.4368  0.3141  0.0682
  182loPI    C3 2899  10.617   0.679  11.239  0.2566  0.2004 -0.1120
  182loPI   PO4 2900  10.488   0.476  10.707 -0.0436  0.1010  0.0569
  182loPI   GL1 2901  10.767   0.385  10.397 -0.2052 -0.2759 -0.0866
  182loPI   GL2 2902  10.474   0.169  10.317  0.2122 -0.0220  0.0508
  182loPI   C1A 2903  11.022   0.423  10.036  0.2067 -0.1856  0.2253
  182loPI   C2A 2904  11.016   0.336   9.546 -0.0591  0.1076 -0.0598
  182loPI   C3A 2905  11.010   0.324   9.104 -0.2024  0.0939  0.4283
  182loPI   C4A 2906  10.871   0.380   8.744 -0.3621 -0.0699  0.2253
  182loPI   C5A 2907  11.209   0.396   8.422 -0.0262  0.0740 -0.0294
  182loPI   C6A 2908  11.405   0.296   8.058  0.1191  0.0766  0.0392
  182loPI   C1B 2909  10.418   0.375   9.927  0.3537 -0.0308  0.0601
  182loPI   C2B 2910  10.107   0.343   9.662  0.2757 -0.0236  0.5242
  182loPI   C3B 2911   9.944   0.268   9.275  0.1580  0.1288  0.3448
  182loPI   C4B 2912   9.832   0.326   8.824 -0.1042  0.0032 -0.0331
  183loPI    C1 2913   4.420  11.511  10.263 -0.1513 -0.1420 -0.0136
  183loPI    C2 2914   4.101  11.362  10.453 -0.1867 -0.1175 -0.0537
  183loPI    C3 2915   4.157  11.284  10.065 -0.1645 -0.0899 -0.0561
  183loPI   PO4 2916   4.415  11.748  10.345  0.1666 -0.0548  0.2462
  183loPI   GL1 2917   4.525  12.036  10.012 -0.0553  0.2158 -0.0442
  183loPI   GL2 2918   4.343  11.837   9.765  0.0879  0.2382 -0.4511
  183loPI   C1A 2919   4.410  12.290   9.636  0.1423 -0.2655  0.1729
  183loPI   C2A 2920   4.503  12.347   9.275 -0.0613 -0.0248  0.0938
  183loPI   C3A 2921   4.490  12.345   8.864 -0.2764 -0.0657 -0.0656
  183loPI   C4A 2922   4.516  12.376   8.517 -0.2138 -0.1969 -0.4343
  183loPI   C5A 2923   4.376  12.159   8.199  0.0083 -0.2819  0.2142
  183loPI   C6A 2924   3.968  12.007   8.022 -0.0431  0.0712 -0.0586
  183loPI   C1B 2925   4.279  11.916   9.312  0.1287  0.1863  0.1554
  183loPI   C2B 2926   4.345  11.866   8.920  0.3051 -0.1880 -0.2017
  183loPI   C3B 2927   4.343  11.841   8.538  0.1226 -0.4509  0.0304
  183loPI   C4B 2928   4.321  11.663   8.206 -0.0389  0.3412  0.4471
  184loPI    C1 2929   2.094   1.855  10.834 -0.1022 -0.4283 -0.3705
  184loPI    C2 2930   2.448   2.041  10.856 -0.2672 -0.1241 -0.2127
  184loPI    C3 2931   2.422   1.649  10.932 -0.0011 -0.1023  0.0025
  184loPI   PO4 2932   1.967   2.043  10.562  0.0261  0.3293  0.1068
  184loPI   GL1 2933   2.174   2.013  10.051 -0.0062  0.0114  0.2336
  184loPI   GL2 2934   1.879   1.768  10.113 -0.3133 -0.0429  0.0619
  184loPI   C1A 2935   2.299   2.089   9.656  0.1993  0.0370  0.1544
  184loPI   C2A 2936   2.338   2.033   9.214  0.0264 -0.1190  0.0564
  184loPI   C3A 2937   2.311   2.084   8.781  0.0776 -0.1484  0.3740
  184loPI   C4A 2938   2.123   2.247   8.478  0.0226 -0.0500  0.3664
  184loPI   C5A 2939   2.420   2.312   8.166  0.3824 -0.0938 -0.0487
  184loPI   C6A 2940   2.501   2.365   7.703  0.0146  0.0693  0.2942
  184loPI   C1B 2941   1.909   1.532   9.738 -0.0902 -0.1890 -0.2431
  184loPI   C2B 2942   1.963   1.725   9.315 -0.3646  0.1674  0.2546
  184loPI   C3B 2943   2.100   1.580   9.014  0.2324  0.2322 -0.0535
  184loPI   C4B 2944   2.013   1.750   8.584  0.0783 -0.1973  0.3502
  185loPI    C1 2945  13.986   3.732  11.141  0.0521  0.2622 -0.1029
  185loPI    C2 2946  13.712   3.943  11.342 -0.0502 -0.0691  0.1133
  185loPI    C3 2947  14.085   3.911  11.485 -0.0183  0.0125  0.0496
  185loPI   PO4 2948  13.777   3.803  10.856  0.1141  0.0167 -0.2948
  185loPI   GL1 2949  13.700   3.648  10.491 -0.0787 -0.0735 -0.0296
  185loPI   GL2 2950  13.614   3.372  10.389  0.0758 -0.0182  0.1503
  185loPI   C1A 2951  13.498   3.887  10.217  0.3175 -0.2220 -0.1956
  185loPI   C2A 2952  13.391   3.885   9.789 -0.1238  0.1508 -0.0370
  185loPI   C3A 2953  13.350   3.892   9.342  0.0540  0.0102 -0.0540
  185loPI   C4A 2954  13.276   3.898   9.010 -0.1120 -0.2170 -0.1152
  185loPI   C5A 2955  13.340   3.850   8.648 -0.0381 -0.0652 -0.1501
  185loPI   C6A 2956  13.329   3.637   8.287 -0.0569 -0.0590  0.1662
  185loPI   C1B 2957  13.750   3.499  10.030 -0.0772  0.0015  0.6340
  185loPI   C2B 2958  13.711   3.435   9.631  0.2389 -0.0953 -0.1658
  185loPI   C3B 2959  13.674   3.444   9.226  0.0267 -0.1295 -0.0580
  185loPI   C4B 2960  13.552   3.474   8.844 -0.1176 -0.1865 -0.1414
  186loPI    C1 2961  17.612   6.237  10.980  0.0618  0.2015  0.1212
  186loPI    C2 2962  17.548   5.842  10.969 -0.0443  0.2243 -0.1480
  186loPI    C3 2963  17.293   6.080  11.164  0.0686  0.1524  0.0912
  186loPI   PO4 2964  17.619   6.298  10.724  0.0285  0.0413  0.0550
  186loPI   GL1 2965  17.747   6.329  10.361 -0.6693  0.0048  0.1534
  186loPI   GL2 2966  18.013   6.480  10.215 -0.0895 -0.1598  0.1773
  186loPI   C1A 2967  17.679   5.995  10.051 -0.2436  0.0359 -0.3227
  186loPI   C2A 2968  17.587   5.920   9.618  0.2312 -0.0534 -0.1662
  186loPI   C3A 2969  17.611   5.911   9.158 -0.1972 -0.0162 -0.1380
  186loPI   C4A 2970  17.487   5.930   8.705  0.0643  0.2510 -0.0338
  186loPI   C5A 2971  17.532   5.976   8.270  0.0559 -0.1223  0.1089
  186loPI   C6A 2972  17.771   5.787   7.896  0.0917  0.2126 -0.0836
  186loPI   C1B 2973  17.995   6.506   9.827  0.1990  0.0503  0.0106
  186loPI   C2B 2974  17.763   6.428   9.394  0.0145 -0.2572  0.1283
  186loPI   C3B 2975  17.753   6.412   9.007 -0.2996  0.1550  0.4073
  186loPI   C4B 2976  17.772   6.380   8.500 -0.2741  0.1718 -0.2519
  187loPI    C1 2977   7.354  15.194  11.312 -0.1154  0.0985  0.0392
  187loPI    C2 2978   7.011  15.171  11.515 -0.1478 -0.2500 -0.0471
  187loPI    C3 2979   7.354  15.059  11.688 -0.0592  0.1831  0.0698
  187loPI   PO4 2980   7.294  15.100  11.082  0.1896 -0.1114  0.1665
  187loPI   GL1 2981   7.240  15.160  10.719  0.2738 -0.0814  0.2276
  187loPI   GL2 2982   7.460  15.081  10.415  0.0513 -0.0529 -0.0463
  187loPI   C1A 2983   7.023  15.343  10.389 -0.1395 -0.2274 -0.0986
  187loPI   C2A 2984   7.054  15.403   9.977 -0.3252 -0.0255  0.2568
  187loPI   C3A 2985   7.042  15.412   9.547 -0.0892 -0.2887  0.2194
  187loPI   C4A 2986   7.179  15.425   9.121  0.2304  0.4317  0.1464
  187loPI   C5A 2987   7.337  15.401   8.772  0.1694 -0.0782 -0.2046
  187loPI   C6A 2988   7.477  15.485   8.373  0.1303 -0.1714 -0.1374
  187loPI   C1B 2989   7.386  15.000   9.957 -0.3285  0.0471  0.0851
  187loPI   C2B 2990   7.372  15.027   9.451 -0.1765 -0.0176  0.1538
  187loPI   C3B 2991   7.598  15.085   9.067  0.0048  0.2661  0.1126
  187loPI   C4B 2992   7.652  15.067   8.587 -0.1953  0.1401  0.1173
  188loPI    C1 2993   8.909   1.514  10.949  0.1021 -0.1682  0.0262
  188loPI    C2 2994   9.013   1.377  11.311  0.0225  0.0430  0.1305
  188loPI    C3 2995   8.805   1.717  11.277  0.1978  0.1285 -0.1239
  188loPI   PO4 2996   9.164   1.412  10.767 -0.1056  0.1310 -0.0199
  188loPI   GL1 2997   9.345   1.547  10.352  0.3468  0.0083 -0.1980
  188loPI   GL2 2998   9.430   1.237  10.284  0.4693  0.1572 -0.0754
  188loPI   C1A 2999   9.499   1.639   9.949  0.2537 -0.1462  0.2222
  188loPI   C2A 3000   9.450   1.571   9.617  0.2307 -0.2559  0.1319
  188loPI   C3A 3001   9.538   1.578   9.310  0.1010 -0.0233 -0.0924
  188loPI   C4A 3002   9.475   1.539   8.862  0.1421  0.0732  0.3456
  188loPI   C5A 3003   9.540   1.530   8.446  0.0488 -0.0937  0.1712
  188loPI   C6A 3004   9.729   1.451   8.131  0.1715  0.2082  0.4109
  188loPI   C1B 3005   9.309   1.071   9.843  0.2319 -0.0767  0.1376
  188loPI   C2B 3006   9.360   1.057   9.442  0.3389 -0.0088 -0.0102
  188loPI   C3B 3007   9.179   1.109   9.141  0.2179 -0.1834  0.1901
  188loPI   C4B 3008   9.128   1.165   8.695 -0.1824  0.1233  0.0313
  189loPI    C1 3009   4.063   4.987  10.678  0.0142 -0.1599  0.0848
  189loPI    C2 3010   4.176   5.298  10.903 -0.0795  0.1071 -0.2289
  189loPI    C3 3011   4.016   4.974  11.074 -0.1037  0.2841  0.0906
  189loPI   PO4 3012   3.878   5.086  10.506  0.0478 -0.0635 -0.0328
  189loPI   GL1 3013   3.735   5.153  10.131 -0.0878 -0.4043  0.0281
  189loPI   GL2 3014   3.523   5.005   9.966  0.3924 -0.0630 -0.2366
  189loPI   C1A 3015   3.916   5.223   9.748 -0.1732 -0.0954 -0.1706
  189loPI   C2A 3016   3.895   5.339   9.361  0.0852  0.1788  0.1304
  189loPI   C3A 3017   3.638   5.578   9.106  0.0174 -0.1925 -0.0977
  189loPI   C4A 3018   3.527   5.525   8.780  0.1269 -0.1212  0.2491
  189loPI   C5A 3019   3.562   5.424   8.395 -0.2017  0.3338 -0.1245
  189loPI   C6A 3020   3.756   5.288   8.100 -0.2151  0.0173 -0.1039
  189loPI   C1B 3021   3.601   4.855   9.558  0.1229  0.0007  0.0084
  189loPI   C2B 3022   3.557   4.949   9.136  0.0413  0.4315  0.1801
  189loPI   C3B 3023   3.416   4.930   8.687  0.3088  0.0117 -0.3081
  189loPI   C4B 3024   3.230   5.047   8.349 -0.0364 -0.2267 -0.2331
  190loPI    C1 3025   9.840  17.432  11.028 -0.0084 -0.1695  0.1029
  190loPI    C2 3026  10.198  17.388  11.200 -0.0252  0.0476  0.1966
  190loPI    C3 3027   9.935  17.650  11.349 -0.1610  0.0082  0.0295
  190loPI   PO4 3028   9.699  17.285  10.998 -0.3454 -0.1219  0.2256
  190loPI   GL1 3029   9.693  17.207  10.566  0.0099  0.1807 -0.0768
  190loPI   GL2 3030   9.701  16.981  10.316 -0.2851 -0.0675  0.2519
  190loPI   C1A 3031   9.361  17.405  10.335 -0.1776 -0.0548 -0.2969
  190loPI   C2A 3032   9.166  17.112  10.041 -0.1347 -0.0398 -0.1664
  190loPI   C3A 3033   9.295  17.081   9.625 -0.0284 -0.1906  0.1194
  190loPI   C4A 3034   9.380  17.116   9.125  0.1133  0.1061  0.1440
  190loPI   C5A 3035   9.455  17.229   8.677  0.0909 -0.0244  0.0866
  190loPI   C6A 3036   9.252  17.546   8.349 -0.0240 -0.1278 -0.0146
  190loPI   C1B 3037   9.692  17.173   9.930  0.1100 -0.1885 -0.0854
  190loPI   C2B 3038   9.817  17.138   9.556 -0.2116  0.0780  0.0012
  190loPI   C3B 3039   9.860  17.086   9.215 -0.2768 -0.1083  0.0528
  190loPI   C4B 3040  10.046  17.090   8.774 -0.0341 -0.0756  0.1712
  191loPI    C1 3041  10.662   5.067  11.025 -0.1166 -0.1976 -0.3841
  191loPI    C2 3042  11.054   4.996  10.983 -0.0768 -0.2076 -0.0276
  191loPI    C3 3043  10.875   4.928  11.334 -0.3476  0.0373 -0.1140
  191loPI   PO4 3044  10.520   4.947  10.887 -0.0875  0.4370 -0.0006
  191loPI   GL1 3045  10.500   4.629  10.514  0.1864 -0.2253 -0.1906
  191loPI   GL2 3046  10.425   4.840  10.330  0.1274 -0.1403  0.1440
  191loPI   C1A 3047  10.741   4.497  10.182 -0.0515  0.2126  0.0824
  191loPI   C2A 3048  10.716   4.461   9.824 -0.2188 -0.1728 -0.3396
  191loPI   C3A 3049  10.683   4.433   9.397  0.2106  0.0111  0.1797
  191loPI   C4A 3050  10.647   4.504   8.936  0.0753  0.1452  0.0951
  191loPI   C5A 3051  10.616   4.564   8.542  0.0912  0.2556 -0.0861
  191loPI   C6A 3052  10.404   4.398   8.102 -0.1092  0.1608 -0.1295
  191loPI   C1B 3053  10.409   4.786   9.968  0.2224 -0.0161  0.2038
  191loPI   C2B 3054  10.343   4.829   9.537  0.2445  0.0453  0.2059
  191loPI   C3B 3055  10.333   4.931   8.996 -0.1558  0.0327 -0.1095
  191loPI   C4B 3056  10.345   4.959   8.515 -0.2988 -0.0418  0.4082
  192loPI    C1 3057   7.374  15.693  11.393  0.1165  0.0187 -0.0373
  192loPI    C2 3058   7.367  15.994  11.657 -0.2088 -0.0554  0.0431
  192loPI    C3 3059   7.505  15.635  11.766 -0.2577 -0.0613  0.0854
  192loPI   PO4 3060   7.566  15.621  11.178  0.3175 -0.1914  0.1596
  192loPI   GL1 3061   7.463  15.628  10.722 -0.0493  0.2948  0.0974
  192loPI   GL2 3062   7.735  15.477  10.618 -0.0699 -0.2041 -0.1475
  192loPI   C1A 3063   7.185  15.850  10.324 -0.0046  0.2811  0.0580
  192loPI   C2A 3064   7.234  15.859   9.936  0.2800  0.0725  0.1436
  192loPI   C3A 3065   7.331  15.885   9.595  0.1632  0.0492  0.2730
  192loPI   C4A 3066   7.391  15.951   9.211  0.2346  0.0882 -0.2582
  192loPI   C5A 3067   7.390  15.903   8.689  0.0550  0.1298  0.3027
  192loPI   C6A 3068   7.567  15.984   8.252 -0.0703 -0.0549 -0.0415
  192loPI   C1B 3069   7.605  15.486  10.188 -0.1732  0.3130 -0.1697
  192loPI   C2B 3070   7.508  15.397   9.744  0.0753  0.2440 -0.0004
  192loPI   C3B 3071   7.690  15.531   9.318 -0.0845  0.1357 -0.1368
  192loPI   C4B 3072   7.747  15.659   9.076  0.4845  0.3574  0.0561
  193loPI    C1 3073  11.856   5.984  10.806 -0.0540  0.2880 -0.0694
  193loPI    C2 3074  11.641   5.972  11.143  0.0871 -0.2554  0.0107
  193loPI    C3 3075  11.751   5.632  10.964  0.2207  0.0243 -0.4560
  193loPI   PO4 3076  11.667   6.111  10.623 -0.1070 -0.3120 -0.2714
  193loPI   GL1 3077  11.623   5.981  10.231  0.2366  0.0293  0.1228
  193loPI   GL2 3078  11.837   6.301  10.083  0.2157 -0.2211 -0.1602
  193loPI   C1A 3079  11.635   5.933   9.827 -0.0085  0.0662  0.4381
  193loPI   C2A 3080  11.767   5.914   9.394  0.2825  0.2346 -0.1287
  193loPI   C3A 3081  11.755   5.880   8.934  0.1843 -0.1111  0.0034
  193loPI   C4A 3082  11.917   5.939   8.513 -0.1372  0.0243  0.0258
  193loPI   C5A 3083  12.192   6.233   8.365  0.2218 -0.1394  0.1165
  193loPI   C6A 3084  12.493   6.397   8.025 -0.0195  0.1538  0.1223
  193loPI   C1B 3085  11.960   6.473   9.680 -0.2031 -0.3728  0.1766
  193loPI   C2B 3086  12.035   6.472   9.285  0.1177  0.1644 -0.0254
  193loPI   C3B 3087  11.940   6.500   8.757 -0.3678 -0.0079 -0.1867
  193loPI   C4B 3088  11.792   6.531   8.299 -0.2352 -0.3421 -0.3395
  194loPI    C1 3089  16.858   6.208  10.860  0.0371 -0.1113 -0.2076
  194loPI    C2 3090  16.745   5.934  11.129  0.3583 -0.1174 -0.0743
  194loPI    C3 3091  16.562   5.953  10.773 -0.0920 -0.0892  0.1514
  194loPI   PO4 3092  17.097   6.197  10.743 -0.0694 -0.1320  0.0022
  194loPI   GL1 3093  17.204   6.254  10.233  0.1871  0.0451 -0.0160
  194loPI   GL2 3094  16.825   6.209  10.343 -0.1215  0.2531 -0.0737
  194loPI   C1A 3095  17.222   5.895   9.925 -0.1522  0.2890  0.1197
  194loPI   C2A 3096  17.084   5.849   9.597  0.0797  0.2263  0.0408
  194loPI   C3A 3097  17.128   5.789   9.158 -0.2528  0.0763 -0.0587
  194loPI   C4A 3098  17.013   5.774   8.750  0.1725  0.0810 -0.1208
  194loPI   C5A 3099  16.974   5.834   8.367 -0.2085  0.0374 -0.0774
  194loPI   C6A 3100  16.629   5.966   8.091  0.2985 -0.1357 -0.1101
  194loPI   C1B 3101  16.844   6.312   9.941 -0.4080 -0.2246  0.0485
  194loPI   C2B 3102  16.765   6.234   9.552  0.1717  0.2442  0.1960
  194loPI   C3B 3103  16.725   6.233   9.119  0.1541 -0.1762 -0.2244
  194loPI   C4B 3104  16.629   6.240   8.582  0.3862 -0.1343  0.0205
  195loPI    C1 3105  11.212  11.688  10.508  0.1039 -0.1201 -0.0770
  195loPI    C2 3106  10.976  11.881  10.250 -0.2971 -0.1260  0.2744
  195loPI    C3 3107  10.894  11.503  10.352  0.1404 -0.2892  0.0464
  195loPI   PO4 3108  11.476  11.702  10.490  0.1938 -0.1393 -0.1385
  195loPI   GL1 3109  11.487  11.613  10.062  0.0484  0.0415  0.0484
  195loPI   GL2 3110  11.263  11.628   9.945 -0.1428  0.1353 -0.1541
  195loPI   C1A 3111  11.737  11.869   9.745  0.0808  0.0658  0.1855
  195loPI   C2A 3112  11.625  11.899   9.271  0.1612 -0.1672  0.3661
  195loPI   C3A 3113  11.245  11.918   9.051  0.1981  0.1182  0.2277
  195loPI   C4A 3114  11.145  12.020   8.571 -0.1240  0.4195  0.3515
  195loPI   C5A 3115  11.089  11.976   8.204  0.2523 -0.2327 -0.0460
  195loPI   C6A 3116  11.012  12.146   7.764 -0.1316 -0.1219  0.1701
  195loPI   C1B 3117  11.197  11.760   9.578  0.3753  0.0394 -0.3759
  195loPI   C2B 3118  10.829  11.918   9.329 -0.2425  0.2952  0.0063
  195loPI   C3B 3119  10.675  11.839   8.888 -0.0182 -0.0794  0.0639
  195loPI   C4B 3120  10.681  11.810   8.388 -0.0817  0.0462  0.0683
  196loPI    C1 3121   5.304   8.773  10.667  0.1488  0.0750 -0.2124
  196loPI    C2 3122   5.038   8.489  10.760  0.2836  0.0539  0.1234
  196loPI    C3 3123   4.928   8.873  10.762  0.2546  0.0452  0.2608
  196loPI   PO4 3124   5.449   8.604  10.468 -0.4022  0.0040 -0.0430
  196loPI   GL1 3125   5.334   8.494  10.067  0.0807 -0.0475 -0.0282
  196loPI   GL2 3126   5.022   8.383  10.212 -0.3269 -0.0971 -0.0839
  196loPI   C1A 3127   5.346   8.556   9.624  0.5706 -0.1263 -0.2024
  196loPI   C2A 3128   5.285   8.462   9.254  0.0713  0.3508  0.0337
  196loPI   C3A 3129   5.015   8.479   8.764 -0.0315  0.0980  0.2255
  196loPI   C4A 3130   4.801   8.391   8.384  0.2302  0.0480 -0.0245
  196loPI   C5A 3131   4.893   8.203   8.032 -0.0359 -0.2282 -0.0942
  196loPI   C6A 3132   4.666   8.194   7.688  0.0890 -0.2182  0.1157
  196loPI   C1B 3133   5.063   8.189   9.725 -0.1305  0.3572  0.3634
  196loPI   C2B 3134   5.252   7.952   9.401 -0.0104 -0.1726  0.2711
  196loPI   C3B 3135   5.230   8.043   8.948 -0.2364  0.2534 -0.2419
  196loPI   C4B 3136   5.307   8.080   8.498  0.2401  0.0173  0.0512
  197loPI    C1 3137  13.168  11.784  10.943 -0.0191 -0.1509  0.1012
  197loPI    C2 3138  12.934  12.054  11.122  0.1730  0.0437  0.0639
  197loPI    C3 3139  12.922  11.671  11.237  0.0986  0.1173  0.3070
  197loPI   PO4 3140  13.183  11.975  10.693 -0.2907  0.0468 -0.3792
  197loPI   GL1 3141  13.088  11.809  10.248 -0.1026  0.0617 -0.2788
  197loPI   GL2 3142  12.843  11.804  10.144  0.0005  0.3494  0.2427
  197loPI   C1A 3143  13.341  12.000   9.953  0.2239  0.0380  0.2593
  197loPI   C2A 3144  13.212  12.040   9.478  0.0237  0.1353  0.0571
  197loPI   C3A 3145  13.289  12.158   9.121 -0.1283  0.1966 -0.2013
  197loPI   C4A 3146  13.165  12.156   8.785  0.2253  0.1249  0.2368
  197loPI   C5A 3147  13.152  12.216   8.351  0.0781 -0.1102 -0.3039
  197loPI   C6A 3148  13.011  11.948   7.981  0.2966 -0.0159 -0.1002
  197loPI   C1B 3149  12.963  11.646   9.802 -0.1695  0.2147  0.0324
  197loPI   C2B 3150  13.120  11.549   9.442  0.0533  0.2519 -0.0287
  197loPI   C3B 3151  13.062  11.708   9.093  0.0313  0.1715  0.0897
  197loPI   C4B 3152  12.976  11.707   8.596  0.0655  0.0450  0.0368
  198loPI    C1 3153   5.449   5.966  10.628  0.0394  0.0105  0.1342
  198loPI    C2 3154   5.388   5.657  10.874  0.1452 -0.0402  0.0974
  198loPI    C3 3155   5.631   5.956  10.984  0.1622 -0.0441  0.0707
  198loPI   PO4 3156   5.398   5.860  10.364 -0.1383  0.0086  0.1869
  198loPI   GL1 3157   5.548   6.169  10.046  0.1886  0.0382 -0.1339
  198loPI   GL2 3158   5.844   6.053  10.217 -0.2626  0.2212 -0.1280
  198loPI   C1A 3159   5.432   6.103   9.577 -0.2748  0.0761 -0.1583
  198loPI   C2A 3160   5.356   6.102   9.217 -0.0041 -0.1779 -0.1444
  198loPI   C3A 3161   5.415   6.015   8.810  0.0194  0.0770 -0.1891
  198loPI   C4A 3162   5.494   6.031   8.375  0.0499 -0.1389 -0.0808
  198loPI   C5A 3163   5.727   6.034   7.996 -0.1197  0.0061  0.0313
  198loPI   C6A 3164   5.801   6.436   7.771 -0.3880  0.2323 -0.0568
  198loPI   C1B 3165   5.961   6.172   9.818 -0.5236 -0.2701  0.0864
  198loPI   C2B 3166   5.860   6.157   9.388 -0.1533  0.1044  0.0753
  198loPI   C3B 3167   6.030   6.052   8.932  0.1966 -0.2088  0.0562
  198loPI   C4B 3168   5.971   6.158   8.492  0.0834  0.0148 -0.0966
  199loPI    C1 3169  14.811  11.348  10.826  0.1205 -0.0064 -0.1420
  199loPI    C2 3170  14.849  11.172  11.183 -0.0025 -0.0521 -0.1511
  199loPI    C3 3171  15.163  11.355  11.016  0.0518 -0.0188 -0.0135
  199loPI   PO4 3172  14.600  11.259  10.763  0.1895 -0.1900 -0.1724
  199loPI   GL1 3173  14.510  11.190  10.352  0.1419  0.1325  0.2136
  199loPI   GL2 3174  14.799  11.191  10.205 -0.0716 -0.3820  0.1611
  199loPI   C1A 3175  14.363  11.256   9.927  0.1220  0.3121  0.0934
  199loPI   C2A 3176  14.375  11.398   9.572  0.0801  0.0169  0.0909
  199loPI   C3A 3177  14.409  11.425   9.150  0.1564  0.2439  0.1911
  199loPI   C4A 3178  14.246  11.376   8.773  0.0790 -0.1306  0.1394
  199loPI   C5A 3179  14.214  11.545   8.281  0.1059  0.2099  0.2642
  199loPI   C6A 3180  14.013  11.471   7.975 -0.0714  0.1120  0.3848
  199loPI   C1B 3181  15.031  11.280   9.880 -0.3942  0.2283  0.1361
  199loPI   C2B 3182  14.889  11.409   9.508 -0.2072  0.1564 -0.0311
  199loPI   C3B 3183  14.879  11.575   9.125  0.2365 -0.0475  0.1997
  199loPI   C4B 3184  14.795  11.477   8.707 -0.1132  0.0189  0.1567
  200loPI    C1 3185   1.556  13.980  10.454 -0.0345 -0.0924  0.0709
  200loPI    C2 3186   1.208  13.794  10.523 -0.0474 -0.0761  0.0503
  200loPI    C3 3187   1.213  14.148  10.337 -0.0259 -0.0367  0.1253
  200loPI   PO4 3188   1.685  13.728  10.262  0.0624 -0.1166 -0.0952
  200loPI   GL1 3189   1.578  13.776   9.845 -0.0731 -0.0971  0.1531
  200loPI   GL2 3190   1.271  14.001   9.852  0.0960 -0.0318 -0.1385
  200loPI   C1A 3191   1.607  13.868   9.427 -0.0462 -0.0245 -0.2296
  200loPI   C2A 3192   1.594  13.856   8.996  0.0535  0.0685  0.0664
  200loPI   C3A 3193   1.414  13.834   8.646  0.0539 -0.2285  0.2638
  200loPI   C4A 3194   1.276  13.976   8.270 -0.1238  0.0360  0.3181
  200loPI   C5A 3195   1.384  13.839   7.886 -0.2002  0.0044 -0.2340
  200loPI   C6A 3196   1.370  13.793   7.428  0.5057  0.0472 -0.2933
  200loPI   C1B 3197   1.078  13.839   9.480  0.0610 -0.1739  0.0087
  200loPI   C2B 3198   1.069  13.810   8.989  0.0785  0.1643  0.0419
  200loPI   C3B 3199   0.850  13.918   8.645  0.1207 -0.2907 -0.2494
  200loPI   C4B 3200   0.682  14.311   8.454 -0.1907  0.2053  0.1352
  201loPI    C1 3201  15.518   0.477  11.063 -0.2178 -0.1413 -0.1045
  201loPI    C2 3202  15.674   0.396  11.422 -0.2603  0.2332  0.0029
  201loPI    C3 3203  15.452   0.121  11.234 -0.0490 -0.0493  0.1582
  201loPI   PO4 3204  15.706   0.555  10.857 -0.0683  0.1649 -0.0692
  201loPI   GL1 3205  15.813   0.674  10.371 -0.0227  0.0770 -0.0028
  201loPI   GL2 3206  15.544   0.464  10.412  0.1128 -0.0527  0.0309
  201loPI   C1A 3207  15.517   0.784   9.958  0.2259 -0.1228 -0.2608
  201loPI   C2A 3208  15.359   0.559   9.635  0.4818 -0.1386 -0.1623
  201loPI   C3A 3209  15.386   0.522   9.108 -0.0816 -0.3191  0.0940
  201loPI   C4A 3210  15.351   0.576   8.659  0.0822  0.1281 -0.0752
  201loPI   C5A 3211  15.286   0.696   8.268 -0.0909  0.1234  0.0139
  201loPI   C6A 3212  15.345   0.841   7.790 -0.3380  0.1710 -0.0484
  201loPI   C1B 3213  15.281   0.299  10.033 -0.3120  0.2673 -0.4424
  201loPI   C2B 3214  15.280   0.042   9.728  0.2873 -0.0129  0.1614
  201loPI   C3B 3215  15.134  -0.034   9.286 -0.1359 -0.0427 -0.0486
  201loPI   C4B 3216  15.158   0.068   8.882  0.1282 -0.0440 -0.3125
  202loPI    C1 3217   6.376   4.221  10.621  0.1009  0.0974  0.0112
  202loPI    C2 3218   6.049   4.015  10.725  0.1417  0.0468  0.0398
  202loPI    C3 3219   6.275   4.188  11.007  0.0723  0.1852  0.0113
  202loPI   PO4 3220   6.360   4.323  10.398  0.1798 -0.0135 -0.1375
  202loPI   GL1 3221   6.291   4.381   9.977  0.3751  0.1107  0.2521
  202loPI   GL2 3222   6.536   4.552   9.852 -0.1840  0.0065 -0.1246
  202loPI   C1A 3223   6.224   4.268   9.608 -0.2021 -0.0768  0.1734
  202loPI   C2A 3224   6.180   4.252   9.171  0.2642 -0.0390 -0.1765
  202loPI   C3A 3225   6.153   4.297   8.654 -0.2289 -0.1545  0.0204
  202loPI   C4A 3226   6.249   4.095   8.169  0.2252 -0.0031  0.2061
  202loPI   C5A 3227   6.424   3.821   7.751  0.0946 -0.1655 -0.0933
  202loPI   C6A 3228   6.387   3.659   7.410 -0.1914  0.3210  0.0904
  202loPI   C1B 3229   6.681   4.428   9.438  0.0037 -0.3920  0.0870
  202loPI   C2B 3230   6.679   4.361   8.992 -0.2039 -0.0095  0.0370
  202loPI   C3B 3231   6.722   4.396   8.561  0.0323  0.2592  0.1778
  202loPI   C4B 3232   6.472   4.501   8.287  0.0190 -0.2822  0.4032
  203loPI    C1 3233   0.985   7.994  10.534 -0.2603  0.0945 -0.0476
  203loPI    C2 3234   0.911   7.812  10.882 -0.1042 -0.1843 -0.1566
  203loPI    C3 3235   1.213   8.072  10.853 -0.1413 -0.1315 -0.0754
  203loPI   PO4 3236   0.781   8.113  10.415 -0.1220  0.1541 -0.0571
  203loPI   GL1 3237   0.813   8.037   9.971  0.2790 -0.0790  0.1151
  203loPI   GL2 3238   0.479   8.117   9.806 -0.1837 -0.1434 -0.0572
  203loPI   C1A 3239   0.650   7.638   9.654  0.0024  0.2922 -0.0493
  203loPI   C2A 3240   0.662   7.466   9.283  0.1923  0.1408 -0.2894
  203loPI   C3A 3241   0.455   7.340   8.919  0.0559  0.0337  0.0695
  203loPI   C4A 3242   0.291   7.437   8.481  0.3126  0.1402 -0.0663
  203loPI   C5A 3243   0.311   7.755   8.157  0.0706  0.2651 -0.2077
  203loPI   C6A 3244   0.086   7.969   7.999  0.2210 -0.0931  0.2175
  203loPI   C1B 3245   0.605   8.241   9.341 -0.0379  0.1219 -0.1644
  203loPI   C2B 3246   0.493   8.295   8.965 -0.1820 -0.1424 -0.0646
  203loPI   C3B 3247   0.332   8.387   8.640  0.4252  0.0807  0.6497
  203loPI   C4B 3248   0.096   8.430   8.301  0.3868  0.2419 -0.1085
  204loPI    C1 3249   2.578   5.842  10.458 -0.1230  0.0494 -0.2780
  204loPI    C2 3250   2.439   6.117  10.204 -0.2191  0.0371 -0.2392
  204loPI    C3 3251   2.714   5.853  10.082  0.1135  0.3511 -0.1879
  204loPI   PO4 3252   2.361   5.731  10.496  0.0028 -0.3082  0.3022
  204loPI   GL1 3253   2.174   5.581  10.074 -0.0574 -0.2146  0.1061
  204loPI   GL2 3254   2.286   5.874   9.812  0.0044  0.1988  0.1327
  204loPI   C1A 3255   1.839   5.614   9.800 -0.1757 -0.3144  0.1488
  204loPI   C2A 3256   1.675   5.732   9.438 -0.0546  0.1212 -0.1055
  204loPI   C3A 3257   1.866   5.786   8.968 -0.1052 -0.2868  0.0695
  204loPI   C4A 3258   1.665   5.809   8.520  0.1291  0.1972 -0.3447
  204loPI   C5A 3259   1.616   5.959   8.124  0.0560  0.0464 -0.0165
  204loPI   C6A 3260   1.327   5.991   7.773 -0.0315 -0.0404  0.0126
  204loPI   C1B 3261   2.279   5.809   9.307  0.3696  0.0653 -0.0196
  204loPI   C2B 3262   2.324   5.716   8.881  0.0227 -0.0285  0.0825
  204loPI   C3B 3263   2.171   5.669   8.482 -0.0652  0.1379 -0.2454
  204loPI   C4B 3264   2.087   5.771   8.031 -0.0579  0.2257  0.2006
  205loPI    C1 3265  11.303  17.933  11.117  0.1059  0.2715 -0.2285
  205loPI    C2 3266  11.620  17.737  11.262 -0.2643 -0.0745  0.1381
  205loPI    C3 3267  11.545  18.112  11.380 -0.1060 -0.0642  0.2078
  205loPI   PO4 3268  11.278  17.854  10.885  0.1945 -0.0068  0.1588
  205loPI   GL1 3269  11.176  18.110  10.605  0.0956 -0.0661 -0.1488
  205loPI   GL2 3270  10.909  17.990  10.593 -0.6994  0.0476 -0.0296
  205loPI   C1A 3271  11.421  18.121  10.264  0.1574 -0.2469  0.2978
  205loPI   C2A 3272  11.334  18.177   9.856  0.1212  0.0416 -0.0972
  205loPI   C3A 3273  11.329  18.195   9.507  0.0919  0.1696  0.2344
  205loPI   C4A 3274  11.262  18.172   9.109  0.3218  0.0867  0.2080
  205loPI   C5A 3275  11.125  17.895   8.932  0.2202 -0.2405 -0.0021
  205loPI   C6A 3276  11.048  17.428   8.949 -0.1291  0.3390  0.1954
  205loPI   C1B 3277  10.925  18.082  10.183  0.1637 -0.0221  0.0624
  205loPI   C2B 3278  10.785  18.152   9.853  0.1217 -0.1245 -0.3691
  205loPI   C3B 3279  10.552  18.498   9.474 -0.0759  0.1446 -0.0112
  205loPI   C4B 3280  10.465  18.567   9.130 -0.0827  0.1202 -0.1574
  206loPI    C1 3281   4.599   8.352  10.482  0.2796  0.1162  0.1920
  206loPI    C2 3282   4.669   8.118  10.799 -0.2280 -0.1021  0.1519
  206loPI    C3 3283   4.562   8.500  10.852 -0.0822 -0.0720  0.2349
  206loPI   PO4 3284   4.518   8.179  10.307 -0.1652  0.2441  0.1084
  206loPI   GL1 3285   4.612   8.254   9.922  0.4066 -0.4914 -0.2113
  206loPI   GL2 3286   4.604   7.934   9.902 -0.3863 -0.2930 -0.0180
  206loPI   C1A 3287   4.431   8.047   9.425 -0.2043  0.2769  0.1486
  206loPI   C2A 3288   4.698   7.772   9.103  0.0446 -0.0461  0.0750
  206loPI   C3A 3289   4.904   7.772   8.651  0.2345  0.0837 -0.0097
  206loPI   C4A 3290   4.898   7.752   8.272 -0.1209 -0.2519 -0.1176
  206loPI   C5A 3291   4.884   7.389   8.076  0.1010  0.1611 -0.3961
  206loPI   C6A 3292   5.170   7.139   7.898 -0.1173 -0.1010  0.4903
  206loPI   C1B 3293   4.807   7.717   9.582  0.0035  0.0353  0.0134
  206loPI   C2B 3294   5.034   7.504   9.299 -0.2004  0.3882 -0.0200
  206loPI   C3B 3295   5.202   7.506   8.992 -0.1050  0.1253  0.0179
  206loPI   C4B 3296   5.600   7.429   8.771 -0.0827  0.1252 -0.0482
  207loPI    C1 3297   8.355  12.259  10.853  0.0161  0.0329 -0.0095
  207loPI    C2 3298   8.132  11.931  10.907 -0.0330  0.0838  0.1008
  207loPI    C3 3299   8.517  11.931  11.014 -0.0492  0.0824  0.1597
  207loPI   PO4 3300   8.358  12.267  10.567 -0.3124 -0.1056  0.0687
  207loPI   GL1 3301   8.191  12.404  10.193  0.4599  0.0278  0.1089
  207loPI   GL2 3302   8.438  12.097   9.993 -0.1453 -0.1076 -0.0626
  207loPI   C1A 3303   8.102  12.334   9.675  0.1811 -0.0593  0.2807
  207loPI   C2A 3304   8.027  12.131   9.306 -0.2822 -0.0679 -0.2458
  207loPI   C3A 3305   7.941  12.106   8.893 -0.0124  0.0326 -0.1195
  207loPI   C4A 3306   7.959  12.328   8.559  0.0212 -0.1607  0.1186
  207loPI   C5A 3307   8.198  12.503   8.175 -0.2704  0.0673  0.0616
  207loPI   C6A 3308   8.519  12.690   7.949  0.0857  0.0053 -0.0250
  207loPI   C1B 3309   8.439  11.843   9.667 -0.0692 -0.5023 -0.2833
  207loPI   C2B 3310   8.503  11.848   9.220  0.2087 -0.3533  0.0212
  207loPI   C3B 3311   8.397  11.964   8.760 -0.0126  0.0178 -0.0520
  207loPI   C4B 3312   8.474  11.766   8.371 -0.1579 -0.1065  0.1380
  208loPI    C1 3313   3.076  17.855  10.752  0.0833  0.0517 -0.0481
  208loPI    C2 3314   3.261  17.504  10.802 -0.2186 -0.1200 -0.1130
  208loPI    C3 3315   2.927  17.585  11.007  0.0308  0.2680  0.1543
  208loPI   PO4 3316   2.999  17.866  10.548  0.1457 -0.0899  0.2388
  208loPI   GL1 3317   2.990  17.882  10.155  0.3049 -0.0781  0.1410
  208loPI   GL2 3318   3.162  18.239  10.167  0.0126 -0.1177 -0.1744
  208loPI   C1A 3319   2.878  17.990   9.798  0.0542 -0.1243  0.4702
  208loPI   C2A 3320   2.865  18.038   9.350 -0.3218 -0.1916 -0.0176
  208loPI   C3A 3321   2.919  18.017   8.952 -0.2627  0.2379  0.1533
  208loPI   C4A 3322   2.701  18.178   8.589 -0.0496  0.0562  0.0473
  208loPI   C5A 3323   2.749  18.105   8.092 -0.0891  0.1045  0.2916
  208loPI   C6A 3324   3.122  17.981   7.807  0.0014  0.0592  0.1252
  208loPI   C1B 3325   3.339  18.254   9.718 -0.3736  0.0755 -0.2374
  208loPI   C2B 3326   3.392  18.038   9.379  0.0080 -0.0723 -0.0535
  208loPI   C3B 3327   3.447  18.137   9.013 -0.3247  0.2178 -0.0094
  208loPI   C4B 3328   3.230  18.163   8.638 -0.0400  0.0859 -0.0259
  209loPI    C1 3329  16.061   3.258  10.783 -0.4268 -0.2204  0.2662
  209loPI    C2 3330  16.109   2.909  10.593 -0.1841 -0.1031  0.1063
  209loPI    C3 3331  15.936   2.919  10.954 -0.0751 -0.4040  0.1695
  209loPI   PO4 3332  16.156   3.417  10.594  0.0323 -0.0543 -0.2222
  209loPI   GL1 3333  16.511   3.436  10.250  0.1255 -0.2602  0.1090
  209loPI   GL2 3334  16.189   3.222  10.181  0.0189  0.0071  0.0194
  209loPI   C1A 3335  16.629   3.500   9.819  0.5191 -0.0653 -0.1331
  209loPI   C2A 3336  16.580   3.411   9.416 -0.1269  0.0983 -0.1518
  209loPI   C3A 3337  16.518   3.427   8.976 -0.3986 -0.2070  0.1584
  209loPI   C4A 3338  16.440   3.490   8.568 -0.3443  0.0742  0.0907
  209loPI   C5A 3339  16.711   3.660   8.097  0.5097  0.2178  0.0073
  209loPI   C6A 3340  16.511   3.928   7.851  0.2996  0.0442 -0.1653
  209loPI   C1B 3341  16.031   3.330   9.740  0.1670 -0.1072  0.1495
  209loPI   C2B 3342  16.033   3.351   9.297  0.0105  0.0672 -0.0980
  209loPI   C3B 3343  16.059   3.346   8.841  0.0838 -0.0382 -0.2933
  209loPI   C4B 3344  16.015   3.294   8.396 -0.3600  0.0291 -0.1085
  210loPI    C1 3345  11.242   3.062  11.062 -0.1451 -0.0021 -0.1545
  210loPI    C2 3346  10.938   2.847  10.915 -0.2131  0.1075 -0.1750
  210loPI    C3 3347  10.997   2.866  11.310 -0.1321 -0.0498 -0.1790
  210loPI   PO4 3348  11.377   3.084  10.782  0.0536 -0.2689  0.1405
  210loPI   GL1 3349  11.484   2.917  10.381 -0.0207  0.0037  0.2754
  210loPI   GL2 3350  11.105   2.889  10.358 -0.1623  0.1067 -0.2973
  210loPI   C1A 3351  11.386   2.838   9.971  0.1040 -0.0362  0.0546
  210loPI   C2A 3352  11.430   2.769   9.514  0.0344 -0.2452  0.0463
  210loPI   C3A 3353  11.413   2.795   9.039  0.1216  0.0525 -0.2962
  210loPI   C4A 3354  11.333   2.839   8.602 -0.2931 -0.3100  0.0045
  210loPI   C5A 3355  11.233   2.806   8.279  0.1735 -0.0199  0.0109
  210loPI   C6A 3356  11.045   3.183   8.078  0.0761  0.1057  0.3088
  210loPI   C1B 3357  10.949   2.722   9.978  0.0443 -0.3666  0.2176
  210loPI   C2B 3358  10.940   2.768   9.623  0.0978  0.3353 -0.0504
  210loPI   C3B 3359  10.974   2.590   9.179 -0.2069  0.1674 -0.1975
  210loPI   C4B 3360  10.855   2.730   8.792  0.0603  0.1066  0.2926
  211loPI    C1 3361  17.850  15.115  10.557  0.1758 -0.0860  0.1713
  211loPI    C2 3362  17.888  15.506  10.634 -0.1127 -0.0219  0.0040
  211loPI    C3 3363  17.889  15.242  10.934  0.0634  0.1077  0.1193
  211loPI   PO4 3364  17.947  15.119  10.279 -0.0930  0.0180 -0.0428
  211loPI   GL1 3365  17.931  14.903   9.907  0.2689  0.0275  0.1007
  211loPI   GL2 3366  18.130  14.805   9.831 -0.0617  0.0091  0.0821
  211loPI   C1A 3367  17.867  15.041   9.481 -0.1675  0.0841  0.1928
  211loPI   C2A 3368  17.922  15.200   9.103  0.0913  0.2068  0.2249
  211loPI   C3A 3369  17.807  14.999   8.658  0.1553  0.3523 -0.1870
  211loPI   C4A 3370  17.442  14.906   8.333 -0.1835 -0.2032  0.1056
  211loPI   C5A 3371  17.453  14.851   7.901  0.2036 -0.0313  0.0670
  211loPI   C6A 3372  17.802  14.897   7.629  0.3118  0.1692  0.0018
  211loPI   C1B 3373  18.212  14.608   9.465  0.0475 -0.1016  0.0858
  211loPI   C2B 3374  17.851  14.573   9.153 -0.1286  0.0913 -0.2394
  211loPI   C3B 3375  17.608  14.573   8.751 -0.2759  0.1035 -0.1053
  211loPI   C4B 3376  17.387  14.484   8.469  0.1044  0.0203  0.0329
  212loPI    C1 3377   0.086   0.614  10.578  0.1528 -0.1677  0.0332
  212loPI    C2 3378  -0.147   0.602  10.902  0.1212 -0.1186  0.0125
  212loPI    C3 3379   0.167   0.356  10.872 -0.1532 -0.4607 -0.1320
  212loPI   PO4 3380  -0.127   0.728  10.434 -0.1788  0.1557  0.0856
  212loPI   GL1 3381  -0.086   0.869   9.971  0.1077  0.1250 -0.1165
  212loPI   GL2 3382  -0.395   0.590  10.006  0.2733 -0.1560 -0.0669
  212loPI   C1A 3383  -0.053   0.799   9.586 -0.3077  0.0145 -0.0352
  212loPI   C2A 3384  -0.232   1.035   9.294 -0.2018  0.1112  0.2577
  212loPI   C3A 3385   0.141   1.050   8.889  0.0029  0.0077 -0.1456
  212loPI   C4A 3386   0.351   0.931   8.493  0.1666 -0.1368 -0.1230
  212loPI   C5A 3387   0.540   0.831   8.105 -0.0550 -0.0087  0.1657
  212loPI   C6A 3388   0.655   0.836   7.699  0.1615  0.1459  0.0627
  212loPI   C1B 3389  -0.522   0.581   9.608 -0.0779 -0.2158  0.1423
  212loPI   C2B 3390  -0.357   0.541   9.165  0.2062 -0.2613  0.1248
  212loPI   C3B 3391  -0.299   0.791   8.792  0.0423  0.1601  0.0740
  212loPI   C4B 3392  -0.210   0.998   8.426  0.0527  0.0141  0.1247
  213loPI    C1 3393   7.274   4.712  10.815  0.1089 -0.0014  0.0747
  213loPI    C2 3394   7.147   4.985  10.551 -0.1898 -0.0164  0.1989
  213loPI    C3 3395   7.324   5.102  10.890  0.0350  0.0083  0.0748
  213loPI   PO4 3396   7.255   4.453  10.626  0.4506 -0.0651  0.0216
  213loPI   GL1 3397   7.331   4.550  10.176  0.0481 -0.0160 -0.0387
  213loPI   GL2 3398   7.500   4.750  10.282  0.0574 -0.0997 -0.0097
  213loPI   C1A 3399   7.110   4.348   9.865 -0.0779  0.1471  0.3820
  213loPI   C2A 3400   7.070   4.084   9.577 -0.1642 -0.1815 -0.0426
  213loPI   C3A 3401   7.019   3.968   9.205  0.2785 -0.0788  0.0974
  213loPI   C4A 3402   7.019   3.994   8.727 -0.0331  0.2579 -0.3024
  213loPI   C5A 3403   7.021   3.826   8.402 -0.0354  0.1604 -0.0386
  213loPI   C6A 3404   6.852   3.702   8.094  0.1802  0.0525 -0.1149
  213loPI   C1B 3405   7.484   4.714   9.727 -0.0457  0.5614  0.0680
  213loPI   C2B 3406   7.299   4.498   9.395  0.3253  0.5083  0.1357
  213loPI   C3B 3407   7.142   4.452   9.072 -0.0170 -0.1860  0.0552
  213loPI   C4B 3408   7.169   4.504   8.710  0.2877 -0.0033 -0.0205
  214loPI    C1 3409   0.756  14.888  10.546  0.2707  0.1149 -0.3320
  214loPI    C2 3410   0.963  14.581  10.394  0.1233 -0.1317 -0.0451
  214loPI    C3 3411   1.048  14.718  10.760  0.1139  0.0990 -0.1276
  214loPI   PO4 3412   0.720  15.111  10.346  0.3706 -0.1400 -0.0078
  214loPI   GL1 3413   0.786  15.251   9.856 -0.1050  0.1874 -0.0398
  214loPI   GL2 3414   0.896  14.934   9.885  0.1322 -0.1258  0.0121
  214loPI   C1A 3415   0.644  15.349   9.557 -0.1049 -0.1607  0.1315
  214loPI   C2A 3416   0.547  15.466   9.187  0.0083  0.0504  0.1353
  214loPI   C3A 3417   0.610  15.830   8.894  0.2138  0.2873 -0.4918
  214loPI   C4A 3418   0.821  16.031   8.519  0.1183  0.1121  0.1930
  214loPI   C5A 3419   1.241  15.867   8.475 -0.2327  0.1435 -0.4549
  214loPI   C6A 3420   1.452  15.611   8.221  0.0291 -0.2552 -0.0837
  214loPI   C1B 3421   0.850  14.847   9.355  0.1269  0.0449 -0.0822
  214loPI   C2B 3422   0.761  14.978   9.031  0.0161 -0.1986  0.1139
  214loPI   C3B 3423   0.595  15.316   8.706  0.2199  0.0712 -0.0431
  214loPI   C4B 3424   0.653  15.583   8.370 -0.0628  0.1366  0.1553
  215loPI    C1 3425  12.265   8.271  10.841 -0.2176 -0.2648  0.0670
  215loPI    C2 3426  12.075   8.226  11.190 -0.1750  0.4179  0.1916
  215loPI    C3 3427  12.304   8.548  11.127  0.0638  0.1527 -0.3609
  215loPI   PO4 3428  12.034   8.144  10.632  0.2751  0.0060 -0.2063
  215loPI   GL1 3429  11.981   8.137  10.236  0.1234 -0.1998 -0.1502
  215loPI   GL2 3430  12.322   8.236  10.204 -0.0192  0.2053  0.2728
  215loPI   C1A 3431  11.960   8.201   9.825 -0.1636  0.3762  0.3247
  215loPI   C2A 3432  12.067   8.315   9.400  0.2658  0.0376  0.0844
  215loPI   C3A 3433  12.258   8.348   8.961  0.1753  0.3122  0.2221
  215loPI   C4A 3434  12.005   8.379   8.586  0.1303  0.2602 -0.0681
  215loPI   C5A 3435  12.066   8.309   8.086 -0.1011  0.1897  0.0281
  215loPI   C6A 3436  12.106   8.175   7.598 -0.2043 -0.2692 -0.0533
  215loPI   C1B 3437  12.419   7.895   9.801  0.3157  0.1058 -0.2646
  215loPI   C2B 3438  12.556   7.966   9.372  0.0092  0.0251  0.1538
  215loPI   C3B 3439  12.507   7.880   8.874  0.0229 -0.1125 -0.0399
  215loPI   C4B 3440  12.413   8.062   8.515 -0.1295  0.1088  0.2733
  216loPI    C1 3441  13.662  16.094  11.105 -0.2334 -0.1454 -0.2856
  216loPI    C2 3442  13.716  15.700  11.153  0.0909 -0.0764 -0.0510
  216loPI    C3 3443  13.801  15.952  11.453 -0.1982  0.1672 -0.1688
  216loPI   PO4 3444  13.445  16.123  11.048 -0.1609  0.0793  0.1680
  216loPI   GL1 3445  13.369  16.435  10.544 -0.0507 -0.2935  0.1779
  216loPI   GL2 3446  13.147  16.331  10.568 -0.1272 -0.0284  0.0487
  216loPI   C1A 3447  13.594  16.675  10.173 -0.1427 -0.1281  0.2327
  216loPI   C2A 3448  13.576  16.795   9.727  0.0691  0.2527  0.0479
  216loPI   C3A 3449  13.535  16.809   9.308  0.0808 -0.2382 -0.4212
  216loPI   C4A 3450  13.572  16.824   8.892 -0.0502  0.3178  0.0609
  216loPI   C5A 3451  13.372  16.740   8.479  0.2421  0.1006 -0.0587
  216loPI   C6A 3452  13.308  16.764   8.085  0.1202  0.1732 -0.1751
  216loPI   C1B 3453  13.323  16.159  10.163 -0.1103  0.0810  0.1077
  216loPI   C2B 3454  13.361  16.306   9.756  0.0373  0.0525  0.1441
  216loPI   C3B 3455  13.308  16.375   9.267  0.1790 -0.1732 -0.0807
  216loPI   C4B 3456  13.297  16.305   8.847 -0.2128  0.1500  0.3027
  217loPI    C1 3457   7.614  11.113  11.017 -0.0572 -0.0976  0.0515
  217loPI    C2 3458   7.986  11.101  11.163  0.0211  0.0429 -0.1330
  217loPI    C3 3459   7.704  10.864  11.317  0.1291  0.1053  0.1674
  217loPI   PO4 3460   7.680  11.136  10.727  0.1142  0.0205 -0.0593
  217loPI   GL1 3461   7.557  11.064  10.289 -0.1173  0.1978  0.0154
  217loPI   GL2 3462   7.706  11.277  10.217 -0.0969 -0.0442  0.0252
  217loPI   C1A 3463   7.655  10.939   9.859 -0.1467  0.0250 -0.1344
  217loPI   C2A 3464   7.759  10.994   9.451 -0.0283  0.0239  0.2608
  217loPI   C3A 3465   7.875  11.181   9.087 -0.1968 -0.0582  0.3373
  217loPI   C4A 3466   7.970  11.122   8.639 -0.2384 -0.0736 -0.0484
  217loPI   C5A 3467   8.079  11.101   8.212 -0.1072  0.0819 -0.1674
  217loPI   C6A 3468   8.311  10.791   7.988  0.0012  0.2777  0.1352
  217loPI   C1B 3469   7.804  11.459   9.800  0.2151  0.0860 -0.1296
  217loPI   C2B 3470   7.728  11.575   9.399 -0.3129 -0.3759  0.1551
  217loPI   C3B 3471   7.593  11.601   8.975  0.3457 -0.0140 -0.1424
  217loPI   C4B 3472   7.395  11.814   8.533 -0.1079 -0.0576 -0.1366
  218loPI    C1 3473  12.173   1.441  11.000  0.0231 -0.0347  0.0274
  218loPI    C2 3474  12.078   1.360  11.381 -0.1171  0.1082  0.0238
  218loPI    C3 3475  12.430   1.242  11.233 -0.0820  0.0099  0.1837
  218loPI   PO4 3476  11.969   1.328  10.892 -0.4130 -0.3067  0.0507
  218loPI   GL1 3477  11.981   1.120  10.429 -0.1263  0.0714 -0.3155
  218loPI   GL2 3478  11.679   0.905  10.364 -0.0009  0.0302 -0.2007
  218loPI   C1A 3479  12.179   1.066   9.986 -0.0947  0.0977 -0.2906
  218loPI   C2A 3480  12.163   1.014   9.519  0.0572 -0.3015  0.0911
  218loPI   C3A 3481  12.186   1.042   9.108 -0.1392  0.1479  0.0698
  218loPI   C4A 3482  12.211   1.129   8.702 -0.1809  0.0792 -0.0373
  218loPI   C5A 3483  12.042   1.128   8.302 -0.2091  0.0193  0.1616
  218loPI   C6A 3484  12.102   0.952   7.853  0.1003  0.3912  0.2076
  218loPI   C1B 3485  11.713   0.959   9.920 -0.1182  0.0599 -0.1286
  218loPI   C2B 3486  11.635   0.987   9.525  0.3794  0.1251  0.2306
  218loPI   C3B 3487  11.684   0.976   9.097  0.1398  0.0313 -0.0150
  218loPI   C4B 3488  11.612   1.028   8.632 -0.0084  0.0676 -0.1322
  219loPI    C1 3489  14.459  16.961  10.991 -0.3084 -0.0114 -0.1408
  219loPI    C2 3490  14.120  16.785  11.110 -0.1515 -0.1297  0.1418
  219loPI    C3 3491  14.212  17.152  11.241 -0.1022 -0.1556  0.1805
  219loPI   PO4 3492  14.408  16.931  10.650  0.2297 -0.0985  0.0977
  219loPI   GL1 3493  14.536  17.089  10.311  0.1685  0.0512  0.0479
  219loPI   GL2 3494  14.570  16.863  10.041 -0.0642  0.1376 -0.0522
  219loPI   C1A 3495  14.299  17.269   9.894 -0.0256  0.2017  0.1629
  219loPI   C2A 3496  14.296  17.392   9.487 -0.1110  0.2094 -0.1291
  219loPI   C3A 3497  14.251  17.356   9.032  0.1902 -0.1831  0.1103
  219loPI   C4A 3498  14.230  17.267   8.645 -0.1330  0.0866 -0.0008
  219loPI   C5A 3499  14.128  17.323   8.235  0.0043  0.0513  0.2352
  219loPI   C6A 3500  14.373  17.229   7.907 -0.0656  0.1241  0.1286
  219loPI   C1B 3501  14.588  16.958   9.635 -0.0542 -0.2546  0.0067
  219loPI   C2B 3502  14.494  16.945   9.209  0.1220  0.2418  0.0476
  219loPI   C3B 3503  14.498  16.834   8.711  0.0515 -0.0020  0.1450
  219loPI   C4B 3504  14.390  16.900   8.308  0.0399 -0.0896 -0.0754
  220loPI    C1 3505  12.435   9.590  10.437  0.0105  0.0172 -0.2632
  220loPI    C2 3506  12.070   9.593  10.274 -0.0712 -0.2224 -0.0913
  220loPI    C3 3507  12.129   9.756  10.634 -0.0222 -0.2427 -0.0902
  220loPI   PO4 3508  12.597   9.682  10.287 -0.3307  0.1123  0.1966
  220loPI   GL1 3509  12.485   9.700   9.873  0.1996  0.3817  0.1592
  220loPI   GL2 3510  12.098   9.667   9.718  0.2531  0.1439 -0.2480
  220loPI   C1A 3511  12.750   9.692   9.431 -0.2261  0.0301 -0.0917
  220loPI   C2A 3512  12.722   9.879   9.091  0.1779 -0.2974 -0.1321
  220loPI   C3A 3513  12.611   9.806   8.650  0.0493  0.1128  0.0717
  220loPI   C4A 3514  12.684   9.634   8.302  0.0092 -0.2820  0.1291
  220loPI   C5A 3515  12.687   9.521   7.807 -0.1123 -0.2251 -0.3137
  220loPI   C6A 3516  12.534   9.593   7.292 -0.3070  0.0883 -0.0477
  220loPI   C1B 3517  12.243   9.831   9.430  0.0347 -0.1794  0.0054
  220loPI   C2B 3518  12.157   9.775   9.031 -0.1104 -0.0959 -0.0665
  220loPI   C3B 3519  12.148   9.721   8.569  0.0156 -0.2449 -0.0486
  220loPI   C4B 3520  11.847   9.937   8.342  0.1378  0.1216  0.1196
  221loPI    C1 3521  14.943  18.241  11.221 -0.0615 -0.0762 -0.1342
  221loPI    C2 3522  14.823  17.873  11.321  0.1676 -0.1163  0.0001
  221loPI    C3 3523  14.938  18.129  11.605 -0.1928  0.1334 -0.0730
  221loPI   PO4 3524  14.851  18.285  11.051  0.2200  0.0284 -0.0379
  221loPI   GL1 3525  14.724  18.439  10.602  0.1963 -0.4156 -0.0404
  221loPI   GL2 3526  14.844  18.530  10.389 -0.1213  0.0539 -0.2372
  221loPI   C1A 3527  14.470  18.737  10.228 -0.0963  0.1647 -0.0448
  221loPI   C2A 3528  14.423  18.798   9.771  0.1665  0.1685  0.0379
  221loPI   C3A 3529  14.400  18.733   9.263  0.2300  0.3822 -0.0846
  221loPI   C4A 3530  14.384  18.675   8.780  0.0596 -0.0608  0.2512
  221loPI   C5A 3531  14.127  18.665   8.406  0.0381 -0.1951 -0.1285
  221loPI   C6A 3532  13.778  18.711   8.166  0.0736  0.1865 -0.4014
  221loPI   C1B 3533  14.761  18.437   9.929 -0.0819  0.1804  0.3598
  221loPI   C2B 3534  14.602  18.374   9.583  0.0433 -0.3718  0.1538
  221loPI   C3B 3535  14.631  18.298   9.156  0.3873  0.1301  0.0887
  221loPI   C4B 3536  14.656  18.235   8.739 -0.3752  0.2458  0.1069
  222loPI    C1 3537  16.368   1.350  10.983  0.0236 -0.1950  0.0199
  222loPI    C2 3538  16.138   1.628  11.155  0.1054 -0.0341 -0.1279
  222loPI    C3 3539  16.536   1.662  11.167  0.1168 -0.1720 -0.1029
  222loPI   PO4 3540  16.313   1.368  10.768 -0.1002  0.0094 -0.1724
  222loPI   GL1 3541  16.520   1.202  10.439  0.2428 -0.1128 -0.2318
  222loPI   GL2 3542  16.730   1.502  10.207 -0.0632  0.0496  0.2112
  222loPI   C1A 3543  16.565   0.849  10.103 -0.1506 -0.0651 -0.0001
  222loPI   C2A 3544  16.432   0.763   9.716 -0.1801  0.3008  0.1206
  222loPI   C3A 3545  16.341   0.683   9.276 -0.0826  0.2190 -0.1984
  222loPI   C4A 3546  16.407   0.703   8.856 -0.1008  0.0341 -0.3838
  222loPI   C5A 3547  16.358   0.644   8.408  0.2459 -0.4124 -0.2467
  222loPI   C6A 3548  16.598   0.301   8.130 -0.0529 -0.0348 -0.1149
  222loPI   C1B 3549  16.686   1.270   9.851  0.0384  0.2142  0.0256
  222loPI   C2B 3550  16.565   1.194   9.436  0.1734 -0.2751  0.1590
  222loPI   C3B 3551  16.566   1.228   8.996 -0.1286 -0.0955  0.1629
  222loPI   C4B 3552  16.618   1.118   8.530 -0.1535  0.4510  0.0086
  223loPI    C1 3553  17.591   9.075  10.654  0.0528  0.0523 -0.0386
  223loPI    C2 3554  17.286   8.859  10.797  0.0379  0.0336 -0.0980
  223loPI    C3 3555  17.525   9.060  11.048  0.0098  0.0042 -0.0476
  223loPI   PO4 3556  17.683   8.926  10.509 -0.0385  0.3634 -0.1523
  223loPI   GL1 3557  17.686   8.695  10.156 -0.1562 -0.1396 -0.0423
  223loPI   GL2 3558  18.080   8.769  10.106 -0.0697 -0.0255  0.3090
  223loPI   C1A 3559  17.567   8.645   9.749  0.0042 -0.1003 -0.0821
  223loPI   C2A 3560  17.636   8.583   9.278  0.0749 -0.1328  0.2565
  223loPI   C3A 3561  17.646   8.533   8.788 -0.3031 -0.1537  0.0571
  223loPI   C4A 3562  17.708   8.626   8.398 -0.1417 -0.0119 -0.1432
  223loPI   C5A 3563  17.472   8.512   8.063 -0.1656  0.1236 -0.0129
  223loPI   C6A 3564  17.078   8.427   7.991  0.1773  0.0940 -0.1169
  223loPI   C1B 3565  18.027   8.797   9.675 -0.3809 -0.0928  0.0638
  223loPI   C2B 3566  17.898   8.997   9.310  0.0120 -0.1999 -0.1909
  223loPI   C3B 3567  17.982   9.023   8.993  0.0020 -0.1603  0.2471
  223loPI   C4B 3568  17.840   9.207   8.689 -0.2079 -0.0983  0.0781
  224loPI    C1 3569   5.819   2.362  11.536 -0.0338  0.0341 -0.0592
  224loPI    C2 3570   5.540   2.601  11.378 -0.0323  0.0494 -0.0388
  224loPI    C3 3571   5.439   2.333  11.656  0.0206  0.2440  0.1717
  224loPI   PO4 3572   5.932   2.323  11.320 -0.0600 -0.1491 -0.3102
  224loPI   GL1 3573   5.966   2.260  10.890  0.2172  0.3843  0.1155
  224loPI   GL2 3574   6.064   1.975  10.797  0.0772 -0.1443 -0.1131
  224loPI   C1A 3575   6.250   2.362  10.460 -0.2069 -0.0724 -0.3598
  224loPI   C2A 3576   6.256   2.154   9.975 -0.2489 -0.0672 -0.0554
  224loPI   C3A 3577   6.324   2.030   9.516  0.0800 -0.3734 -0.0476
  224loPI   C4A 3578   6.263   2.100   9.168 -0.1678 -0.0023  0.1327
  224loPI   C5A 3579   6.309   2.022   8.690 -0.2320  0.1534 -0.1184
  224loPI   C6A 3580   6.153   1.877   8.355 -0.0600 -0.0309  0.2418
  224loPI   C1B 3581   5.815   2.116  10.358  0.1046 -0.0162 -0.2349
  224loPI   C2B 3582   5.727   2.048   9.948  0.1046 -0.3042  0.0128
  224loPI   C3B 3583   5.797   2.051   9.531 -0.1230  0.0462 -0.1251
  224loPI   C4B 3584   5.723   1.961   9.009 -0.2243  0.1887  0.0943
  225loPI    C1 3585  13.207   6.724  11.191  0.1507  0.0011 -0.0151
  225loPI    C2 3586  12.934   6.557  11.432  0.1191  0.0540 -0.0141
  225loPI    C3 3587  13.087   6.916  11.521  0.2020  0.0167 -0.0055
  225loPI   PO4 3588  13.150   6.731  10.957  0.0008 -0.0625 -0.1912
  225loPI   GL1 3589  13.102   6.632  10.528  0.1244 -0.3846  0.1708
  225loPI   GL2 3590  13.342   6.615  10.531  0.1032 -0.0153  0.0408
  225loPI   C1A 3591  13.008   6.593  10.076  0.2064 -0.5154 -0.1753
  225loPI   C2A 3592  12.993   6.551   9.620  0.2866 -0.1893 -0.0880
  225loPI   C3A 3593  12.944   6.552   9.142  0.2215 -0.1530 -0.0767
  225loPI   C4A 3594  13.083   6.534   8.707 -0.2581 -0.1449 -0.1841
  225loPI   C5A 3595  13.016   6.658   8.330 -0.0836 -0.4457  0.2971
  225loPI   C6A 3596  12.939   7.030   8.054  0.0714  0.0127  0.0842
  225loPI   C1B 3597  13.464   6.649  10.110 -0.0956 -0.2869 -0.1038
  225loPI   C2B 3598  13.489   6.667   9.611  0.1748  0.0420  0.1306
  225loPI   C3B 3599  13.448   6.693   9.103 -0.0006 -0.2093  0.1888
  225loPI   C4B 3600  13.420   6.885   8.695  0.0366 -0.1308  0.2101
  226loPI    C1 3601   0.763   2.336  10.399 -0.1404  0.0153  0.0238
  226loPI    C2 3602   1.000   2.197  10.690  0.0153  0.3560  0.0639
  226loPI    C3 3603   0.605   2.137  10.708  0.0982 -0.2844 -0.0421
  226loPI   PO4 3604   0.878   2.272  10.161  0.0130  0.2225  0.0470
  226loPI   GL1 3605   0.919   2.341   9.749  0.2217  0.1418 -0.1101
  226loPI   GL2 3606   1.268   2.248   9.819  0.0620 -0.3566 -0.1059
  226loPI   C1A 3607   0.959   2.418   9.343  0.0289  0.2639  0.2212
  226loPI   C2A 3608   0.783   2.368   8.913 -0.0090 -0.0713  0.0866
  226loPI   C3A 3609   0.856   2.445   8.476  0.3775 -0.3148  0.4481
  226loPI   C4A 3610   1.003   2.852   8.291 -0.2687 -0.0326 -0.1240
  226loPI   C5A 3611   0.630   3.020   8.013  0.2561 -0.2938 -0.3417
  226loPI   C6A 3612   0.741   3.328   7.693 -0.1671 -0.4826  0.0362
  226loPI   C1B 3613   1.459   2.357   9.416  0.0710 -0.0793 -0.3470
  226loPI   C2B 3614   1.356   2.410   9.024 -0.1057 -0.1128  0.0701
  226loPI   C3B 3615   1.150   2.059   8.743 -0.2813  0.2778 -0.1124
  226loPI   C4B 3616   0.751   1.896   8.650 -0.0089 -0.0444 -0.0051
  227loPI    C1 3617  16.136   5.632  10.794  0.1661 -0.0042 -0.0477
  227loPI    C2 3618  16.239   5.784  11.150  0.0875 -0.2290  0.0734
  227loPI    C3 3619  15.966   5.492  11.128 -0.0297 -0.1036 -0.1870
  227loPI   PO4 3620  16.042   5.946  10.731  0.1617 -0.3180  0.1086
  227loPI   GL1 3621  15.898   6.114  10.337 -0.1745  0.1129  0.2774
  227loPI   GL2 3622  15.743   5.847  10.350 -0.0325 -0.0886  0.1533
  227loPI   C1A 3623  15.878   6.058   9.878  0.2363  0.0475  0.0578
  227loPI   C2A 3624  15.689   6.012   9.415 -0.0833 -0.1596 -0.1084
  227loPI   C3A 3625  15.663   6.031   8.914  0.2230  0.3181  0.1085
  227loPI   C4A 3626  15.616   5.983   8.424  0.0520 -0.1791 -0.1828
  227loPI   C5A 3627  15.523   5.737   8.113  0.1682 -0.1822  0.1108
  227loPI   C6A 3628  15.483   5.595   7.776 -0.0273 -0.2821 -0.4064
  227loPI   C1B 3629  15.658   5.525   9.956  0.0614 -0.0663 -0.1324
  227loPI   C2B 3630  15.602   5.507   9.547  0.0042 -0.0035  0.3446
  227loPI   C3B 3631  15.487   5.562   9.094 -0.1775  0.1415  0.1922
  227loPI   C4B 3632  15.439   5.554   8.644 -0.0936 -0.1726 -0.1548
  228loPI    C1 3633   7.444  10.064  10.771  0.4081  0.0655 -0.0216
  228loPI    C2 3634   7.133  10.289  10.884  0.3261 -0.0190 -0.0776
  228loPI    C3 3635   7.221   9.954  11.085  0.3794  0.0033 -0.0636
  228loPI   PO4 3636   7.536  10.193  10.501 -0.0854  0.1888 -0.0430
  228loPI   GL1 3637   7.607  10.500  10.287  0.0641  0.0606  0.0705
  228loPI   GL2 3638   7.770  10.448  10.018  0.2140 -0.2605 -0.1198
  228loPI   C1A 3639   7.317  10.655  10.041 -0.1112 -0.0268 -0.3231
  228loPI   C2A 3640   7.333  10.688   9.654  0.1856 -0.0049 -0.0444
  228loPI   C3A 3641   7.112  10.811   9.305  0.1738 -0.1147 -0.1286
  228loPI   C4A 3642   6.910  10.760   8.948 -0.1490 -0.0527 -0.0456
  228loPI   C5A 3643   6.737  10.737   8.514 -0.1222  0.0458  0.1163
  228loPI   C6A 3644   6.483  10.449   8.225 -0.0100  0.0441 -0.2210
  228loPI   C1B 3645   7.987  10.599   9.662 -0.2754  0.0858 -0.1305
  228loPI   C2B 3646   8.303  10.729   9.366 -0.0449 -0.1021 -0.1362
  228loPI   C3B 3647   8.357  11.022   8.994  0.0155 -0.1695  0.0214
  228loPI   C4B 3648   8.473  11.384   8.752  0.4060  0.0737  0.0392
  229loPI    C1 3649   8.335   8.778  10.386 -0.0965  0.0257  0.1398
  229loPI    C2 3650   8.514   8.579  10.684 -0.0232 -0.0420  0.0513
  229loPI    C3 3651   8.427   8.968  10.726  0.1796  0.0012  0.0813
  229loPI   PO4 3652   8.453   8.760  10.112 -0.0533 -0.0169  0.1158
  229loPI   GL1 3653   8.310   8.618   9.689  0.1200  0.1564 -0.2139
  229loPI   GL2 3654   8.184   8.377   9.594 -0.0221  0.1964  0.0839
  229loPI   C1A 3655   8.425   8.752   9.339  0.2038  0.1173 -0.1628
  229loPI   C2A 3656   8.439   8.718   8.933 -0.1787 -0.1209  0.0340
  229loPI   C3A 3657   8.300   8.755   8.504  0.1081  0.2315  0.0539
  229loPI   C4A 3658   8.363   8.666   8.044  0.0709 -0.4201 -0.2375
  229loPI   C5A 3659   8.477   8.431   7.723  0.0158  0.1598  0.0316
  229loPI   C6A 3660   8.699   8.162   7.389  0.1266  0.1926 -0.2992
  229loPI   C1B 3661   8.238   8.282   9.169  0.0857  0.2099  0.1269
  229loPI   C2B 3662   8.299   8.210   8.712  0.1570  0.1980  0.0853
  229loPI   C3B 3663   8.490   8.262   8.250  0.1882  0.0231 -0.1274
  229loPI   C4B 3664   8.883   8.141   7.938 -0.2866  0.0039  0.3614
  230loPI    C1 3665  10.443   9.942  10.258 -0.1461  0.3082  0.0835
  230loPI    C2 3666  10.521   9.963  10.649 -0.3262  0.3057  0.1204
  230loPI    C3 3667  10.401  10.289  10.451  0.0073  0.3671  0.0129
  230loPI   PO4 3668  10.629   9.775  10.120  0.1074 -0.1346 -0.1448
  230loPI   GL1 3669  10.606   9.601   9.733  0.1757  0.0013  0.1417
  230loPI   GL2 3670  10.294   9.768   9.793  0.0002 -0.1540  0.1694
  230loPI   C1A 3671  10.407   9.415   9.394 -0.2198 -0.2158  0.0211
  230loPI   C2A 3672  10.440   9.174   9.135 -0.0614 -0.1346  0.2194
  230loPI   C3A 3673  10.600   8.773   8.958  0.2434 -0.0137 -0.0248
  230loPI   C4A 3674  10.645   8.631   8.642 -0.2720 -0.0697 -0.0657
  230loPI   C5A 3675  10.633   8.571   8.217 -0.0939  0.1004 -0.0955
  230loPI   C6A 3676  10.163   8.539   8.227 -0.1210 -0.2352  0.1084
  230loPI   C1B 3677  10.100   9.795   9.360 -0.1071 -0.0841  0.1460
  230loPI   C2B 3678   9.901   9.753   8.830  0.2212  0.2748  0.0522
  230loPI   C3B 3679   9.870   9.602   8.413 -0.0040 -0.3117  0.3667
  230loPI   C4B 3680   9.680   9.473   8.049 -0.5100 -0.0873  0.1640
  231loPI    C1 3681  11.805   7.818  11.207 -0.3635  0.0905 -0.0807
  231loPI    C2 3682  11.723   8.074  11.503  0.1646 -0.1941  0.3297
  231loPI    C3 3683  11.569   7.705  11.510 -0.0771 -0.1016  0.0757
  231loPI   PO4 3684  11.641   7.875  10.890  0.1354  0.2647  0.0705
  231loPI   GL1 3685  11.575   7.787  10.487 -0.2860 -0.0911 -0.1760
  231loPI   GL2 3686  11.221   7.823  10.531  0.0403  0.0036 -0.1244
  231loPI   C1A 3687  11.773   7.625  10.015  0.3168 -0.1436 -0.0323
  231loPI   C2A 3688  11.896   7.692   9.660 -0.3712  0.3232  0.1812
  231loPI   C3A 3689  12.080   7.771   9.205 -0.1685  0.2176 -0.0294
  231loPI   C4A 3690  12.040   7.886   8.747 -0.0209 -0.0225  0.0975
  231loPI   C5A 3691  11.976   7.858   8.250 -0.0106 -0.1859  0.1078
  231loPI   C6A 3692  12.350   7.740   7.890 -0.2444 -0.0439 -0.0003
  231loPI   C1B 3693  11.210   7.604  10.137 -0.0184  0.2440 -0.2763
  231loPI   C2B 3694  11.385   7.385   9.847  0.1102  0.1941 -0.0281
  231loPI   C3B 3695  11.337   7.274   9.454  0.1368  0.0883 -0.1220
  231loPI   C4B 3696  11.344   7.217   8.987 -0.0767  0.1700 -0.2174
  232loPI    C1 3697   8.259  15.643  10.851  0.4547 -0.4254  0.2091
  232loPI    C2 3698   8.051  15.534  11.174 -0.1900 -0.0971 -0.0745
  232loPI    C3 3699   8.271  15.867  11.182  0.1117 -0.2963  0.1395
  232loPI   PO4 3700   8.187  15.428  10.691  0.0396 -0.1971  0.0426
  232loPI   GL1 3701   8.118  15.530  10.315  0.4568  0.1754 -0.0456
  232loPI   GL2 3702   8.223  15.760  10.268 -0.0673 -0.2268 -0.0674
  232loPI   C1A 3703   7.989  15.572   9.816 -0.1862 -0.1947 -0.0192
  232loPI   C2A 3704   8.199  15.645   9.373 -0.0193 -0.0389  0.0686
  232loPI   C3A 3705   8.195  15.646   8.999  0.2277 -0.0706  0.0622
  232loPI   C4A 3706   8.435  15.475   8.549  0.1730  0.0633 -0.1425
  232loPI   C5A 3707   8.648  15.205   8.220 -0.0096 -0.1321  0.0960
  232loPI   C6A 3708   8.538  15.221   7.786  0.4416  0.0237 -0.1061
  232loPI   C1B 3709   8.305  16.044   9.903  0.2685 -0.4812  0.0757
  232loPI   C2B 3710   8.405  16.106   9.449  0.0239 -0.0783  0.2617
  232loPI   C3B 3711   8.398  16.235   9.133 -0.0313  0.3008 -0.0752
  232loPI   C4B 3712   8.360  16.068   8.805 -0.1995 -0.1798 -0.1627
  233loPI    C1 3713   9.981   8.050  10.650 -0.2425 -0.0568 -0.2353
  233loPI    C2 3714  10.234   7.783  10.807 -0.1023 -0.0646 -0.4699
  233loPI    C3 3715  10.004   8.005  11.047  0.0995 -0.0841 -0.2548
  233loPI   PO4 3716   9.860   7.916  10.496  0.1236  0.2603 -0.0728
  233loPI   GL1 3717   9.691   7.765  10.200  0.2738  0.2838  0.0566
  233loPI   GL2 3718   9.276   7.677  10.140  0.2557  0.1569 -0.1302
  233loPI   C1A 3719   9.912   7.459   9.925  0.3422 -0.2933 -0.0322
  233loPI   C2A 3720  10.377   7.583   9.730  0.1194  0.1573  0.0312
  233loPI   C3A 3721  10.299   7.599   9.244 -0.0470 -0.2578  0.2962
  233loPI   C4A 3722  10.233   7.918   8.842  0.0990  0.2732 -0.1696
  233loPI   C5A 3723  10.182   8.359   8.658  0.1583  0.2624  0.0737
  233loPI   C6A 3724   9.837   8.153   8.325  0.1815  0.1788  0.1295
  233loPI   C1B 3725   9.294   7.537   9.719  0.2344  0.2265 -0.2618
  233loPI   C2B 3726   9.369   7.669   9.281 -0.0588  0.1056 -0.3118
  233loPI   C3B 3727   9.340   7.570   8.921  0.1387 -0.2135  0.0664
  233loPI   C4B 3728   9.288   7.539   8.546  0.0340 -0.0458  0.0762
  234loPI    C1 3729   7.986   3.865  10.870  0.0100  0.0799 -0.0972
  234loPI    C2 3730   8.365   3.990  10.896 -0.0607  0.2292  0.2888
  234loPI    C3 3731   8.249   3.660  11.091 -0.1110  0.1321  0.0975
  234loPI   PO4 3732   7.942   4.021  10.625 -0.1395  0.2010  0.1670
  234loPI   GL1 3733   7.908   4.183  10.214 -0.3062  0.0216 -0.1912
  234loPI   GL2 3734   7.641   4.124  10.211 -0.0017  0.3416  0.0052
  234loPI   C1A 3735   8.150   4.116   9.812  0.1467  0.2269 -0.0857
  234loPI   C2A 3736   8.037   4.079   9.313  0.3590 -0.2851 -0.3356
  234loPI   C3A 3737   8.100   4.198   8.878  0.0910  0.1478  0.1830
  234loPI   C4A 3738   8.034   4.312   8.427 -0.0759  0.0683 -0.1160
  234loPI   C5A 3739   7.801   4.096   8.036 -0.3017  0.1549  0.1179
  234loPI   C6A 3740   7.791   4.232   7.636  0.0068  0.0171  0.2575
  234loPI   C1B 3741   7.674   4.152   9.726 -0.1203 -0.0860  0.3951
  234loPI   C2B 3742   7.541   4.045   9.256  0.1272 -0.0547 -0.2229
  234loPI   C3B 3743   7.482   4.038   8.864 -0.0842  0.0823  0.1689
  234loPI   C4B 3744   7.451   4.123   8.407  0.1352  0.1877 -0.1772
  235loPI    C1 3745   5.863   2.840  11.112  0.0933 -0.0020 -0.0711
  235loPI    C2 3746   6.026   3.165  11.279 -0.1834  0.1318 -0.0560
  235loPI    C3 3747   6.026   2.816  11.476  0.2667  0.0780 -0.1426
  235loPI   PO4 3748   5.913   2.889  10.858  0.1850 -0.0580  0.3889
  235loPI   GL1 3749   5.945   2.988  10.553 -0.2356 -0.1892  0.2014
  235loPI   GL2 3750   5.834   3.266  10.472 -0.0028  0.2184  0.3289
  235loPI   C1A 3751   5.965   2.654  10.138 -0.0286  0.2566 -0.0019
  235loPI   C2A 3752   5.967   2.505   9.658 -0.2832  0.0373 -0.0795
  235loPI   C3A 3753   5.978   2.526   9.143 -0.0416 -0.0038  0.0697
  235loPI   C4A 3754   5.923   2.354   8.711 -0.0052  0.0418  0.1505
  235loPI   C5A 3755   5.703   2.094   8.497  0.2238  0.0612 -0.1147
  235loPI   C6A 3756   5.454   2.113   8.242  0.1138 -0.0908  0.2763
  235loPI   C1B 3757   5.922   3.406  10.026  0.3085 -0.0232 -0.0907
  235loPI   C2B 3758   5.842   3.315   9.651  0.1939 -0.1308  0.0714
  235loPI   C3B 3759   5.904   3.249   9.178  0.0037 -0.1527  0.0708
  235loPI   C4B 3760   5.697   3.434   8.742  0.0827 -0.0581  0.1669
  236loPI    C1 3761  17.666  18.234  10.975 -0.0572 -0.0734 -0.0789
  236loPI    C2 3762  17.771  18.571  11.163 -0.1117 -0.1054  0.0096
  236loPI    C3 3763  18.053  18.318  11.033 -0.0589  0.1213 -0.3308
  236loPI   PO4 3764  17.441  18.331  10.804 -0.4680 -0.1703  0.0205
  236loPI   GL1 3765  17.531  18.453  10.345 -0.2333 -0.1976 -0.0169
  236loPI   GL2 3766  17.237  18.374  10.098 -0.0291  0.0183  0.0727
  236loPI   C1A 3767  17.645  18.365   9.827 -0.1503  0.2765  0.0638
  236loPI   C2A 3768  17.616  18.412   9.403  0.2118  0.1781  0.0727
  236loPI   C3A 3769  17.603  18.369   9.048 -0.0246  0.1946 -0.2013
  236loPI   C4A 3770  17.506  18.269   8.622 -0.2273 -0.0684  0.4462
  236loPI   C5A 3771  17.357  18.044   8.237 -0.0733 -0.1476 -0.0322
  236loPI   C6A 3772  17.055  17.738   7.927  0.0956 -0.0971 -0.0727
  236loPI   C1B 3773  17.091  18.308   9.592 -0.2673  0.0841  0.2651
  236loPI   C2B 3774  17.025  18.262   9.200  0.2155  0.2843  0.1676
  236loPI   C3B 3775  17.024  18.127   8.750 -0.0081  0.3051  0.1795
  236loPI   C4B 3776  16.865  18.149   8.354  0.0113  0.2550 -0.1321
  237loPI    C1 3777   0.277   4.929  10.956  0.1050  0.2369  0.1734
  237loPI    C2 3778   0.192   4.917  11.347  0.3171  0.0886  0.2166
  237loPI    C3 3779   0.280   5.266  11.172  0.1361  0.1680  0.2812
  237loPI   PO4 3780   0.108   4.810  10.823  0.1863 -0.0062 -0.3966
  237loPI   GL1 3781   0.084   4.435  10.362  0.2644  0.0100 -0.0493
  237loPI   GL2 3782  -0.196   4.679  10.299  0.2903  0.2813 -0.1349
  237loPI   C1A 3783   0.186   4.346   9.939 -0.0557 -0.0849  0.3951
  237loPI   C2A 3784   0.148   4.314   9.526 -0.0845 -0.1601 -0.0735
  237loPI   C3A 3785   0.107   4.334   9.084 -0.0649 -0.1125 -0.1711
  237loPI   C4A 3786   0.197   4.137   8.723 -0.1469  0.0140 -0.1313
  237loPI   C5A 3787   0.142   4.271   8.298 -0.0289  0.2423  0.2266
  237loPI   C6A 3788   0.287   4.072   7.949 -0.0412 -0.0034 -0.0345
  237loPI   C1B 3789  -0.195   4.706   9.822 -0.0536 -0.2091  0.0965
  237loPI   C2B 3790  -0.152   4.713   9.356  0.1387 -0.1912  0.2292
  237loPI   C3B 3791  -0.339   4.637   8.923  0.0690 -0.0031 -0.2457
  237loPI   C4B 3792  -0.196   4.515   8.625  0.1784 -0.2799 -0.0463
  238loPI    C1 3793  14.140  11.460  10.890  0.0646 -0.0821 -0.1388
  238loPI    C2 3794  14.112  11.088  11.032 -0.3760  0.0490  0.1365
  238loPI    C3 3795  14.368  11.347  11.198 -0.1058 -0.1124 -0.0223
  238loPI   PO4 3796  14.137  11.467  10.619 -0.0951  0.2592  0.0727
  238loPI   GL1 3797  14.266  11.763  10.369 -0.0208  0.0519 -0.0662
  238loPI   GL2 3798  14.062  11.705  10.163 -0.3102 -0.2650 -0.1712
  238loPI   C1A 3799  14.546  11.782   9.975 -0.1225 -0.0261  0.3074
  238loPI   C2A 3800  14.565  11.863   9.504 -0.1418  0.1339  0.1476
  238loPI   C3A 3801  14.484  11.903   9.074 -0.0135  0.0049 -0.1228
  238loPI   C4A 3802  14.522  11.870   8.596  0.3033 -0.1120 -0.2073
  238loPI   C5A 3803  14.462  11.974   8.148  0.0461 -0.1484 -0.4898
  238loPI   C6A 3804  14.409  11.830   7.709  0.4263 -0.0385 -0.2646
  238loPI   C1B 3805  14.109  11.749   9.770  0.0385 -0.0496  0.0956
  238loPI   C2B 3806  14.033  11.820   9.330  0.2396 -0.1922 -0.1290
  238loPI   C3B 3807  13.997  11.739   8.961 -0.1140 -0.1392  0.2212
  238loPI   C4B 3808  13.955  11.855   8.567 -0.1480 -0.1340 -0.3375
  239loPI    C1 3809  14.246  15.130  11.210 -0.0383  0.0065  0.1428
  239loPI    C2 3810  14.476  14.861  11.397 -0.0340 -0.0444  0.0649
  239loPI    C3 3811  14.134  14.983  11.564 -0.0653 -0.1427  0.0734
  239loPI   PO4 3812  14.165  15.004  10.967  0.1672 -0.0257 -0.0411
  239loPI   GL1 3813  14.311  14.984  10.538  0.0947  0.1116 -0.1125
  239loPI   GL2 3814  14.003  15.005  10.480 -0.2076 -0.3608  0.0863
  239loPI   C1A 3815  14.410  15.002  10.101  0.0047 -0.0237  0.0991
  239loPI   C2A 3816  14.307  14.996   9.693 -0.1841  0.0733 -0.1662
  239loPI   C3A 3817  14.342  15.045   9.283  0.1025  0.0973 -0.1510
  239loPI   C4A 3818  14.347  15.104   8.833 -0.0626 -0.4267  0.0565
  239loPI   C5A 3819  14.208  15.126   8.426  0.0707  0.2096  0.3837
  239loPI   C6A 3820  14.110  15.554   8.097  0.2974  0.1282 -0.1973
  239loPI   C1B 3821  13.767  14.873  10.101  0.1010 -0.2045 -0.0212
  239loPI   C2B 3822  13.856  14.909   9.675  0.2581 -0.0695  0.0942
  239loPI   C3B 3823  13.753  15.024   9.227  0.0960 -0.2022 -0.0528
  239loPI   C4B 3824  13.814  15.041   8.784  0.1033  0.2141 -0.0260
  240loPI    C1 3825  10.408  12.915  10.930  0.0779 -0.0409 -0.0036
  240loPI    C2 3826  10.116  12.663  11.036  0.1318 -0.1013  0.0018
  240loPI    C3 3827  10.225  12.958  11.283  0.1536 -0.1491  0.0495
  240loPI   PO4 3828  10.410  12.886  10.660 -0.0963  0.1940 -0.1949
  240loPI   GL1 3829  10.490  13.043  10.227  0.0844 -0.1043 -0.1883
  240loPI   GL2 3830  10.149  13.204  10.332 -0.0634  0.0802 -0.0321
  240loPI   C1A 3831  10.529  13.137   9.875 -0.1948 -0.2142 -0.2299
  240loPI   C2A 3832  10.651  13.178   9.487  0.0543  0.0233  0.0720
  240loPI   C3A 3833  10.620  13.113   9.010  0.0986  0.0730  0.0880
  240loPI   C4A 3834  10.748  13.209   8.542  0.1478 -0.0755  0.1317
  240loPI   C5A 3835  10.949  13.276   8.139  0.2073  0.0085 -0.2371
  240loPI   C6A 3836  10.819  13.325   7.703 -0.0732  0.0369  0.0794
  240loPI   C1B 3837   9.987  13.023   9.915  0.1238 -0.0198 -0.4126
  240loPI   C2B 3838  10.149  13.007   9.458 -0.0931 -0.2019  0.1723
  240loPI   C3B 3839  10.058  13.040   9.058 -0.3088  0.0193  0.2069
  240loPI   C4B 3840  10.268  13.033   8.574  0.0373 -0.0192  0.0720
  241loPI    C1 3841   2.233   7.130  10.134  0.0911  0.1055 -0.0535
  241loPI    C2 3842   2.421   6.989  10.458 -0.1457  0.1068  0.0867
  241loPI    C3 3843   2.415   7.383  10.385 -0.0635  0.1037  0.0621
  241loPI   PO4 3844   2.412   6.963   9.982 -0.0270  0.0964  0.4051
  241loPI   GL1 3845   2.727   6.722   9.719  0.4392  0.0821 -0.0414
  241loPI   GL2 3846   2.721   7.019   9.601 -0.3556 -0.1111 -0.1767
  241loPI   C1A 3847   2.466   6.722   9.309 -0.4402 -0.1904  0.0635
  241loPI   C2A 3848   2.269   6.706   8.944 -0.2482  0.0998 -0.0197
  241loPI   C3A 3849   2.380   6.653   8.563 -0.0323  0.2390  0.2550
  241loPI   C4A 3850   2.589   6.390   8.196 -0.2372 -0.0203 -0.1447
  241loPI   C5A 3851   2.956   6.247   7.956 -0.1196  0.1109  0.0823
  241loPI   C6A 3852   3.391   6.250   7.850  0.0251  0.1470  0.0107
  241loPI   C1B 3853   2.979   7.224   9.384  0.0060  0.1512 -0.0951
  241loPI   C2B 3854   2.964   7.372   8.949 -0.0643 -0.1721  0.1186
  241loPI   C3B 3855   2.838   7.525   8.547  0.0245 -0.1451 -0.3675
  241loPI   C4B 3856   2.624   7.649   8.242  0.2173  0.1082 -0.2309
  242loPI    C1 3857   7.013   7.471  10.874 -0.1840  0.2700 -0.0779
  242loPI    C2 3858   7.049   7.178  11.143  0.1086  0.1118 -0.2845
  242loPI    C3 3859   7.067   7.559  11.260  0.2160  0.0445 -0.0777
  242loPI   PO4 3860   7.175   7.412  10.738 -0.1316 -0.0767  0.5547
  242loPI   GL1 3861   7.304   7.505  10.281  0.1185  0.2157  0.2435
  242loPI   GL2 3862   7.037   7.265  10.283  0.0374 -0.1374  0.2109
  242loPI   C1A 3863   7.301   7.401   9.849  0.2734  0.2124  0.2370
  242loPI   C2A 3864   7.315   7.311   9.411  0.1043  0.0367 -0.0587
  242loPI   C3A 3865   7.396   7.320   9.017 -0.1592  0.0016 -0.1096
  242loPI   C4A 3866   7.367   7.236   8.626 -0.3032  0.0279  0.0862
  242loPI   C5A 3867   7.368   7.252   8.174  0.3259 -0.1941  0.1682
  242loPI   C6A 3868   7.436   7.537   7.761 -0.1313  0.2811  0.1782
  242loPI   C1B 3869   7.141   6.950   9.981 -0.0455  0.2860  0.0397
  242loPI   C2B 3870   7.137   6.867   9.601 -0.3600  0.0199  0.0516
  242loPI   C3B 3871   7.078   6.784   9.172  0.1523  0.0298  0.2118
  242loPI   C4B 3872   7.197   6.623   8.781  0.2780 -0.3871  0.2080
  243loPI    C1 3873  16.656  11.216  10.696 -0.0818  0.0165 -0.1589
  243loPI    C2 3874  16.825  11.037  11.011  0.2348  0.6447  0.0465
  243loPI    C3 3875  16.427  11.038  10.971  0.2119  0.1835  0.2028
  243loPI   PO4 3876  16.812  11.148  10.483 -0.0698 -0.1724  0.0040
  243loPI   GL1 3877  16.700  11.207  10.107 -0.1724 -0.2420 -0.1221
  243loPI   GL2 3878  16.442  11.029   9.998  0.3869  0.1091  0.1881
  243loPI   C1A 3879  16.806  11.273   9.630  0.2759 -0.1085 -0.3680
  243loPI   C2A 3880  16.737  11.200   9.237 -0.1390 -0.2018 -0.2241
  243loPI   C3A 3881  16.613  11.340   8.848 -0.2018  0.2028 -0.0314
  243loPI   C4A 3882  16.603  11.408   8.422 -0.0169  0.0632  0.1083
  243loPI   C5A 3883  16.741  11.320   8.068  0.1211  0.1577  0.0991
  243loPI   C6A 3884  17.233  11.184   8.036  0.3217 -0.0901 -0.2155
  243loPI   C1B 3885  16.276  11.102   9.557 -0.1741  0.1643 -0.0803
  243loPI   C2B 3886  16.254  11.236   9.191 -0.3034  0.4339 -0.1315
  243loPI   C3B 3887  16.120  11.276   8.814 -0.0552  0.1812 -0.0133
  243loPI   C4B 3888  16.132  11.247   8.419  0.0260  0.0440  0.0624
  244loPI    C1 3889   2.200   0.218  10.400  0.0989  0.0302  0.0443
  244loPI    C2 3890   2.405   0.231  10.743  0.0699 -0.0188  0.0636
  244loPI    C3 3891   2.144   0.520  10.655 -0.0368 -0.0867  0.1545
  244loPI   PO4 3892   2.340   0.164  10.188  0.0283 -0.0369 -0.1131
  244loPI   GL1 3893   2.428  -0.134   9.916  0.0734  0.1440  0.0930
  244loPI   GL2 3894   2.130  -0.199   9.778 -0.0046 -0.0557  0.2092
  244loPI   C1A 3895   2.513   0.053   9.571 -0.1106  0.1617  0.1282
  244loPI   C2A 3896   2.547   0.119   9.088  0.0953 -0.0277  0.1073
  244loPI   C3A 3897   2.364   0.294   8.781 -0.2042 -0.0178 -0.2422
  244loPI   C4A 3898   2.292   0.471   8.375  0.0599 -0.3759  0.0563
  244loPI   C5A 3899   2.095   0.952   8.268  0.0895 -0.1171  0.2552
  244loPI   C6A 3900   2.187   1.427   8.236  0.0748 -0.1948 -0.1109
  244loPI   C1B 3901   1.986  -0.012   9.473 -0.1255 -0.2324  0.1796
  244loPI   C2B 3902   1.801   0.062   9.034 -0.1742 -0.0970 -0.1334
  244loPI   C3B 3903   1.469   0.187   8.911 -0.0633 -0.0119  0.2756
  244loPI   C4B 3904   1.000   0.190   8.661  0.5706 -0.0516  0.0275
  245loPI    C1 3905  10.964   0.073  11.085  0.2704 -0.0655  0.1357
  245loPI    C2 3906  11.106   0.120  11.456 -0.1219  0.0217  0.2798
  245loPI    C3 3907  10.851  -0.178  11.375  0.0120 -0.0369  0.0618
  245loPI   PO4 3908  10.882   0.286  10.938 -0.2887  0.5193  0.0248
  245loPI   GL1 3909  11.158   0.590  10.655  0.4144  0.0364  0.0275
  245loPI   GL2 3910  11.353   0.543  10.564  0.2259 -0.3402  0.0484
  245loPI   C1A 3911  11.227   0.873  10.135  0.1527 -0.2526  0.0665
  245loPI   C2A 3912  11.181   0.908   9.655  0.0288  0.1835  0.1125
  245loPI   C3A 3913  11.181   0.813   9.258 -0.0463  0.0752 -0.3446
  245loPI   C4A 3914  11.145   0.861   8.881  0.0566 -0.0781  0.1385
  245loPI   C5A 3915  11.076   0.954   8.418 -0.1950 -0.3654  0.0599
  245loPI   C6A 3916  10.953   0.656   8.036 -0.2362 -0.1835  0.3179
  245loPI   C1B 3917  11.545   0.432  10.133 -0.0023  0.0779  0.1653
  245loPI   C2B 3918  11.475   0.557   9.752 -0.0561 -0.2282 -0.1787
  245loPI   C3B 3919  11.502   0.459   9.373 -0.0234 -0.0515  0.0593
  245loPI   C4B 3920  11.508   0.532   8.961  0.0516 -0.1985  0.1653
  246loPI    C1 3921   9.965   6.301  11.005  0.1501 -0.3103  0.3232
  246loPI    C2 3922   9.897   6.610  11.251  0.2991 -0.1958  0.2222
  246loPI    C3 3923  10.258   6.562  11.084  0.0862 -0.0287 -0.3063
  246loPI   PO4 3924   9.832   6.300  10.845  0.2435  0.0043 -0.1547
  246loPI   GL1 3925   9.886   6.012  10.491  0.1110 -0.0785 -0.2430
  246loPI   GL2 3926   9.956   5.725  10.545  0.1930 -0.1123  0.2066
  246loPI   C1A 3927   9.901   6.259  10.162 -0.0929 -0.0827  0.0671
  246loPI   C2A 3928   9.913   6.168   9.763 -0.1433 -0.0423 -0.3057
  246loPI   C3A 3929   9.851   6.182   9.354 -0.1744 -0.1537 -0.2195
  246loPI   C4A 3930   9.843   6.219   9.011  0.2873  0.0363 -0.2509
  246loPI   C5A 3931   9.772   6.301   8.589 -0.0230 -0.3870  0.2523
  246loPI   C6A 3932   9.447   6.275   8.307 -0.1718 -0.0484  0.0500
  246loPI   C1B 3933  10.075   5.775  10.122 -0.2592 -0.2789  0.0838
  246loPI   C2B 3934  10.203   5.741   9.743 -0.0442 -0.0481  0.2155
  246loPI   C3B 3935  10.168   5.818   9.326  0.0810  0.1514 -0.0611
  246loPI   C4B 3936  10.251   5.836   8.968  0.0206  0.0062  0.4277
  247loPI    C1 3937  11.348   1.436  11.133 -0.0532  0.1451 -0.1363
  247loPI    C2 3938  11.618   1.149  11.200 -0.0495  0.1910  0.0504
  247loPI    C3 3939  11.228   1.069  11.236 -0.0391  0.2920  0.4409
  247loPI   PO4 3940  11.474   1.578  10.912 -0.3288 -0.1650  0.0983
  247loPI   GL1 3941  11.543   1.513  10.506 -0.2619  0.0976  0.2319
  247loPI   GL2 3942  11.215   1.441  10.376 -0.0714 -0.1857 -0.0097
  247loPI   C1A 3943  11.755   1.471  10.132 -0.3604 -0.0465  0.0237
  247loPI   C2A 3944  11.895   1.476   9.789  0.0912 -0.3278  0.0259
  247loPI   C3A 3945  11.867   1.457   9.320  0.3239 -0.1213  0.1225
  247loPI   C4A 3946  11.762   1.488   8.853 -0.1719 -0.2158 -0.1000
  247loPI   C5A 3947  11.655   1.461   8.462 -0.1764 -0.0898 -0.3068
  247loPI   C6A 3948  11.458   1.229   8.155  0.1804 -0.1177 -0.4494
  247loPI   C1B 3949  11.269   1.406   9.962 -0.0566 -0.3896 -0.0437
  247loPI   C2B 3950  11.410   1.413   9.618  0.0150  0.1562 -0.0194
  247loPI   C3B 3951  11.330   1.342   9.240 -0.1103  0.1249  0.0113
  247loPI   C4B 3952  11.265   1.338   8.789 -0.0830  0.3658  0.0009
  248loPI    C1 3953   2.563   1.188  10.800 -0.1644 -0.2166  0.0299
  248loPI    C2 3954   2.383   0.952  10.532  0.1252 -0.1013 -0.2740
  248loPI    C3 3955   2.627   0.793  10.806 -0.2118 -0.2255 -0.0393
  248loPI   PO4 3956   2.668   1.358  10.639 -0.0810  0.0651 -0.0875
  248loPI   GL1 3957   2.788   1.286  10.277  0.2239 -0.4772 -0.1388
  248loPI   GL2 3958   3.027   1.091  10.213 -0.3924 -0.1596  0.0234
  248loPI   C1A 3959   2.868   1.523   9.962  0.0635  0.0975  0.3641
  248loPI   C2A 3960   3.107   1.595   9.646 -0.0673  0.0198  0.0917
  248loPI   C3A 3961   3.080   1.651   9.171  0.1807  0.1893  0.3678
  248loPI   C4A 3962   3.059   1.696   8.687 -0.2076  0.3276  0.1435
  248loPI   C5A 3963   3.284   1.795   8.350 -0.2662  0.1630  0.0940
  248loPI   C6A 3964   3.536   1.887   7.982 -0.0185  0.0768  0.1307
  248loPI   C1B 3965   3.156   0.903   9.926 -0.2116  0.0532  0.2328
  248loPI   C2B 3966   3.229   0.723   9.486  0.1113 -0.3034 -0.0006
  248loPI   C3B 3967   3.195   0.810   9.086 -0.2361 -0.0524 -0.1222
  248loPI   C4B 3968   3.292   0.878   8.633  0.1909 -0.2095 -0.0363
  249loPI    C1 3969   1.920  13.100  10.670  0.1787 -0.1140  0.1586
  249loPI    C2 3970   1.915  12.756  10.874  0.0267 -0.1618  0.0758
  249loPI    C3 3971   1.799  13.095  11.052 -0.1388 -0.2093  0.0593
  249loPI   PO4 3972   1.829  12.998  10.433  0.0212 -0.0697  0.0525
  249loPI   GL1 3973   2.167  12.933  10.134  0.0205 -0.5393 -0.4887
  249loPI   GL2 3974   2.339  13.319  10.022  0.1080 -0.1862 -0.0400
  249loPI   C1A 3975   2.137  12.935   9.696 -0.1674  0.0945  0.0707
  249loPI   C2A 3976   2.187  12.886   9.246  0.1585 -0.1366 -0.0743
  249loPI   C3A 3977   2.237  12.928   8.777  0.1078 -0.2023 -0.2302
  249loPI   C4A 3978   2.147  13.018   8.424  0.1447 -0.1926  0.1693
  249loPI   C5A 3979   2.386  12.929   8.089  0.1460 -0.4452  0.1429
  249loPI   C6A 3980   2.476  13.141   7.685 -0.1124  0.1303  0.0820
  249loPI   C1B 3981   2.365  13.457   9.586  0.1103 -0.1163  0.0988
  249loPI   C2B 3982   2.448  13.411   9.142 -0.0990  0.0056  0.0807
  249loPI   C3B 3983   2.545  13.348   8.714 -0.1610  0.1848  0.2332
  249loPI   C4B 3984   2.705  13.167   8.407 -0.1335 -0.0908 -0.1086
  250loPI    C1 3985  10.786  17.757  11.008 -0.0168 -0.1738 -0.2370
  250loPI    C2 3986  10.693  17.562  11.344  0.1857 -0.1141 -0.1446
  250loPI    C3 3987  11.045  17.496  11.167  0.2407  0.1382 -0.1331
  250loPI   PO4 3988  10.541  17.679  10.819 -0.2868  0.0880  0.2600
  250loPI   GL1 3989  10.346  17.868  10.391  0.0622 -0.0174 -0.2235
  250loPI   GL2 3990  10.669  17.702  10.320 -0.0230  0.3784 -0.0339
  250loPI   C1A 3991  10.188  18.120  10.043  0.2375  0.0348  0.1950
  250loPI   C2A 3992  10.280  18.072   9.545 -0.1627 -0.1763  0.1082
  250loPI   C3A 3993  10.210  18.085   9.105 -0.3016 -0.0848  0.1824
  250loPI   C4A 3994  10.631  18.129   8.910 -0.0247  0.1604 -0.1271
  250loPI   C5A 3995  10.941  18.218   8.582  0.2056 -0.0843  0.1127
  250loPI   C6A 3996  11.347  18.004   8.363 -0.4436 -0.1381 -0.2093
  250loPI   C1B 3997  10.387  17.678   9.958 -0.0027 -0.2150 -0.1426
  250loPI   C2B 3998  10.561  17.591   9.534  0.3924  0.0265  0.0326
  250loPI   C3B 3999  10.659  17.678   9.120 -0.0624 -0.0569  0.0945
  250loPI   C4B 4000  10.786  17.664   8.622  0.1558  0.1151  0.0450
  251loPI    C1 4001   5.394   9.983  10.209 -0.0131  0.0714  0.2426
  251loPI    C2 4002   5.675   9.728  10.082  0.1078  0.1978  0.2543
  251loPI    C3 4003   5.504   9.675  10.440  0.0905  0.1002  0.2319
  251loPI   PO4 4004   5.128   9.997   9.953  0.2410 -0.1172 -0.0849
  251loPI   GL1 4005   5.017   9.685   9.559 -0.0538 -0.2848  0.0694
  251loPI   GL2 4006   5.255   9.584   9.641 -0.1143 -0.1674 -0.3884
  251loPI   C1A 4007   5.019   9.363   9.190 -0.3059  0.2410  0.0697
  251loPI   C2A 4008   5.201   9.380   8.749 -0.2153  0.0933 -0.0948
  251loPI   C3A 4009   5.283   9.307   8.273  0.2444  0.0408 -0.0583
  251loPI   C4A 4010   4.972   9.410   8.059 -0.0788 -0.2192  0.0206
  251loPI   C5A 4011   4.811   9.806   8.055  0.1792  0.2991  0.0550
  251loPI   C6A 4012   4.848  10.195   8.300 -0.4107 -0.1207 -0.3242
  251loPI   C1B 4013   5.429   9.606   9.220  0.0763 -0.3390  0.0292
  251loPI   C2B 4014   5.382   9.830   8.908 -0.0994 -0.1003 -0.1103
  251loPI   C3B 4015   5.625   9.966   8.494  0.1025 -0.2114 -0.0374
  251loPI   C4B 4016   5.741   9.998   8.045  0.1387 -0.2191  0.3613
  252loPI    C1 4017   8.072   3.180  10.911 -0.1972  0.0419  0.0772
  252loPI    C2 4018   8.357   3.115  11.183 -0.1240  0.4154  0.0942
  252loPI    C3 4019   7.972   3.101  11.290 -0.1176 -0.0636  0.0767
  252loPI   PO4 4020   8.224   2.994  10.735 -0.1484 -0.1085  0.0161
  252loPI   GL1 4021   8.551   3.046  10.397 -0.1479  0.2426  0.1434
  252loPI   GL2 4022   8.587   2.814  10.256 -0.2569 -0.0340  0.1522
  252loPI   C1A 4023   8.257   3.187  10.129 -0.1574 -0.2845 -0.0841
  252loPI   C2A 4024   8.146   3.210   9.658 -0.1449  0.1408 -0.3130
  252loPI   C3A 4025   8.350   3.159   9.306 -0.2609  0.0374  0.1538
  252loPI   C4A 4026   8.203   3.332   8.902  0.1896 -0.1845  0.2792
  252loPI   C5A 4027   8.153   3.329   8.441 -0.0819  0.3098  0.0571
  252loPI   C6A 4028   8.167   3.002   8.110 -0.0820 -0.0716 -0.3114
  252loPI   C1B 4029   8.434   2.824   9.799  0.0387 -0.1032  0.0426
  252loPI   C2B 4030   8.533   2.748   9.465 -0.0635  0.1564  0.1078
  252loPI   C3B 4031   8.575   2.813   9.062  0.0714 -0.0272 -0.3444
  252loPI   C4B 4032   8.466   2.887   8.627  0.1573  0.0051  0.2907
  253loPI    C1 4033  15.625  15.333  10.749  0.1084  0.0564 -0.0678
  253loPI    C2 4034  15.979  15.496  10.840  0.0077  0.1178  0.2258
  253loPI    C3 4035  15.647  15.625  11.021 -0.1398 -0.0764  0.0985
  253loPI   PO4 4036  15.644  15.390  10.429  0.0235  0.0688 -0.0168
  253loPI   GL1 4037  15.413  15.564  10.094  0.0964  0.1991 -0.0571
  253loPI   GL2 4038  15.072  15.521  10.094 -0.0354  0.1883  0.1976
  253loPI   C1A 4039  15.409  15.891   9.882  0.0367  0.0360  0.1245
  253loPI   C2A 4040  15.217  15.962   9.445  0.1134  0.2783  0.3330
  253loPI   C3A 4041  15.289  15.912   8.977  0.1942  0.0333  0.0172
  253loPI   C4A 4042  15.223  15.942   8.514  0.4167 -0.0348 -0.2403
  253loPI   C5A 4043  14.907  15.748   8.223  0.4308 -0.2207 -0.0400
  253loPI   C6A 4044  14.561  15.495   8.095  0.1597  0.2606 -0.0214
  253loPI   C1B 4045  15.166  15.478   9.671 -0.2503  0.0395 -0.2678
  253loPI   C2B 4046  15.124  15.522   9.197 -0.1536 -0.0013  0.0247
  253loPI   C3B 4047  15.033  15.502   8.778 -0.1158  0.1062  0.1722
  253loPI   C4B 4048  15.138  15.336   8.323 -0.0878  0.0115 -0.1088
  254loPI    C1 4049   4.231  14.373  10.873 -0.0492  0.1212 -0.2290
  254loPI    C2 4050   3.966  14.099  10.995 -0.0176  0.1317 -0.1357
  254loPI    C3 4051   4.158  14.324  11.264  0.2657 -0.0431 -0.1878
  254loPI   PO4 4052   4.141  14.487  10.704 -0.1480 -0.1422 -0.1702
  254loPI   GL1 4053   4.039  14.525  10.314  0.0204  0.2813  0.2076
  254loPI   GL2 4054   3.798  14.522  10.212  0.0219 -0.0258  0.1337
  254loPI   C1A 4055   4.259  14.593   9.949  0.3728  0.2608 -0.0067
  254loPI   C2A 4056   4.254  14.576   9.467  0.1272  0.1186 -0.1413
  254loPI   C3A 4057   4.333  14.635   9.162  0.0232  0.0286 -0.1146
  254loPI   C4A 4058   4.357  14.511   8.671 -0.2054  0.1339  0.1244
  254loPI   C5A 4059   4.167  14.290   8.367 -0.1266  0.2223 -0.2435
  254loPI   C6A 4060   4.305  14.349   7.940  0.2865 -0.0159 -0.1303
  254loPI   C1B 4061   3.744  14.468   9.786  0.1546 -0.1221 -0.0062
  254loPI   C2B 4062   3.731  14.443   9.321  0.0881 -0.0288 -0.5409
  254loPI   C3B 4063   3.800  14.586   9.023 -0.1765  0.2589  0.0951
  254loPI   C4B 4064   3.803  14.656   8.600  0.3581  0.2418  0.1889
  255loPI    C1 4065   6.424  10.085  10.444  0.0186  0.0287 -0.0770
  255loPI    C2 4066   6.616  10.197  10.777 -0.0817  0.0624 -0.0302
  255loPI    C3 4067   6.221  10.249  10.747 -0.1341 -0.2896 -0.0030
  255loPI   PO4 4068   6.471  10.187  10.266 -0.1730 -0.0012 -0.2842
  255loPI   GL1 4069   6.316  10.342   9.748 -0.0222  0.1158  0.1096
  255loPI   GL2 4070   6.163  10.231   9.587 -0.1013 -0.0637  0.3562
  255loPI   C1A 4071   6.658  10.097   9.508 -0.1692  0.1021  0.0884
  255loPI   C2A 4072   6.872   9.905   9.124  0.0599  0.0067  0.2182
  255loPI   C3A 4073   6.978   9.768   8.805  0.0145  0.2575 -0.0250
  255loPI   C4A 4074   6.688   9.515   8.558 -0.1107  0.1441 -0.0997
  255loPI   C5A 4075   6.698   9.145   8.226 -0.0203  0.4540 -0.0345
  255loPI   C6A 4076   6.429   8.819   7.939 -0.1197 -0.3418 -0.0066
  255loPI   C1B 4077   6.056  10.314   9.148 -0.0264  0.0942  0.1191
  255loPI   C2B 4078   5.652  10.282   8.893  0.1997  0.0681 -0.0152
  255loPI   C3B 4079   5.292  10.288   8.559 -0.0362  0.2344  0.1320
  255loPI   C4B 4080   5.315  10.278   8.129  0.0009  0.0685  0.0492
  256loPI    C1 4081  12.774   5.770  11.108  0.0716 -0.0209  0.0278
  256loPI    C2 4082  12.781   6.080  11.361  0.1087  0.0746 -0.0891
  256loPI    C3 4083  12.966   5.738  11.458 -0.3338 -0.0782  0.2509
  256loPI   PO4 4084  12.852   5.856  10.774 -0.1970  0.1090 -0.0977
  256loPI   GL1 4085  13.049   5.646  10.361 -0.4997 -0.0696  0.2058
  256loPI   GL2 4086  12.912   5.265  10.304  0.0325 -0.0665 -0.2397
  256loPI   C1A 4087  13.233   5.584   9.858  0.2101  0.0723 -0.1006
  256loPI   C2A 4088  13.101   5.670   9.455  0.0787  0.1309 -0.1120
  256loPI   C3A 4089  13.081   5.672   9.044 -0.0143  0.1481 -0.3531
  256loPI   C4A 4090  12.999   5.630   8.642  0.0841  0.0298  0.2310
  256loPI   C5A 4091  13.336   5.609   8.230  0.2466  0.0577 -0.3148
  256loPI   C6A 4092  13.420   5.904   7.850 -0.2912 -0.0868  0.3997
  256loPI   C1B 4093  13.016   5.091   9.930 -0.2148  0.0979 -0.2065
  256loPI   C2B 4094  12.911   5.133   9.409 -0.1097 -0.1697 -0.1351
  256loPI   C3B 4095  12.841   5.245   8.979 -0.0549  0.1209 -0.0403
  256loPI   C4B 4096  12.541   5.133   8.616  0.2427  0.2278 -0.0944
  257loPI    C1 4097  13.172   7.848  10.460 -0.3036  0.0729 -0.0088
  257loPI    C2 4098  13.126   7.482  10.615 -0.0106  0.0987  0.1461
  257loPI    C3 4099  13.034   7.805  10.833 -0.0022  0.1243  0.1118
  257loPI   PO4 4100  13.364   7.921  10.343  0.2457  0.0377 -0.1780
  257loPI   GL1 4101  13.625   7.782   9.942  0.1463 -0.0059 -0.2059
  257loPI   GL2 4102  13.336   7.672   9.926  0.3842  0.2626  0.1226
  257loPI   C1A 4103  13.617   7.934   9.549  0.1036 -0.2452 -0.3608
  257loPI   C2A 4104  13.562   8.078   9.192 -0.0021  0.1952 -0.3189
  257loPI   C3A 4105  13.503   8.055   8.790 -0.0307  0.1136  0.2983
  257loPI   C4A 4106  13.580   8.004   8.391 -0.0183 -0.3279  0.0318
  257loPI   C5A 4107  13.637   7.663   8.151  0.0683  0.2745 -0.0177
  257loPI   C6A 4108  13.895   7.298   8.064  0.2717 -0.2175 -0.1819
  257loPI   C1B 4109  13.424   7.466   9.566  0.0311  0.0702 -0.0685
  257loPI   C2B 4110  13.417   7.523   9.136 -0.0935  0.0850 -0.2267
  257loPI   C3B 4111  13.325   7.569   8.715  0.1068 -0.3849  0.2515
  257loPI   C4B 4112  13.319   7.356   8.377  0.1326  0.0793  0.0212
  258loPI    C1 4113   4.152  16.286  10.876 -0.3335  0.0742  0.0651
  258loPI    C2 4114   4.370  16.429  11.180 -0.0004 -0.1031 -0.0853
  258loPI    C3 4115   4.016  16.257  11.251  0.0501 -0.0944  0.1964
  258loPI   PO4 4116   4.378  16.340  10.683 -0.3952 -0.0549  0.0966
  258loPI   GL1 4117   4.460  16.607  10.403  0.0111  0.1240 -0.0431
  258loPI   GL2 4118   4.528  17.000  10.381  0.1938 -0.1588 -0.0275
  258loPI   C1A 4119   4.626  16.517   9.928 -0.1602  0.0217 -0.1459
  258loPI   C2A 4120   4.746  16.404   9.440  0.1457 -0.1113  0.2037
  258loPI   C3A 4121   4.636  16.516   9.014  0.0080 -0.2429  0.2702
  258loPI   C4A 4122   4.687  16.493   8.580  0.2849  0.3462 -0.0173
  258loPI   C5A 4123   4.767  16.799   8.234  0.1747  0.2142  0.0073
  258loPI   C6A 4124   4.485  16.950   7.871 -0.0836  0.0050  0.0142
  258loPI   C1B 4125   4.664  17.059  10.020  0.1219 -0.0402  0.3856
  258loPI   C2B 4126   4.756  16.929   9.598 -0.0947  0.1138 -0.0276
  258loPI   C3B 4127   4.817  16.945   9.191 -0.2615 -0.0241  0.0856
  258loPI   C4B 4128   4.894  16.966   8.715 -0.0439  0.0622  0.1679
  259loPI    C1 4129   4.047   9.980   9.933 -0.0755 -0.0636 -0.0361
  259loPI    C2 4130   3.832   9.758   9.680 -0.1030  0.0333 -0.0981
  259loPI    C3 4131   3.722  10.135   9.759  0.0765  0.1032 -0.1759
  259loPI   PO4 4132   4.245   9.954   9.850 -0.2354 -0.0109 -0.2333
  259loPI   GL1 4133   4.462   9.811   9.548 -0.0829 -0.1243 -0.4632
  259loPI   GL2 4134   4.641  10.039   9.591 -0.2991 -0.2239  0.4916
  259loPI   C1A 4135   4.620   9.715   9.088 -0.0008 -0.0685 -0.1641
  259loPI   C2A 4136   4.728   9.492   8.711 -0.0734 -0.0624 -0.1818
  259loPI   C3A 4137   4.539   9.399   8.316 -0.0355 -0.1313 -0.1622
  259loPI   C4A 4138   4.672   9.036   8.088 -0.0954  0.2543  0.3387
  259loPI   C5A 4139   4.558   8.650   7.942  0.0380 -0.2666 -0.0231
  259loPI   C6A 4140   4.162   8.492   7.746  0.1231 -0.1948 -0.0187
  259loPI   C1B 4141   4.889  10.136   9.274 -0.1209  0.1344 -0.1847
  259loPI   C2B 4142   4.921  10.027   8.856 -0.0658 -0.0850  0.0117
  259loPI   C3B 4143   5.140   9.792   8.463 -0.2404 -0.2634  0.0449
  259loPI   C4B 4144   5.298   9.780   8.066 -0.0272  0.0866 -0.1160
  260loPI    C1 4145   5.242   5.369  10.353 -0.2679  0.0701 -0.1551
  260loPI    C2 4146   5.381   5.185  10.680 -0.1260 -0.0444 -0.2783
  260loPI    C3 4147   5.007   5.328  10.674 -0.2783 -0.4270 -0.2184
  260loPI   PO4 4148   5.308   5.212  10.198 -0.2176  0.0401 -0.0727
  260loPI   GL1 4149   5.430   5.200   9.778 -0.0259 -0.1553 -0.2944
  260loPI   GL2 4150   5.120   5.109   9.669  0.2737 -0.1590  0.2400
  260loPI   C1A 4151   5.683   5.098   9.455  0.0827  0.0098 -0.1835
  260loPI   C2A 4152   5.508   5.030   9.034  0.0261 -0.3052 -0.0419
  260loPI   C3A 4153   5.530   5.177   8.563  0.1711  0.1623 -0.2077
  260loPI   C4A 4154   5.765   5.319   8.227 -0.0177  0.1917  0.0287
  260loPI   C5A 4155   5.955   5.197   7.901  0.0419  0.2852  0.1765
  260loPI   C6A 4156   6.250   5.174   7.652 -0.5648  0.3840 -0.3602
  260loPI   C1B 4157   5.109   5.051   9.300 -0.1250 -0.0450 -0.0451
  260loPI   C2B 4158   5.007   5.103   8.919 -0.2475 -0.1704  0.2301
  260loPI   C3B 4159   5.026   5.162   8.413  0.1043  0.0581 -0.1548
  260loPI   C4B 4160   5.021   5.242   7.970  0.4769  0.0311 -0.2795
  261loPI    C1 4161   0.294  15.046  10.582  0.1296 -0.4225 -0.0994
  261loPI    C2 4162   0.048  14.933  10.877  0.1079 -0.0471  0.0307
  261loPI    C3 4163   0.439  14.977  10.948  0.1290 -0.1191 -0.0396
  261loPI   PO4 4164   0.166  15.247  10.410  0.1732 -0.1884 -0.3793
  261loPI   GL1 4165   0.121  15.311   9.999  0.0380  0.0511  0.0397
  261loPI   GL2 4166   0.140  15.585   9.802 -0.1996  0.0806  0.1648
  261loPI   C1A 4167   0.148  15.133   9.545 -0.1691  0.1839 -0.1577
  261loPI   C2A 4168   0.192  15.104   9.126  0.3509  0.0181  0.0281
  261loPI   C3A 4169   0.103  15.089   8.715 -0.0758 -0.2327 -0.2266
  261loPI   C4A 4170   0.272  15.224   8.266 -0.2360 -0.4016 -0.1809
  261loPI   C5A 4171   0.424  15.446   7.935 -0.1705 -0.1425 -0.3059
  261loPI   C6A 4172   0.678  15.667   7.657  0.3676 -0.0781 -0.4386
  261loPI   C1B 4173   0.034  15.629   9.397  0.2932  0.2509  0.1522
  261loPI   C2B 4174   0.123  15.584   8.875  0.0894 -0.1192 -0.0112
  261loPI   C3B 4175   0.136  15.735   8.400 -0.1220  0.2073 -0.1047
  261loPI   C4B 4176  -0.105  15.741   8.068 -0.0168  0.0449 -0.1530
  262loPI    C1 4177  10.573  14.782  11.460  0.0952  0.0781 -0.1325
  262loPI    C2 4178  10.335  15.100  11.506 -0.1044 -0.1136  0.1931
  262loPI    C3 4179  10.595  15.001  11.793  0.1673 -0.0746 -0.0357
  262loPI   PO4 4180  10.520  14.701  11.247  0.4238 -0.0886 -0.0583
  262loPI   GL1 4181  10.584  14.753  10.742 -0.1287  0.1633 -0.2769
  262loPI   GL2 4182  10.581  14.505  10.563 -0.0211 -0.0791  0.1941
  262loPI   C1A 4183  10.449  14.942  10.318 -0.1310 -0.3043  0.2544
  262loPI   C2A 4184  10.370  14.996   9.883  0.4395 -0.0482  0.3174
  262loPI   C3A 4185  10.401  14.985   9.459 -0.0643  0.4662  0.2431
  262loPI   C4A 4186  10.452  14.987   8.996  0.2376  0.2145  0.1392
  262loPI   C5A 4187  10.437  15.012   8.531  0.1563 -0.2529  0.3369
  262loPI   C6A 4188  10.756  14.712   8.248 -0.1942 -0.0961  0.1816
  262loPI   C1B 4189  10.721  14.562  10.133  0.0736  0.0594 -0.0365
  262loPI   C2B 4190  10.693  14.645   9.714 -0.1542  0.1928 -0.1399
  262loPI   C3B 4191  10.617  14.547   9.278  0.0790  0.1800  0.0498
  262loPI   C4B 4192  10.721  14.581   8.873 -0.0634 -0.1920 -0.1250
  263loPI    C1 4193   7.994  17.520  11.362  0.1341  0.0920  0.0275
  263loPI    C2 4194   8.317  17.753  11.331  0.3588 -0.2227 -0.0509
  263loPI    C3 4195   8.254  17.544  11.666  0.2061 -0.1212 -0.0154
  263loPI   PO4 4196   7.992  17.408  11.089 -0.1401 -0.3790 -0.3764
  263loPI   GL1 4197   7.616  17.409  10.610 -0.2225 -0.3007 -0.0700
  263loPI   GL2 4198   7.394  17.634  10.484  0.0062  0.0138 -0.1010
  263loPI   C1A 4199   7.773  17.241  10.258 -0.0309 -0.1056  0.1334
  263loPI   C2A 4200   7.821  17.287   9.849  0.3125 -0.1693  0.2373
  263loPI   C3A 4201   7.961  17.371   9.462 -0.2602 -0.3936 -0.2048
  263loPI   C4A 4202   7.900  17.509   9.052 -0.0546  0.0999  0.1948
  263loPI   C5A 4203   7.992  17.472   8.603 -0.0775  0.2069 -0.0956
  263loPI   C6A 4204   7.955  17.538   8.099 -0.1749  0.1413 -0.1190
  263loPI   C1B 4205   7.567  17.666  10.083 -0.0453 -0.0886 -0.0068
  263loPI   C2B 4206   7.640  17.711   9.672  0.0080  0.0954 -0.0666
  263loPI   C3B 4207   7.551  17.875   9.271  0.0370  0.0400 -0.0771
  263loPI   C4B 4208   7.560  17.895   8.863 -0.3283 -0.0282  0.2150
  264loPI    C1 4209   3.821  17.545  10.806 -0.0903 -0.0062 -0.0711
  264loPI    C2 4210   4.074  17.236  10.781 -0.0921 -0.0312  0.1874
  264loPI    C3 4211   3.769  17.225  11.040 -0.2469  0.0789  0.0125
  264loPI   PO4 4212   3.757  17.543  10.509 -0.2561  0.3221 -0.0424
  264loPI   GL1 4213   3.710  17.377  10.071 -0.1621 -0.1752  0.1743
  264loPI   GL2 4214   3.521  17.691  10.008 -0.1613  0.0161  0.1073
  264loPI   C1A 4215   3.977  17.299   9.681  0.1194  0.0888  0.3856
  264loPI   C2A 4216   3.989  17.341   9.283  0.1011  0.3149  0.1486
  264loPI   C3A 4217   4.013  17.370   8.843  0.2422  0.3064 -0.1062
  264loPI   C4A 4218   4.078  17.394   8.408  0.5417  0.0114  0.3007
  264loPI   C5A 4219   3.850  17.656   8.233  0.1128 -0.1329  0.1651
  264loPI   C6A 4220   3.831  17.975   7.880  0.2180  0.3823  0.0633
  264loPI   C1B 4221   3.640  17.646   9.596 -0.0885 -0.0373 -0.2848
  264loPI   C2B 4222   3.763  17.749   9.114  0.0480 -0.0806 -0.0213
  264loPI   C3B 4223   3.686  17.705   8.680  0.1803 -0.3611  0.2004
  264loPI   C4B 4224   3.615  18.081   8.380 -0.0802  0.2522 -0.0471
  265loPI    C1 4225  17.885   8.166  10.438  0.1297 -0.3532 -0.0865
  265loPI    C2 4226  18.097   8.501  10.498 -0.2251 -0.1258 -0.0739
  265loPI    C3 4227  18.188   8.168  10.700  0.0891 -0.0203 -0.0366
  265loPI   PO4 4228  17.881   8.202  10.189  0.0023  0.1123  0.2581
  265loPI   GL1 4229  17.931   8.350   9.781  0.2318  0.2655 -0.1960
  265loPI   GL2 4230  18.262   8.357   9.829  0.1712 -0.1734 -0.1012
  265loPI   C1A 4231  17.955   8.183   9.372 -0.1058 -0.0503  0.0526
  265loPI   C2A 4232  18.063   8.189   8.908  0.2944 -0.2823 -0.0189
  265loPI   C3A 4233  17.832   8.167   8.527 -0.1028  0.0340  0.2757
  265loPI   C4A 4234  17.846   8.077   8.088 -0.2124  0.1260  0.1678
  265loPI   C5A 4235  17.918   7.820   7.818 -0.0636  0.0380 -0.2837
  265loPI   C6A 4236  17.854   7.710   7.423  0.1633  0.0095 -0.0344
  265loPI   C1B 4237  18.396   8.369   9.396 -0.2291  0.2535  0.1136
  265loPI   C2B 4238  18.309   8.597   9.057  0.1204  0.1801  0.1101
  265loPI   C3B 4239  18.193   8.681   8.715 -0.0057 -0.1621  0.1105
  265loPI   C4B 4240  18.115   9.020   8.230 -0.5822  0.1056  0.4176
  266loPI    C1 4241   8.557   2.543  10.859  0.0735 -0.1506  0.0304
  266loPI    C2 4242   8.572   2.297  11.174  0.0515 -0.1529  0.0296
  266loPI    C3 4243   8.661   2.685  11.219 -0.0438 -0.1340  0.0581
  266loPI   PO4 4244   8.558   2.328  10.612  0.3382 -0.1177 -0.3210
  266loPI   GL1 4245   8.270   2.417  10.204 -0.2923  0.0022 -0.1490
  266loPI   GL2 4246   8.080   2.704  10.225 -0.1387 -0.2767  0.0145
  266loPI   C1A 4247   8.198   2.396   9.733 -0.0642 -0.1612  0.2290
  266loPI   C2A 4248   8.333   2.310   9.247 -0.0003  0.0687 -0.0671
  266loPI   C3A 4249   8.391   2.383   8.792 -0.0610 -0.0101  0.0329
  266loPI   C4A 4250   8.416   2.469   8.348  0.0178  0.5401  0.1014
  266loPI   C5A 4251   8.349   2.550   7.969 -0.0431  0.1316 -0.0066
  266loPI   C6A 4252   8.103   2.710   7.594 -0.0215  0.2955  0.2249
  266loPI   C1B 4253   7.965   2.794   9.874 -0.0309 -0.1375 -0.2335
  266loPI   C2B 4254   7.944   2.822   9.433  0.3135  0.0152 -0.2602
  266loPI   C3B 4255   8.051   2.830   9.054  0.0143  0.1808 -0.2973
  266loPI   C4B 4256   8.000   2.853   8.606 -0.2373 -0.0637  0.2517
  267loPI    C1 4257  16.055   4.878  10.958 -0.0289  0.1630  0.0278
  267loPI    C2 4258  15.943   5.048  11.303 -0.2612  0.1793 -0.0539
  267loPI    C3 4259  15.779   4.701  11.188  0.2418 -0.1316  0.1333
  267loPI   PO4 4260  16.060   5.166  10.819 -0.0563  0.3681 -0.0679
  267loPI   GL1 4261  16.002   5.157  10.326 -0.7485  0.0106  0.0645
  267loPI   GL2 4262  16.191   5.369  10.386 -0.1137  0.0632  0.0968
  267loPI   C1A 4263  15.721   4.838  10.304  0.1731 -0.2376  0.1193
  267loPI   C2A 4264  15.424   4.636  10.098 -0.1769  0.0550 -0.3265
  267loPI   C3A 4265  15.139   4.619   9.706 -0.3537 -0.0411 -0.2885
  267loPI   C4A 4266  15.091   4.598   9.347  0.2633  0.1648  0.1022
  267loPI   C5A 4267  15.041   4.625   8.973  0.0287 -0.1642 -0.2279
  267loPI   C6A 4268  14.956   4.431   8.698  0.0193  0.3207  0.0132
  267loPI   C1B 4269  16.236   5.686  10.132  0.2221  0.1019  0.0590
  267loPI   C2B 4270  16.155   5.624   9.729  0.1127  0.1498  0.0560
  267loPI   C3B 4271  16.049   5.628   9.357  0.1205  0.0254  0.0419
  267loPI   C4B 4272  15.966   5.653   8.881 -0.0406  0.1406 -0.1126
  268loPI    C1 4273   1.555  11.234  10.387  0.1140 -0.1876  0.0387
  268loPI    C2 4274   1.374  11.409  10.698 -0.0684 -0.0239 -0.1564
  268loPI    C3 4275   1.756  11.294  10.727 -0.0599  0.0636  0.0999
  268loPI   PO4 4276   1.502  11.350  10.165  0.2079 -0.0340 -0.0558
  268loPI   GL1 4277   1.510  11.468   9.729 -0.1398 -0.1381  0.1338
  268loPI   GL2 4278   1.232  11.400   9.678  0.1707 -0.3032 -0.0583
  268loPI   C1A 4279   1.489  11.596   9.247  0.1841  0.2012 -0.0777
  268loPI   C2A 4280   1.557  11.604   8.807 -0.3549 -0.3313  0.0435
  268loPI   C3A 4281   1.614  11.589   8.422  0.0199  0.0365  0.2272
  268loPI   C4A 4282   1.825  11.529   7.981  0.0175 -0.2048 -0.0355
  268loPI   C5A 4283   1.824  11.727   7.627 -0.0393  0.0138 -0.1337
  268loPI   C6A 4284   1.688  11.986   7.251 -0.2571 -0.2182  0.2625
  268loPI   C1B 4285   1.010  11.469   9.282 -0.2094  0.0844  0.3243
  268loPI   C2B 4286   1.031  11.460   8.861  0.0602  0.0689  0.0315
  268loPI   C3B 4287   1.041  11.535   8.413  0.1315  0.3454  0.2123
  268loPI   C4B 4288   0.984  11.806   8.054 -0.4473  0.0463  0.1274
  269loPI    C1 4289  17.259  12.814  10.538 -0.1289  0.3011 -0.0960
  269loPI    C2 4290  17.516  12.902  10.831 -0.0995 -0.0331 -0.0175
  269loPI    C3 4291  17.157  13.078  10.820  0.0244  0.2271  0.0301
  269loPI   PO4 4292  17.477  12.901  10.328  0.0979 -0.1145 -0.1153
  269loPI   GL1 4293  17.511  12.700   9.974  0.0278  0.0204  0.0998
  269loPI   GL2 4294  17.812  12.766   9.833 -0.0332  0.3861 -0.2354
  269loPI   C1A 4295  17.375  12.726   9.609  0.1555  0.2457 -0.3098
  269loPI   C2A 4296  17.432  12.664   9.197 -0.2426 -0.2450 -0.5255
  269loPI   C3A 4297  17.389  12.602   8.798 -0.2280 -0.0465 -0.0329
  269loPI   C4A 4298  17.347  12.619   8.396 -0.1098 -0.0205 -0.0105
  269loPI   C5A 4299  17.342  12.624   7.976 -0.1591 -0.0030 -0.1725
  269loPI   C6A 4300  17.449  13.012   7.850 -0.2274 -0.2174 -0.3088
  269loPI   C1B 4301  17.883  12.663   9.395  0.0417 -0.1040  0.3174
  269loPI   C2B 4302  17.851  12.770   8.938  0.0153  0.2456 -0.2423
  269loPI   C3B 4303  17.891  12.784   8.494 -0.0014 -0.0420 -0.2518
  269loPI   C4B 4304  17.854  12.792   8.054 -0.2257  0.2555 -0.2236
  270loPI    C1 4305   2.426  12.967  10.734 -0.3146  0.0801 -0.1740
  270loPI    C2 4306   2.488  13.260  10.999 -0.0513 -0.2357  0.1226
  270loPI    C3 4307   2.319  12.916  11.116 -0.1780 -0.2792 -0.1795
  270loPI   PO4 4308   2.403  13.066  10.538 -0.0751  0.0788  0.3008
  270loPI   GL1 4309   2.655  12.977  10.232 -0.0102 -0.1428 -0.1756
  270loPI   GL2 4310   3.030  12.821  10.209  0.0559 -0.1252  0.0222
  270loPI   C1A 4311   2.629  12.936   9.827  0.1579 -0.0850 -0.0613
  270loPI   C2A 4312   2.620  12.988   9.350 -0.0728 -0.0392 -0.1966
  270loPI   C3A 4313   2.699  12.795   8.963  0.2624  0.0032  0.2067
  270loPI   C4A 4314   2.601  12.660   8.599  0.0217  0.1924 -0.0909
  270loPI   C5A 4315   2.729  12.494   8.191  0.2753 -0.1434 -0.2734
  270loPI   C6A 4316   2.559  12.131   7.853  0.1847  0.2398  0.3317
  270loPI   C1B 4317   3.084  12.845   9.702  0.1033  0.0571  0.1964
  270loPI   C2B 4318   3.095  12.963   9.203  0.4646 -0.1635  0.1928
  270loPI   C3B 4319   3.147  12.906   8.844 -0.1667  0.1106 -0.3443
  270loPI   C4B 4320   3.310  12.939   8.476  0.0810 -0.1893 -0.2158
  271loPI    C1 4321   1.742  15.509  10.290 -0.1290  0.1250  0.0132
  271loPI    C2 4322   1.417  15.735  10.344 -0.2233 -0.0143  0.0340
  271loPI    C3 4323   1.534  15.481  10.630 -0.2037 -0.0992 -0.0490
  271loPI   PO4 4324   1.918  15.652  10.150  0.1065  0.0890  0.2242
  271loPI   GL1 4325   1.845  15.790   9.718 -0.0928  0.2915 -0.2824
  271loPI   GL2 4326   1.620  15.975   9.866  0.2221 -0.0507 -0.2080
  271loPI   C1A 4327   2.155  15.945   9.519  0.1734 -0.0284  0.0491
  271loPI   C2A 4328   2.161  15.914   9.082  0.0659 -0.1597 -0.3074
  271loPI   C3A 4329   2.374  15.706   8.800 -0.0752 -0.0785  0.0523
  271loPI   C4A 4330   2.430  15.695   8.324  0.2632  0.1663  0.0305
  271loPI   C5A 4331   2.563  15.639   7.865  0.0471  0.0717 -0.1555
  271loPI   C6A 4332   2.517  15.431   7.487 -0.1185 -0.1395 -0.0373
  271loPI   C1B 4333   1.500  16.063   9.488  0.0717  0.0295  0.0230
  271loPI   C2B 4334   1.731  16.241   9.119 -0.0628  0.1509 -0.0739
  271loPI   C3B 4335   1.872  16.225   8.691  0.0363  0.0821  0.0723
  271loPI   C4B 4336   2.254  16.174   8.522  0.2203  0.4378  0.2647
  272loPI    C1 4337   3.252   6.070  10.496  0.0538 -0.0637 -0.1321
  272loPI    C2 4338   3.150   6.456  10.511  0.1457 -0.0468  0.0990
  272loPI    C3 4339   3.471   6.326  10.712 -0.0634 -0.2986  0.2763
  272loPI   PO4 4340   3.148   6.016  10.277 -0.0217  0.2076 -0.0974
  272loPI   GL1 4341   3.131   6.045   9.872  0.1025  0.0313  0.3205
  272loPI   GL2 4342   2.907   6.258   9.858 -0.1527  0.1712 -0.3780
  272loPI   C1A 4343   2.945   5.829   9.621 -0.2948 -0.0454  0.0612
  272loPI   C2A 4344   2.792   5.775   9.239 -0.0414  0.0679  0.0486
  272loPI   C3A 4345   2.770   5.892   8.885  0.0271  0.4129 -0.0890
  272loPI   C4A 4346   2.742   5.993   8.422  0.3162 -0.1398 -0.1763
  272loPI   C5A 4347   2.543   5.873   8.054  0.0251  0.3941  0.2281
  272loPI   C6A 4348   2.266   6.182   7.736 -0.0210 -0.0106  0.2795
  272loPI   C1B 4349   2.869   6.386   9.397  0.1334  0.1531 -0.1071
  272loPI   C2B 4350   3.269   6.441   9.106 -0.1373 -0.0062 -0.1971
  272loPI   C3B 4351   3.425   6.583   8.716  0.0143 -0.0821  0.0993
  272loPI   C4B 4352   3.662   6.381   8.341  0.0668 -0.0094  0.1602
  273loPI    C1 4353   0.226   0.049  10.398 -0.2445  0.4242 -0.0275
  273loPI    C2 4354   0.536  -0.169  10.527 -0.2340  0.1401 -0.5075
  273loPI    C3 4355   0.213  -0.123  10.759  0.0053  0.1153 -0.1606
  273loPI   PO4 4356   0.127  -0.081  10.176  0.3226  0.0435  0.1446
  273loPI   GL1 4357  -0.055   0.204   9.931  0.2978 -0.0331 -0.0372
  273loPI   GL2 4358  -0.161  -0.080   9.747  0.2367  0.0667 -0.2842
  273loPI   C1A 4359  -0.077   0.351   9.496 -0.1548  0.2261 -0.0575
  273loPI   C2A 4360  -0.098   0.230   8.990 -0.0127  0.2620 -0.2833
  273loPI   C3A 4361  -0.249  -0.038   8.709  0.1913  0.0299 -0.1819
  273loPI   C4A 4362  -0.373  -0.371   8.527 -0.0411 -0.0183  0.2257
  273loPI   C5A 4363  -0.425  -0.476   8.119 -0.1322  0.0790 -0.0881
  273loPI   C6A 4364  -0.650  -0.362   7.767 -0.3111 -0.0010  0.0340
  273loPI   C1B 4365  -0.241  -0.286   9.308  0.1396  0.0559  0.0477
  273loPI   C2B 4366  -0.218  -0.515   8.993 -0.2440  0.0372  0.3326
  273loPI   C3B 4367  -0.394  -0.804   8.767 -0.3617 -0.1724  0.2689
  273loPI   C4B 4368  -0.245  -1.247   8.797 -0.1305 -0.1650 -0.1698
  274loPI    C1 4369   7.266   2.461  10.897  0.1987 -0.0240  0.0941
  274loPI    C2 4370   7.653   2.362  10.906  0.2370  0.1243  0.1061
  274loPI    C3 4371   7.503   2.554  10.589  0.1625  0.0252  0.0810
  274loPI   PO4 4372   7.118   2.307  10.927 -0.0134 -0.0495 -0.3184
  274loPI   GL1 4373   6.977   1.997  10.617 -0.1646 -0.2027  0.0553
  274loPI   GL2 4374   7.228   2.074  10.426  0.0776 -0.1290 -0.0042
  274loPI   C1A 4375   6.760   2.183  10.236  0.0908  0.0502 -0.1652
  274loPI   C2A 4376   6.738   2.120   9.816 -0.3360  0.0513 -0.3751
  274loPI   C3A 4377   6.824   2.093   9.330  0.4022 -0.5771 -0.0684
  274loPI   C4A 4378   6.837   2.046   8.875  0.3321  0.0577  0.1799
  274loPI   C5A 4379   6.817   2.024   8.478 -0.0596  0.0647 -0.0268
  274loPI   C6A 4380   6.588   2.007   8.052 -0.2106 -0.2497 -0.1873
  274loPI   C1B 4381   7.264   2.273  10.060 -0.0246  0.1891  0.1236
  274loPI   C2B 4382   7.271   2.145   9.584  0.2914  0.0127 -0.2138
  274loPI   C3B 4383   7.255   2.188   9.167 -0.0753  0.1991  0.0124
  274loPI   C4B 4384   7.300   2.147   8.719 -0.0240  0.0299 -0.0597
  275loPI    C1 4385   7.282   1.552  11.461 -0.3123  0.0114  0.1534
  275loPI    C2 4386   7.341   1.349  11.801  0.0513  0.0515  0.1181
  275loPI    C3 4387   7.383   1.746  11.796 -0.2188  0.0810  0.0855
  275loPI   PO4 4388   7.467   1.431  11.260 -0.0355 -0.3012 -0.2334
  275loPI   GL1 4389   7.241   1.272  10.868  0.1382  0.5223  0.4779
  275loPI   GL2 4390   7.563   1.208  10.756 -0.2380 -0.1378 -0.0541
  275loPI   C1A 4391   7.213   1.532  10.456 -0.0628  0.1680  0.0142
  275loPI   C2A 4392   7.003   1.712  10.044  0.1265 -0.1013 -0.0328
  275loPI   C3A 4393   7.115   1.585   9.583  0.0645  0.2036  0.0103
  275loPI   C4A 4394   7.081   1.671   9.223  0.0481  0.1965  0.1693
  275loPI   C5A 4395   7.092   1.645   8.775 -0.2447 -0.3558  0.1223
  275loPI   C6A 4396   7.377   1.484   8.546 -0.2533  0.2727 -0.0433
  275loPI   C1B 4397   7.547   1.151  10.353  0.0061 -0.0006  0.2743
  275loPI   C2B 4398   7.493   1.290   9.918  0.0132  0.1650 -0.0521
  275loPI   C3B 4399   7.499   1.296   9.491 -0.0256  0.3266 -0.0136
  275loPI   C4B 4400   7.495   1.363   9.121 -0.1974 -0.3126 -0.1115
  276loPI    C1 4401  15.351   3.227  10.994  0.1877 -0.0796  0.1466
  276loPI    C2 4402  15.674   3.290  11.221  0.1898 -0.2345  0.1871
  276loPI    C3 4403  15.315   3.243  11.392  0.0884  0.2687  0.1270
  276loPI   PO4 4404  15.488   3.108  10.813 -0.1653  0.0025  0.1505
  276loPI   GL1 4405  15.709   3.199  10.377 -0.1020  0.0840 -0.2508
  276loPI   GL2 4406  15.746   2.841  10.258 -0.1403 -0.5181  0.0408
  276loPI   C1A 4407  15.491   3.331  10.026 -0.1770  0.1835 -0.1081
  276loPI   C2A 4408  15.487   3.223   9.631  0.4435 -0.1914 -0.1251
  276loPI   C3A 4409  15.556   3.251   9.148 -0.0362 -0.2347 -0.0355
  276loPI   C4A 4410  15.540   3.154   8.772  0.0167  0.0410 -0.1035
  276loPI   C5A 4411  15.512   3.167   8.292  0.0291  0.2171  0.1491
  276loPI   C6A 4412  15.376   3.470   7.907  0.0575  0.0039  0.1090
  276loPI   C1B 4413  15.840   2.909   9.876 -0.0615 -0.2966  0.0794
  276loPI   C2B 4414  15.848   2.867   9.441  0.0990 -0.1717  0.3576
  276loPI   C3B 4415  15.902   2.812   8.983 -0.2192  0.1425  0.2820
  276loPI   C4B 4416  15.978   2.781   8.494  0.2155 -0.2755 -0.0503
  277loPI    C1 4417   3.275   1.837  10.663  0.0136 -0.3041 -0.3889
  277loPI    C2 4418   2.970   1.725  10.429 -0.2246  0.1079 -0.2861
  277loPI    C3 4419   2.907   1.802  10.816  0.0672 -0.0685 -0.2005
  277loPI   PO4 4420   3.464   1.639  10.623 -0.0876  0.1869  0.0857
  277loPI   GL1 4421   3.924   1.702  10.408  0.0792  0.0286  0.0551
  277loPI   GL2 4422   4.213   1.909  10.528 -0.2238  0.0274 -0.1368
  277loPI   C1A 4423   3.804   1.676   9.982 -0.1961 -0.0439 -0.0128
  277loPI   C2A 4424   3.655   1.653   9.591 -0.1802 -0.3076  0.0967
  277loPI   C3A 4425   3.588   1.701   9.151 -0.1225  0.0775  0.0695
  277loPI   C4A 4426   3.664   1.725   8.696  0.3217 -0.1034 -0.0936
  277loPI   C5A 4427   3.829   1.707   8.345 -0.2874 -0.1273 -0.0125
  277loPI   C6A 4428   3.913   1.581   7.856 -0.1545  0.2430 -0.0577
  277loPI   C1B 4429   4.305   1.666  10.086  0.1670 -0.2074  0.1256
  277loPI   C2B 4430   4.201   1.700   9.674  0.3229 -0.2177 -0.2905
  277loPI   C3B 4431   4.039   1.806   9.237 -0.1317 -0.1056  0.3956
  277loPI   C4B 4432   4.186   1.723   8.736  0.3251  0.0118 -0.2026
  278loPI    C1 4433   0.736   4.595  10.951 -0.0759 -0.0531  0.0683
  278loPI    C2 4434   0.671   4.869  11.235 -0.0612 -0.0567  0.0752
  278loPI    C3 4435   0.499   4.508  11.262  0.0964 -0.1251  0.1805
  278loPI   PO4 4436   0.677   4.732  10.711  0.2614  0.0066 -0.0538
  278loPI   GL1 4437   0.491   4.884  10.416  0.3739 -0.2719  0.0439
  278loPI   GL2 4438   0.228   5.089  10.374  0.0955  0.1660  0.3329
  278loPI   C1A 4439   0.399   4.794  10.013  0.0807  0.0829  0.1123
  278loPI   C2A 4440   0.368   4.791   9.617  0.0186 -0.2524  0.0406
  278loPI   C3A 4441   0.367   4.778   9.227 -0.1407  0.0367 -0.1139
  278loPI   C4A 4442   0.278   4.751   8.816 -0.0646 -0.4796 -0.0340
  278loPI   C5A 4443   0.416   4.764   8.351 -0.1831  0.3843  0.1937
  278loPI   C6A 4444   0.614   4.540   8.050  0.1483 -0.2441  0.2729
  278loPI   C1B 4445   0.154   5.231   9.966 -0.0203  0.0581  0.1312
  278loPI   C2B 4446   0.035   5.189   9.553 -0.2820 -0.2168 -0.2154
  278loPI   C3B 4447  -0.053   5.123   9.117  0.2422  0.0298  0.0925
  278loPI   C4B 4448  -0.148   5.188   8.672  0.2066  0.0064 -0.1702
  279loPI    C1 4449  13.452   1.089  11.033  0.0490  0.1620  0.0605
  279loPI    C2 4450  13.470   0.869  11.366  0.1495  0.0085 -0.0452
  279loPI    C3 4451  13.366   1.255  11.387 -0.0398 -0.0504  0.1399
  279loPI   PO4 4452  13.386   0.851  10.762  0.2745 -0.1643  0.0529
  279loPI   GL1 4453  13.507   0.734  10.413  0.0040  0.1408 -0.0050
  279loPI   GL2 4454  13.205   0.620  10.368  0.0582 -0.1368  0.3079
  279loPI   C1A 4455  13.475   0.787   9.860  0.4166  0.1402 -0.2341
  279loPI   C2A 4456  13.456   0.713   9.371 -0.1562 -0.3787 -0.0763
  279loPI   C3A 4457  13.438   0.692   8.994 -0.2920  0.3815  0.0121
  279loPI   C4A 4458  13.647   0.779   8.614 -0.5559  0.0839  0.2051
  279loPI   C5A 4459  13.647   1.057   8.319 -0.0889  0.1175 -0.1834
  279loPI   C6A 4460  13.250   1.297   8.163 -0.0576 -0.2572  0.0093
  279loPI   C1B 4461  12.924   0.620   9.984 -0.2019 -0.0509 -0.0561
  279loPI   C2B 4462  12.952   0.690   9.573 -0.1861  0.0984 -0.2734
  279loPI   C3B 4463  12.970   0.750   9.168 -0.1379 -0.0693 -0.5271
  279loPI   C4B 4464  12.998   0.650   8.815  0.1563  0.2133  0.2687
  280loPI    C1 4465  12.321  18.132  11.033  0.1674 -0.0598  0.0995
  280loPI    C2 4466  12.040  18.076  11.312  0.1564 -0.4234  0.0203
  280loPI    C3 4467  12.381  18.261  11.407 -0.0781 -0.0355  0.1326
  280loPI   PO4 4468  12.277  18.164  10.712  0.3880  0.1018 -0.0165
  280loPI   GL1 4469  12.361  17.972  10.240 -0.0216 -0.3680 -0.0491
  280loPI   GL2 4470  12.643  17.949  10.270 -0.1019  0.0365 -0.1187
  280loPI   C1A 4471  12.145  17.968   9.870  0.0824 -0.2261  0.0980
  280loPI   C2A 4472  12.149  17.931   9.421  0.2166  0.0984 -0.2902
  280loPI   C3A 4473  12.015  17.852   8.998 -0.0166 -0.0105 -0.2605
  280loPI   C4A 4474  12.040  18.041   8.717  0.0796 -0.0523  0.1626
  280loPI   C5A 4475  12.109  18.064   8.281 -0.2526 -0.0748  0.0549
  280loPI   C6A 4476  12.039  18.324   7.946  0.1032 -0.2202 -0.0211
  280loPI   C1B 4477  12.648  17.994   9.821  0.2383  0.3947  0.0734
  280loPI   C2B 4478  12.623  18.059   9.355  0.0368 -0.2687 -0.3899
  280loPI   C3B 4479  12.605  17.969   8.970 -0.0566 -0.2899 -0.3546
  280loPI   C4B 4480  12.557  17.919   8.542  0.2370  0.0259 -0.0187
  281loPI    C1 4481   6.743   8.941  10.616 -0.1184  0.3287  0.0453
  281loPI    C2 4482   7.134   8.904  10.691 -0.1229 -0.0694 -0.1031
  281loPI    C3 4483   6.875   8.943  10.994  0.0301  0.2165 -0.0052
  281loPI   PO4 4484   6.710   8.992  10.385  0.0729  0.1474 -0.0524
  281loPI   GL1 4485   6.763   9.007   9.929  0.0965  0.2943 -0.0210
  281loPI   GL2 4486   6.597   9.081   9.704 -0.2113  0.1901 -0.4122
  281loPI   C1A 4487   7.019   8.688   9.793 -0.2662 -0.0270  0.0515
  281loPI   C2A 4488   6.933   8.614   9.370  0.1368  0.0656  0.0166
  281loPI   C3A 4489   6.918   8.610   8.956 -0.0048 -0.1329  0.2881
  281loPI   C4A 4490   6.905   8.632   8.531  0.2151 -0.2160  0.1040
  281loPI   C5A 4491   6.951   8.606   8.116  0.3044  0.1571  0.1538
  281loPI   C6A 4492   6.796   8.481   7.616 -0.2804 -0.2194 -0.0786
  281loPI   C1B 4493   6.663   9.006   9.261 -0.1090  0.1167 -0.3448
  281loPI   C2B 4494   6.599   9.085   8.729  0.1655 -0.0625 -0.1513
  281loPI   C3B 4495   6.227   9.207   8.384 -0.1460  0.0787  0.1618
  281loPI   C4B 4496   5.798   9.423   8.047 -0.0417  0.1046 -0.4082
  282loPI    C1 4497  12.635  10.555  10.529  0.1489 -0.0132  0.1018
  282loPI    C2 4498  12.441  10.818  10.759  0.0175 -0.1172  0.1111
  282loPI    C3 4499  12.519  10.451  10.897 -0.1234 -0.2031 -0.0335
  282loPI   PO4 4500  12.494  10.511  10.344 -0.2831 -0.2461  0.1508
  282loPI   GL1 4501  12.351  10.738   9.909 -0.0559  0.3680  0.3033
  282loPI   GL2 4502  12.136  10.601   9.851  0.1657 -0.1668  0.3834
  282loPI   C1A 4503  12.581  10.763   9.470 -0.0513 -0.1180 -0.2116
  282loPI   C2A 4504  12.577  10.729   9.132 -0.0589 -0.2216 -0.1051
  282loPI   C3A 4505  12.565  10.796   8.718 -0.3214 -0.0168  0.2230
  282loPI   C4A 4506  12.307  10.660   8.340 -0.1486  0.0559 -0.0208
  282loPI   C5A 4507  11.873  10.481   8.198 -0.0729 -0.2558  0.0577
  282loPI   C6A 4508  11.566  10.473   7.889 -0.0246 -0.3712 -0.0366
  282loPI   C1B 4509  12.074  10.694   9.394  0.0935  0.1695  0.0549
  282loPI   C2B 4510  11.909  10.653   8.946  0.1138 -0.1564 -0.0493
  282loPI   C3B 4511  11.608  10.641   8.612 -0.0497 -0.2872 -0.3364
  282loPI   C4B 4512  11.301  10.595   8.297 -0.0950 -0.0058  0.0126
  283loPI    C1 4513  17.441  13.762  10.597 -0.0901  0.1119 -0.0914
  283loPI    C2 4514  17.823  13.832  10.694 -0.1085 -0.0630  0.1159
  283loPI    C3 4515  17.555  13.751  10.980 -0.3132  0.1085 -0.0236
  283loPI   PO4 4516  17.510  13.802  10.303 -0.1582  0.0106 -0.1135
  283loPI   GL1 4517  17.706  13.604  10.097  0.2584  0.0138  0.2987
  283loPI   GL2 4518  17.648  13.305  10.076 -0.1834 -0.0162 -0.0192
  283loPI   C1A 4519  17.715  13.654   9.642  0.1800  0.0081  0.1247
  283loPI   C2A 4520  17.755  13.655   9.179 -0.0435 -0.4729  0.1381
  283loPI   C3A 4521  17.751  13.644   8.738  0.2880  0.4085  0.2873
  283loPI   C4A 4522  17.683  13.681   8.270  0.1014  0.1700 -0.1558
  283loPI   C5A 4523  17.471  13.507   7.905  0.5033  0.1217  0.1825
  283loPI   C6A 4524  17.391  13.484   7.508  0.0862 -0.2592 -0.1508
  283loPI   C1B 4525  17.554  13.143   9.642  0.1550  0.0002 -0.1704
  283loPI   C2B 4526  17.628  13.161   9.227  0.0430  0.1738  0.0783
  283loPI   C3B 4527  17.558  13.139   8.724 -0.0675  0.1286  0.0715
  283loPI   C4B 4528  17.545  13.081   8.305  0.0121 -0.1007 -0.1197
  284loPI    C1 4529   8.273   4.494  10.817  0.2274 -0.1917  0.1828
  284loPI    C2 4530   8.621   4.651  10.699  0.0347 -0.1560 -0.3664
  284loPI    C3 4531   8.330   4.889  10.834  0.1611 -0.1700 -0.0614
  284loPI   PO4 4532   8.291   4.334  10.582 -0.1335 -0.3257  0.3740
  284loPI   GL1 4533   8.400   4.368  10.182  0.1137  0.2501  0.3622
  284loPI   GL2 4534   8.719   4.237  10.218  0.2695  0.3577 -0.1347
  284loPI   C1A 4535   7.988   4.642   9.944  0.1123 -0.0995  0.1981
  284loPI   C2A 4536   7.856   4.560   9.486 -0.3313  0.3282  0.0733
  284loPI   C3A 4537   7.767   4.505   9.044  0.5150  0.2485  0.1048
  284loPI   C4A 4538   7.638   4.533   8.636 -0.2067 -0.2748 -0.0098
  284loPI   C5A 4539   7.568   4.567   8.229  0.0457 -0.0226 -0.1256
  284loPI   C6A 4540   7.415   4.465   7.863  0.1075  0.1949 -0.0657
  284loPI   C1B 4541   8.658   4.130   9.856  0.0945  0.1111 -0.2771
  284loPI   C2B 4542   8.579   4.173   9.488 -0.0127  0.1851  0.0355
  284loPI   C3B 4543   8.557   4.203   8.994 -0.1392 -0.1502 -0.2215
  284loPI   C4B 4544   8.613   4.235   8.480  0.0818 -0.2209 -0.1438
  285loPI    C1 4545  11.788  17.161  10.571  0.0335  0.2506 -0.0406
  285loPI    C2 4546  11.591  16.915  10.816  0.2643  0.2818  0.1804
  285loPI    C3 4547  11.396  17.098  10.519  0.1100 -0.2507 -0.0597
  285loPI   PO4 4548  12.066  17.126  10.685  0.2134  0.0650 -0.0596
  285loPI   GL1 4549  12.419  17.034  10.415 -0.1067 -0.0606  0.3070
  285loPI   GL2 4550  12.127  17.059  10.190 -0.2399  0.2162  0.0045
  285loPI   C1A 4551  12.742  17.076   9.968  0.0074 -0.3584  0.5267
  285loPI   C2A 4552  12.770  17.160   9.519 -0.2122  0.0715  0.1378
  285loPI   C3A 4553  12.750  17.078   9.040  0.1331  0.1325  0.0906
  285loPI   C4A 4554  12.782  17.022   8.613 -0.0542  0.0369 -0.0511
  285loPI   C5A 4555  12.859  16.638   8.317  0.0349 -0.1599  0.1308
  285loPI   C6A 4556  12.998  16.375   8.071 -0.1139  0.1163 -0.1205
  285loPI   C1B 4557  12.220  17.026   9.770 -0.3510  0.0933 -0.0754
  285loPI   C2B 4558  12.199  17.039   9.331 -0.3428 -0.0124  0.2078
  285loPI   C3B 4559  12.191  17.109   8.902  0.2938  0.1909 -0.1032
  285loPI   C4B 4560  12.071  17.222   8.459  0.0192  0.2152  0.1120
  286loPI    C1 4561  12.636  14.615  10.817 -0.2467 -0.0721 -0.2022
  286loPI    C2 4562  12.623  14.844  11.144  0.3236  0.2346 -0.3796
  286loPI    C3 4563  12.745  14.464  11.171 -0.0768  0.1140 -0.1738
  286loPI   PO4 4564  12.694  14.793  10.664 -0.1691  0.0268  0.0489
  286loPI   GL1 4565  12.724  15.056  10.322  0.1415 -0.2441  0.2207
  286loPI   GL2 4566  12.756  14.798  10.178  0.1470 -0.0822 -0.2817
  286loPI   C1A 4567  12.945  15.326  10.027  0.3430 -0.1356 -0.2146
  286loPI   C2A 4568  13.023  15.362   9.627 -0.0263 -0.2461  0.2307
  286loPI   C3A 4569  12.978  15.208   9.247  0.1356 -0.0129 -0.1807
  286loPI   C4A 4570  13.004  15.350   8.882 -0.2005 -0.0231 -0.0928
  286loPI   C5A 4571  12.998  15.423   8.446  0.0510  0.0558 -0.1632
  286loPI   C6A 4572  13.261  15.416   8.112  0.0816  0.3802  0.1215
  286loPI   C1B 4573  12.705  14.885   9.719  0.0498  0.0868  0.0578
  286loPI   C2B 4574  12.765  14.790   9.324  0.1930  0.1089 -0.0153
  286loPI   C3B 4575  12.833  14.819   8.895  0.0348 -0.2987 -0.1674
  286loPI   C4B 4576  12.880  14.941   8.529 -0.0514  0.0525  0.0454
  287loPI    C1 4577  14.166   0.994  11.078  0.0576 -0.1169  0.0422
  287loPI    C2 4578  14.549   0.958  10.968  0.0603 -0.0638  0.0340
  287loPI    C3 4579  14.441   0.883  11.346  0.1053  0.0781  0.0758
  287loPI   PO4 4580  14.055   0.960  10.751 -0.3034  0.0662 -0.0353
  287loPI   GL1 4581  14.045   0.917  10.369  0.1628  0.1112  0.2308
  287loPI   GL2 4582  13.770   1.103  10.124  0.1113 -0.0441 -0.2693
  287loPI   C1A 4583  14.106   0.907   9.816 -0.2121  0.0709 -0.0289
  287loPI   C2A 4584  14.014   0.910   9.390 -0.1776  0.1211 -0.2684
  287loPI   C3A 4585  14.051   0.804   8.970 -0.2296 -0.1982 -0.1505
  287loPI   C4A 4586  14.095   0.993   8.571  0.1051  0.0040  0.2474
  287loPI   C5A 4587  14.069   0.996   8.153  0.2104  0.1927 -0.2497
  287loPI   C6A 4588  13.964   0.781   7.810 -0.0215  0.3109 -0.2646
  287loPI   C1B 4589  13.655   1.219   9.701  0.1165 -0.1424  0.3057
  287loPI   C2B 4590  13.699   1.229   9.241  0.1084 -0.1270 -0.1217
  287loPI   C3B 4591  13.711   1.291   8.770 -0.1274 -0.0627  0.0286
  287loPI   C4B 4592  13.948   1.472   8.379  0.1553  0.2235  0.1089
  288loPI    C1 4593  17.513   9.843  10.622 -0.0338  0.0116  0.0473
  288loPI    C2 4594  17.824   9.746  10.855 -0.1254  0.0581  0.1896
  288loPI    C3 4595  17.499   9.513  10.848 -0.0222 -0.0806 -0.0858
  288loPI   PO4 4596  17.702   9.825  10.343  0.0765 -0.0572  0.3602
  288loPI   GL1 4597  17.732   9.839   9.923 -0.4111  0.1282  0.3331
  288loPI   GL2 4598  18.032   9.807   9.877  0.2335 -0.1026  0.4221
  288loPI   C1A 4599  17.321   9.814   9.648  0.1819 -0.1170 -0.2187
  288loPI   C2A 4600  17.219   9.783   9.280  0.1337  0.2557 -0.0318
  288loPI   C3A 4601  17.101   9.939   8.884  0.2446 -0.0294  0.1793
  288loPI   C4A 4602  17.024   9.912   8.421  0.0257 -0.0903  0.0892
  288loPI   C5A 4603  17.028   9.887   7.991 -0.0141  0.1236  0.2150
  288loPI   C6A 4604  16.998   9.811   7.585 -0.0468  0.1629  0.3840
  288loPI   C1B 4605  17.857   9.934   9.467 -0.0878 -0.1621  0.3581
  288loPI   C2B 4606  17.688   9.963   9.001 -0.1466  0.0697  0.1308
  288loPI   C3B 4607  17.541   9.939   8.580  0.2445 -0.2242  0.2837
  288loPI   C4B 4608  17.682   9.643   8.252 -0.0209 -0.2224  0.1668
  289loPI    C1 4609   6.664   8.101  10.579  0.1107 -0.0653 -0.0437
  289loPI    C2 4610   6.281   8.108  10.697  0.1036 -0.0047 -0.0697
  289loPI    C3 4611   6.554   7.909  10.912  0.0907  0.1051  0.0490
  289loPI   PO4 4612   6.692   8.075  10.333 -0.0395  0.0443  0.2732
  289loPI   GL1 4613   6.421   7.822  10.166 -0.4216 -0.2939 -0.6527
  289loPI   GL2 4614   6.192   8.073  10.211  0.1221 -0.1713 -0.0028
  289loPI   C1A 4615   6.491   7.782   9.715  0.0053  0.3343 -0.1436
  289loPI   C2A 4616   6.587   7.754   9.397 -0.0587  0.2196 -0.3186
  289loPI   C3A 4617   6.525   7.622   9.036 -0.3109 -0.2039  0.1981
  289loPI   C4A 4618   6.584   7.674   8.646 -0.2080  0.2474  0.2167
  289loPI   C5A 4619   6.532   7.628   8.270  0.1751 -0.0797  0.1703
  289loPI   C6A 4620   6.757   7.447   7.971 -0.0880 -0.4022 -0.0375
  289loPI   C1B 4621   6.224   8.213   9.785 -0.0424 -0.3827 -0.1362
  289loPI   C2B 4622   6.083   8.206   9.289 -0.2676 -0.0953  0.2836
  289loPI   C3B 4623   6.273   8.068   8.917  0.0939 -0.1545  0.4130
  289loPI   C4B 4624   6.201   7.966   8.462 -0.3257  0.1166 -0.0520
  290loPI    C1 4625   7.661  11.631  10.659  0.1762 -0.1812  0.1784
  290loPI    C2 4626   7.384  11.631  10.948  0.1138  0.1202  0.1221
  290loPI    C3 4627   7.771  11.592  11.041  0.0601 -0.2479  0.2055
  290loPI   PO4 4628   7.588  11.889  10.457 -0.1680 -0.0375  0.3352
  290loPI   GL1 4629   7.451  11.762   9.985 -0.0267  0.1892 -0.0230
  290loPI   GL2 4630   7.176  11.970  10.167 -0.0326 -0.0513 -0.1908
  290loPI   C1A 4631   7.185  11.717   9.732 -0.0723 -0.1705  0.0196
  290loPI   C2A 4632   7.252  11.734   9.316  0.1404  0.1260  0.0742
  290loPI   C3A 4633   7.233  11.947   8.966 -0.1210 -0.1243  0.2850
  290loPI   C4A 4634   7.380  12.319   8.832 -0.0461  0.3656 -0.1758
  290loPI   C5A 4635   7.479  12.490   8.434  0.0896  0.2042  0.0285
  290loPI   C6A 4636   7.820  12.783   8.291 -0.0301  0.0673  0.0512
  290loPI   C1B 4637   7.230  12.367   9.861  0.3528  0.0665  0.0559
  290loPI   C2B 4638   7.508  12.643   9.639  0.0597  0.2162 -0.1345
  290loPI   C3B 4639   7.785  12.604   9.294  0.1342 -0.2655  0.1894
  290loPI   C4B 4640   7.773  12.673   8.914 -0.2191  0.1720  0.1681
  291loPI    C1 4641   4.872   5.724  10.372  0.0105 -0.0454  0.0626
  291loPI    C2 4642   4.691   6.051  10.514  0.0374 -0.0752  0.1661
  291loPI    C3 4643   4.980   5.873  10.726  0.0422 -0.1500  0.0975
  291loPI   PO4 4644   4.626   5.668  10.196 -0.1547 -0.1584  0.0360
  291loPI   GL1 4645   4.768   5.599   9.737  0.0923  0.0717 -0.1215
  291loPI   GL2 4646   5.132   5.567   9.924 -0.1158 -0.1124  0.2432
  291loPI   C1A 4647   4.814   5.410   9.376 -0.1840  0.1617  0.1104
  291loPI   C2A 4648   4.515   5.128   9.098  0.0696 -0.0417  0.0420
  291loPI   C3A 4649   4.387   5.036   8.696 -0.0722  0.1385  0.0076
  291loPI   C4A 4650   4.574   4.985   8.291  0.4664  0.5999 -0.0239
  291loPI   C5A 4651   4.510   4.740   7.806  0.2562  0.0995  0.1496
  291loPI   C6A 4652   4.747   4.262   7.820 -0.1857  0.1772 -0.0493
  291loPI   C1B 4653   5.179   5.697   9.480  0.1931 -0.0699 -0.0238
  291loPI   C2B 4654   5.205   5.603   9.030 -0.1953  0.1521  0.0162
  291loPI   C3B 4655   5.296   5.610   8.589 -0.3779  0.0204  0.0014
  291loPI   C4B 4656   5.299   5.598   8.113  0.0618 -0.2230 -0.1126
  292loPI    C1 4657  13.657   9.715  10.853 -0.0570  0.1859  0.1100
  292loPI    C2 4658  13.576   9.471  11.160 -0.2588  0.0462 -0.0516
  292loPI    C3 4659  13.863   9.747  11.195  0.0310 -0.2684  0.1058
  292loPI   PO4 4660  13.611   9.563  10.653 -0.0618  0.7109  0.3094
  292loPI   GL1 4661  13.517   9.546  10.242  0.1119  0.1466  0.1721
  292loPI   GL2 4662  13.779   9.709  10.187 -0.5447  0.0978  0.2100
  292loPI   C1A 4663  13.445   9.444   9.828 -0.1286  0.5448 -0.0210
  292loPI   C2A 4664  13.643   9.417   9.520 -0.1636 -0.1387  0.1248
  292loPI   C3A 4665  13.557   9.452   9.138  0.1019  0.2105 -0.0526
  292loPI   C4A 4666  13.508   9.549   8.741 -0.0455 -0.0618 -0.0806
  292loPI   C5A 4667  13.603   9.573   8.227 -0.4871 -0.0825  0.2940
  292loPI   C6A 4668  13.783   9.665   7.823 -0.2715  0.0704 -0.0627
  292loPI   C1B 4669  13.710   9.907   9.759  0.0714 -0.1343  0.1512
  292loPI   C2B 4670  13.762   9.878   9.318 -0.0583  0.2380  0.0990
  292loPI   C3B 4671  13.765   9.943   8.840  0.1814 -0.0073 -0.0287
  292loPI   C4B 4672  13.732  10.064   8.356 -0.0374  0.0332 -0.0564
  293loPI    C1 4673  18.242  13.607  10.511 -0.2165  0.1057 -0.0115
  293loPI    C2 4674  18.139  13.410  10.844 -0.0016 -0.2647 -0.1576
  293loPI    C3 4675  18.314  13.769  10.870 -0.3208 -0.1234  0.1153
  293loPI   PO4 4676  18.099  13.466  10.357 -0.2100 -0.1310  0.0296
  293loPI   GL1 4677  18.157  13.512   9.943 -0.3234 -0.0789  0.2149
  293loPI   GL2 4678  18.078  13.192   9.826 -0.0030  0.0657 -0.2058
  293loPI   C1A 4679  18.230  13.690   9.503  0.3324  0.1352 -0.0764
  293loPI   C2A 4680  18.260  13.765   9.018  0.3777  0.1715 -0.0441
  293loPI   C3A 4681  18.232  13.868   8.611 -0.1036  0.0452 -0.0284
  293loPI   C4A 4682  18.252  13.685   8.184  0.0591  0.0317 -0.0106
  293loPI   C5A 4683  18.543  13.322   8.185 -0.0094 -0.0267 -0.1177
  293loPI   C6A 4684  18.765  13.025   7.833 -0.0845  0.0016  0.0107
  293loPI   C1B 4685  18.121  13.094   9.327  0.0733  0.1439 -0.4057
  293loPI   C2B 4686  18.048  13.310   8.961  0.0375 -0.0107  0.0256
  293loPI   C3B 4687  18.027  13.315   8.537  0.2140 -0.1605 -0.0680
  293loPI   C4B 4688  17.987  13.293   8.056 -0.2511 -0.0809  0.3226
  294loPI    C1 4689  16.568   5.450  10.960  0.0113  0.3746  0.1988
  294loPI    C2 4690  16.543   5.088  11.128 -0.0054  0.2495 -0.0669
  294loPI    C3 4691  16.470   5.416  11.346 -0.0100  0.0933  0.1706
  294loPI   PO4 4692  16.670   5.388  10.669  0.0179  0.0054  0.3541
  294loPI   GL1 4693  16.776   5.711  10.374 -0.0410  0.3004  0.1588
  294loPI   GL2 4694  17.018   5.525  10.238  0.3005 -0.1048  0.0624
  294loPI   C1A 4695  16.712   5.820   9.922 -0.1063 -0.3421  0.0849
  294loPI   C2A 4696  16.619   5.707   9.471  0.1594  0.0066 -0.1291
  294loPI   C3A 4697  16.610   5.720   9.131  0.1503  0.2071 -0.1064
  294loPI   C4A 4698  16.515   5.676   8.803  0.2330  0.1541 -0.1139
  294loPI   C5A 4699  16.510   5.554   8.361 -0.0434 -0.0578 -0.2292
  294loPI   C6A 4700  16.712   5.334   8.062  0.2053 -0.1728 -0.1891
  294loPI   C1B 4701  16.964   5.356   9.821 -0.4005  0.1578 -0.0302
  294loPI   C2B 4702  16.904   5.314   9.421  0.1236  0.3745  0.2846
  294loPI   C3B 4703  16.806   5.301   9.017 -0.0472  0.6188 -0.1516
  294loPI   C4B 4704  16.857   5.243   8.591 -0.2881  0.2688 -0.0396
  295loPI    C1 4705   4.729  15.999  11.272 -0.0116 -0.0795  0.1901
  295loPI    C2 4706   4.367  15.874  11.158  0.0125 -0.0007  0.0253
  295loPI    C3 4707   4.562  15.682  11.449 -0.0521 -0.2011 -0.0624
  295loPI   PO4 4708   4.791  16.088  10.996 -0.3259 -0.1347  0.0964
  295loPI   GL1 4709   4.855  16.176  10.567 -0.3405 -0.2217 -0.0511
  295loPI   GL2 4710   4.642  16.131  10.310  0.0961 -0.2213 -0.0565
  295loPI   C1A 4711   4.951  16.584  10.293  0.2212  0.3609 -0.1150
  295loPI   C2A 4712   5.088  16.567   9.859 -0.1842 -0.1738  0.4415
  295loPI   C3A 4713   5.164  16.657   9.475 -0.2081 -0.2933 -0.0471
  295loPI   C4A 4714   5.127  16.495   9.103 -0.0037  0.1468 -0.0323
  295loPI   C5A 4715   5.215  16.610   8.771 -0.3058 -0.0025 -0.0215
  295loPI   C6A 4716   5.187  16.510   8.389 -0.0068  0.0083  0.1323
  295loPI   C1B 4717   4.871  16.086   9.937  0.3193  0.0689  0.1334
  295loPI   C2B 4718   5.041  15.982   9.507  0.0468  0.1841 -0.2248
  295loPI   C3B 4719   4.934  16.056   9.084 -0.1896  0.1660 -0.0269
  295loPI   C4B 4720   4.926  16.054   8.619  0.0763 -0.1429  0.1080
  296loPI    C1 4721   7.350  13.279  10.957  0.0250 -0.0074  0.2238
  296loPI    C2 4722   6.951  13.276  10.928  0.0240 -0.0887  0.2416
  296loPI    C3 4723   7.125  13.298  11.287  0.0362  0.1021  0.2255
  296loPI   PO4 4724   7.400  13.240  10.696  0.2551  0.1529 -0.3622
  296loPI   GL1 4725   7.028  13.462  10.441  0.0416  0.2992  0.1959
  296loPI   GL2 4726   7.336  13.621  10.292 -0.1558  0.2270 -0.0325
  296loPI   C1A 4727   6.772  13.472  10.011  0.1162 -0.1075 -0.4468
  296loPI   C2A 4728   6.729  13.639   9.546 -0.0284  0.4489  0.0930
  296loPI   C3A 4729   6.949  13.684   9.249  0.0901 -0.0549  0.0538
  296loPI   C4A 4730   6.865  13.679   8.863  0.2235  0.0790  0.1765
  296loPI   C5A 4731   7.009  13.779   8.458 -0.1707 -0.1689  0.2044
  296loPI   C6A 4732   7.261  13.961   8.318 -0.2731  0.0598 -0.1092
  296loPI   C1B 4733   7.290  13.653   9.863  0.1070  0.0019 -0.1287
  296loPI   C2B 4734   7.330  13.608   9.527 -0.2991  0.0429  0.2305
  296loPI   C3B 4735   7.411  13.662   9.064  0.2087 -0.0655  0.2721
  296loPI   C4B 4736   7.477  13.663   8.596  0.3070 -0.0205  0.0390
  297loPI    C1 4737   6.362   8.565  10.586 -0.0319 -0.0033 -0.1060
  297loPI    C2 4738   6.277   8.898  10.792 -0.0946  0.0571 -0.2282
  297loPI    C3 4739   6.243   8.540  10.967  0.4686  0.1367  0.0669
  297loPI   PO4 4740   6.296   8.602  10.364  0.1444 -0.0612 -0.0476
  297loPI   GL1 4741   6.627   8.431  10.041 -0.0766 -0.1525  0.2464
  297loPI   GL2 4742   6.395   8.663   9.856 -0.1377  0.1233 -0.1370
  297loPI   C1A 4743   6.712   8.227   9.663  0.0254 -0.2445 -0.2907
  297loPI   C2A 4744   6.654   8.229   9.193 -0.3990  0.0243  0.2011
  297loPI   C3A 4745   6.788   8.052   8.903  0.0765  0.0156 -0.1456
  297loPI   C4A 4746   6.640   8.176   8.508  0.2931  0.1583  0.0315
  297loPI   C5A 4747   6.773   8.154   8.085  0.1150  0.1214  0.0628
  297loPI   C6A 4748   6.597   7.969   7.804  0.0283 -0.3892 -0.0759
  297loPI   C1B 4749   6.418   8.576   9.439  0.3351  0.0942  0.2602
  297loPI   C2B 4750   6.399   8.627   8.973  0.0941 -0.0615 -0.1869
  297loPI   C3B 4751   6.405   8.659   8.479  0.2064 -0.0010  0.0376
  297loPI   C4B 4752   6.290   8.350   8.163 -0.1955 -0.1342  0.0025
  298loPI    C1 4753   7.726  12.974  11.016  0.1713 -0.0889  0.0559
  298loPI    C2 4754   7.624  12.746  11.329 -0.0487 -0.1693 -0.0720
  298loPI    C3 4755   7.589  13.144  11.351 -0.0214 -0.1719  0.0209
  298loPI   PO4 4756   7.687  12.876  10.803 -0.0345 -0.0078 -0.0808
  298loPI   GL1 4757   7.681  12.709  10.482  0.2510 -0.0479 -0.1199
  298loPI   GL2 4758   7.504  12.923  10.306 -0.1611  0.4067  0.1272
  298loPI   C1A 4759   7.856  12.739  10.042  0.0107 -0.0184  0.5074
  298loPI   C2A 4760   8.028  12.886   9.698 -0.0853  0.0615  0.1986
  298loPI   C3A 4761   8.256  12.750   9.230  0.3180 -0.0781  0.0924
  298loPI   C4A 4762   8.323  12.459   8.915 -0.0368  0.0945 -0.2198
  298loPI   C5A 4763   8.489  12.521   8.592 -0.1431 -0.1275  0.1334
  298loPI   C6A 4764   8.651  12.261   8.188  0.0405  0.0928  0.0889
  298loPI   C1B 4765   7.217  13.170  10.084  0.2847  0.0003 -0.0890
  298loPI   C2B 4766   7.077  13.226   9.644 -0.2054  0.0802 -0.0591
  298loPI   C3B 4767   7.145  13.239   9.225  0.4202  0.4924 -0.2020
  298loPI   C4B 4768   7.179  13.266   8.758  0.0137 -0.2705 -0.1416
  299loPI    C1 4769  12.468  12.614  10.707  0.0387 -0.0241 -0.1451
  299loPI    C2 4770  12.555  12.355  10.999 -0.0417  0.0459 -0.0584
  299loPI    C3 4771  12.192  12.521  10.981 -0.1219 -0.1527 -0.3475
  299loPI   PO4 4772  12.496  12.517  10.464  0.0695 -0.1077 -0.1586
  299loPI   GL1 4773  12.382  12.638  10.121 -0.1291 -0.3996 -0.0069
  299loPI   GL2 4774  12.105  12.759   9.963 -0.0165  0.2123 -0.1397
  299loPI   C1A 4775  12.378  12.422   9.718  0.0600  0.0857 -0.1245
  299loPI   C2A 4776  12.338  12.451   9.339 -0.0691 -0.0566  0.0784
  299loPI   C3A 4777  12.367  12.532   8.996  0.0841 -0.0473  0.1067
  299loPI   C4A 4778  12.302  12.557   8.576 -0.0848  0.0646  0.2107
  299loPI   C5A 4779  12.381  12.732   8.152  0.0354  0.1266  0.2472
  299loPI   C6A 4780  12.451  12.827   7.719  0.0450 -0.2661 -0.1339
  299loPI   C1B 4781  11.951  13.013   9.623  0.0963  0.0706 -0.1997
  299loPI   C2B 4782  11.951  12.910   9.177  0.0194  0.1541 -0.1481
  299loPI   C3B 4783  12.092  12.914   8.871 -0.0946 -0.2331  0.0970
  299loPI   C4B 4784  12.053  13.009   8.449 -0.3107  0.0709 -0.2461
  300loPI    C1 4785  13.795  12.618  11.114 -0.0104  0.1642  0.1997
  300loPI    C2 4786  14.066  12.714  11.391 -0.0348 -0.0879  0.3139
  300loPI    C3 4787  13.769  12.462  11.481 -0.0828 -0.1182  0.0771
  300loPI   PO4 4788  13.946  12.518  10.882 -0.2181 -0.2970 -0.1560
  300loPI   GL1 4789  13.919  12.443  10.348  0.2575  0.0663  0.1894
  300loPI   GL2 4790  13.832  12.692  10.389  0.0466  0.3663 -0.1504
  300loPI   C1A 4791  13.862  12.126  10.016 -0.1463  0.0448 -0.1010
  300loPI   C2A 4792  13.724  12.271   9.613 -0.1505 -0.1054 -0.0636
  300loPI   C3A 4793  13.719  12.203   9.291  0.1174 -0.0077  0.1233
  300loPI   C4A 4794  13.743  12.171   8.884  0.0634 -0.2442  0.1738
  300loPI   C5A 4795  13.616  12.177   8.436 -0.0333 -0.3803  0.0405
  300loPI   C6A 4796  13.637  12.352   8.057  0.0421 -0.0721 -0.1447
  300loPI   C1B 4797  13.791  12.726   9.939 -0.1576 -0.1454  0.5089
  300loPI   C2B 4798  13.914  12.702   9.499  0.2990  0.0773 -0.0364
  300loPI   C3B 4799  13.926  12.648   9.120  0.0715 -0.1470 -0.1301
  300loPI   C4B 4800  13.894  12.693   8.670 -0.2342  0.2437  0.0818
  301loPI    C1 4801  15.063   0.499  11.174 -0.1493  0.1563 -0.0868
  301loPI    C2 4802  14.668   0.491  11.112 -0.1783  0.0878  0.1034
  301loPI    C3 4803  14.815   0.424  11.478  0.0089  0.1303  0.0369
  301loPI   PO4 4804  15.025   0.665  10.784 -0.3987 -0.2169  0.2706
  301loPI   GL1 4805  14.767   0.835  10.445 -0.1685  0.0822 -0.0149
  301loPI   GL2 4806  15.080   0.715  10.252  0.3218  0.2915 -0.0790
  301loPI   C1A 4807  14.552   0.937  10.011 -0.3278 -0.1661  0.0789
  301loPI   C2A 4808  14.553   0.968   9.529 -0.0748  0.1278 -0.0820
  301loPI   C3A 4809  14.592   0.885   9.175 -0.2031  0.2024 -0.0707
  301loPI   C4A 4810  14.554   0.950   8.735 -0.4114 -0.1065  0.0980
  301loPI   C5A 4811  14.474   0.824   8.331  0.1216  0.1209  0.1144
  301loPI   C6A 4812  14.545   0.372   8.189 -0.1107 -0.1457  0.0456
  301loPI   C1B 4813  14.946   0.616   9.860 -0.0095  0.1181  0.1787
  301loPI   C2B 4814  14.858   0.540   9.411  0.1611 -0.0683 -0.0617
  301loPI   C3B 4815  14.826   0.443   8.943 -0.2074  0.1316  0.1004
  301loPI   C4B 4816  14.921   0.371   8.542 -0.2646  0.3756 -0.0349
  302loPI    C1 4817   7.973  10.263  10.958 -0.0190 -0.0227 -0.0208
  302loPI    C2 4818   8.326  10.434  10.884  0.0943 -0.1883  0.1287
  302loPI    C3 4819   8.098  10.569  11.183  0.1510 -0.2510  0.2007
  302loPI   PO4 4820   7.928  10.125  10.834 -0.0282 -0.2040  0.2123
  302loPI   GL1 4821   8.075  10.311  10.396  0.0940  0.4600 -0.0129
  302loPI   GL2 4822   7.998  10.024  10.220  0.0655 -0.1292  0.0908
  302loPI   C1A 4823   8.340  10.396   9.984 -0.0087 -0.0147  0.2360
  302loPI   C2A 4824   8.319  10.219   9.491 -0.1992  0.3568  0.0017
  302loPI   C3A 4825   7.994  10.089   9.207  0.0874  0.1364 -0.0788
  302loPI   C4A 4826   7.541  10.090   9.087 -0.1517 -0.2492  0.2268
  302loPI   C5A 4827   7.357  10.035   8.674  0.0274 -0.0309  0.4426
  302loPI   C6A 4828   7.226   9.878   8.254 -0.1289 -0.1261 -0.0251
  302loPI   C1B 4829   7.881  10.006   9.789 -0.2309 -0.1662 -0.2419
  302loPI   C2B 4830   7.602  10.219   9.575 -0.1079 -0.2912  0.0215
  302loPI   C3B 4831   7.685  10.560   9.285  0.1685 -0.0103 -0.1813
  302loPI   C4B 4832   7.958  10.671   8.957  0.1651  0.3231  0.0861
  303loPI    C1 4833  15.779   2.005  11.083  0.1284  0.1523 -0.2093
  303loPI    C2 4834  15.605   2.044  11.441  0.2356  0.0365 -0.1438
  303loPI    C3 4835  15.853   2.328  11.307  0.2927  0.0212 -0.0716
  303loPI   PO4 4836  15.575   2.066  10.862  0.3204 -0.0125  0.0545
  303loPI   GL1 4837  15.600   1.931  10.450 -0.3867 -0.2425  0.0343
  303loPI   GL2 4838  15.887   2.093  10.477  0.0555  0.0941 -0.0674
  303loPI   C1A 4839  15.463   1.897  10.010 -0.0005 -0.0052 -0.0315
  303loPI   C2A 4840  15.508   1.969   9.551  0.1429 -0.3410  0.0089
  303loPI   C3A 4841  15.522   1.901   9.117 -0.1244  0.1957 -0.1914
  303loPI   C4A 4842  15.398   1.868   8.718 -0.1509  0.0997  0.0569
  303loPI   C5A 4843  15.397   1.818   8.250 -0.2612  0.2662 -0.0924
  303loPI   C6A 4844  15.488   2.127   7.831 -0.0726  0.0128  0.1004
  303loPI   C1B 4845  16.014   2.101   9.974 -0.1277  0.3924  0.1861
  303loPI   C2B 4846  16.064   2.049   9.572 -0.5213  0.1007 -0.1439
  303loPI   C3B 4847  16.093   2.068   9.120 -0.0337 -0.2298  0.0599
  303loPI   C4B 4848  16.070   1.969   8.714 -0.0314 -0.2584 -0.1096
  304loPI    C1 4849  17.661   7.858  10.741 -0.1656  0.0403  0.0081
  304loPI    C2 4850  17.317   8.060  10.772 -0.0070  0.3509 -0.1956
  304loPI    C3 4851  17.657   8.222  10.907  0.0981  0.1464 -0.2095
  304loPI   PO4 4852  17.659   7.743  10.489  0.2864 -0.2732  0.0282
  304loPI   GL1 4853  17.387   7.993  10.290  0.0559  0.1370 -0.0979
  304loPI   GL2 4854  17.441   8.281  10.041 -0.0759 -0.0136 -0.0092
  304loPI   C1A 4855  17.226   7.671   9.978  0.0453  0.2869  0.1370
  304loPI   C2A 4856  17.316   7.674   9.623 -0.0247  0.1672 -0.2025
  304loPI   C3A 4857  17.244   7.649   9.248 -0.2964 -0.2423  0.2303
  304loPI   C4A 4858  17.205   7.634   8.793  0.2299 -0.0347  0.1476
  304loPI   C5A 4859  17.148   7.570   8.296  0.3198  0.1244  0.1839
  304loPI   C6A 4860  16.753   7.572   8.032  0.1242  0.2479  0.0590
  304loPI   C1B 4861  17.494   8.160   9.601 -0.2699  0.1207 -0.0516
  304loPI   C2B 4862  17.405   8.103   9.110  0.0367 -0.1363 -0.2532
  304loPI   C3B 4863  17.451   8.042   8.754 -0.0100 -0.0181 -0.1068
  304loPI   C4B 4864  17.343   8.022   8.222 -0.0285  0.3681  0.0030
  305loPI    C1 4865   7.700  13.872  10.844 -0.1256 -0.2326  0.0214
  305loPI    C2 4866   7.933  13.644  11.076  0.2059  0.2253  0.1555
  305loPI    C3 4867   7.546  13.691  11.165  0.1075 -0.3493  0.0699
  305loPI   PO4 4868   7.695  13.854  10.594  0.1105  0.2217  0.0676
  305loPI   GL1 4869   7.777  13.905  10.193  0.0526  0.0394  0.2677
  305loPI   GL2 4870   7.452  14.043  10.063 -0.0093  0.0618 -0.0322
  305loPI   C1A 4871   7.900  13.728   9.832 -0.1395  0.3701 -0.1256
  305loPI   C2A 4872   7.936  13.679   9.490 -0.2313 -0.1313  0.0902
  305loPI   C3A 4873   7.916  13.611   9.119 -0.1933  0.1420  0.2485
  305loPI   C4A 4874   7.974  13.798   8.712 -0.0842  0.3240  0.0935
  305loPI   C5A 4875   7.921  13.788   8.273  0.2485 -0.1364  0.0722
  305loPI   C6A 4876   7.819  14.163   7.986 -0.4033 -0.0644 -0.0855
  305loPI   C1B 4877   7.566  14.082   9.675 -0.2944 -0.0473  0.1566
  305loPI   C2B 4878   7.588  14.048   9.258 -0.0870 -0.2198 -0.3163
  305loPI   C3B 4879   7.560  14.119   8.807  0.2350 -0.2146  0.1459
  305loPI   C4B 4880   7.789  14.264   8.444  0.1433 -0.0024 -0.2424
  306loPI    C1 4881   8.249  14.747  11.339 -0.1591  0.0544 -0.1988
  306loPI    C2 4882   8.270  15.132  11.447 -0.2487  0.0159 -0.0407
  306loPI    C3 4883   8.073  14.871  11.677 -0.1840 -0.1259 -0.1451
  306loPI   PO4 4884   8.127  14.836  11.057 -0.1262  0.2545 -0.0615
  306loPI   GL1 4885   8.132  14.952  10.696  0.0180  0.3406  0.1261
  306loPI   GL2 4886   8.337  14.699  10.542 -0.3209  0.0356  0.0073
  306loPI   C1A 4887   7.945  14.978  10.338  0.0061  0.1537 -0.0437
  306loPI   C2A 4888   7.887  15.005   9.986  0.1918 -0.0902  0.0962
  306loPI   C3A 4889   7.857  15.012   9.552 -0.1219  0.2791 -0.1057
  306loPI   C4A 4890   8.081  15.131   9.212 -0.0241 -0.0783  0.3323
  306loPI   C5A 4891   8.081  15.225   8.800  0.5259 -0.1301  0.0245
  306loPI   C6A 4892   7.952  15.565   8.520 -0.1691  0.2607  0.2636
  306loPI   C1B 4893   8.275  14.647  10.178  0.0840 -0.0354 -0.0316
  306loPI   C2B 4894   8.297  14.600   9.748  0.2484  0.1742  0.3124
  306loPI   C3B 4895   8.362  14.691   9.305 -0.1453 -0.2153  0.3840
  306loPI   C4B 4896   8.374  14.831   8.912 -0.1877 -0.2289 -0.0193
  307loPI    C1 4897   2.676  12.522  10.417  0.0413 -0.2766  0.0534
  307loPI    C2 4898   2.947  12.691  10.658  0.0469 -0.2230  0.0097
  307loPI    C3 4899   2.622  12.517  10.814  0.0416 -0.1727  0.0551
  307loPI   PO4 4900   2.797  12.388  10.247 -0.4143 -0.0619 -0.1630
  307loPI   GL1 4901   2.943  12.454   9.902 -0.0530  0.0223  0.1850
  307loPI   GL2 4902   2.762  12.169   9.774  0.1699 -0.0634 -0.0155
  307loPI   C1A 4903   2.960  12.457   9.453  0.1990 -0.0439 -0.1665
  307loPI   C2A 4904   3.004  12.381   9.007 -0.0727  0.3883  0.1601
  307loPI   C3A 4905   3.131  12.498   8.615  0.0061 -0.0654  0.0261
  307loPI   C4A 4906   3.257  12.547   8.150  0.0301 -0.0554  0.0086
  307loPI   C5A 4907   3.384  12.343   7.821  0.1656 -0.2603 -0.1232
  307loPI   C6A 4908   3.591  12.345   7.603 -0.1797 -0.0721  0.0823
  307loPI   C1B 4909   2.742  11.999   9.335 -0.1650 -0.2492  0.0293
  307loPI   C2B 4910   3.015  11.868   8.957  0.1565  0.0885 -0.1352
  307loPI   C3B 4911   2.991  12.016   8.608  0.0492 -0.1090  0.3782
  307loPI   C4B 4912   2.962  12.065   8.129 -0.2048  0.4363 -0.2266
  308loPI    C1 4913  13.665  11.177  10.959  0.0451  0.2419 -0.0586
  308loPI    C2 4914  13.370  10.959  11.118  0.0337  0.1022 -0.2679
  308loPI    C3 4915  13.346  11.358  11.118 -0.0984  0.0949 -0.1753
  308loPI   PO4 4916  13.688  11.144  10.684  0.1990  0.1001  0.1040
  308loPI   GL1 4917  13.731  11.390  10.348 -0.4519  0.0466  0.1880
  308loPI   GL2 4918  13.978  11.218  10.188  0.1085 -0.0278  0.0869
  308loPI   C1A 4919  13.520  11.575  10.000  0.0805  0.2676  0.2594
  308loPI   C2A 4920  13.595  11.731   9.602  0.2612  0.0445 -0.0825
  308loPI   C3A 4921  13.529  11.720   9.202 -0.4783  0.2011  0.0718
  308loPI   C4A 4922  13.498  11.786   8.728 -0.4099 -0.0763 -0.2532
  308loPI   C5A 4923  13.410  11.771   8.240 -0.4652  0.2316 -0.0227
  308loPI   C6A 4924  13.512  11.592   7.904  0.4599  0.1672 -0.1383
  308loPI   C1B 4925  13.897  11.266   9.783  0.0487 -0.1331 -0.1337
  308loPI   C2B 4926  13.886  11.306   9.343 -0.0826 -0.0080 -0.2846
  308loPI   C3B 4927  13.708  11.302   8.849  0.1008  0.0870  0.0796
  308loPI   C4B 4928  13.738  11.446   8.405 -0.0901 -0.0935  0.0920
  309loPI    C1 4929  12.409   4.856  11.028  0.1501  0.1672 -0.0766
  309loPI    C2 4930  12.715   4.793  11.278 -0.0790  0.0259  0.1734
  309loPI    C3 4931  12.454   5.088  11.351  0.0210  0.1762 -0.0645
  309loPI   PO4 4932  12.447   4.583  10.926  0.0983  0.0416  0.2730
  309loPI   GL1 4933  12.509   4.487  10.574 -0.2031  0.3356 -0.0860
  309loPI   GL2 4934  12.179   4.533  10.442  0.0896 -0.0684 -0.0066
  309loPI   C1A 4935  12.664   4.288  10.204  0.0830 -0.2583  0.0016
  309loPI   C2A 4936  12.575   4.206   9.737  0.1796  0.1332  0.2613
  309loPI   C3A 4937  12.452   4.271   9.344  0.0436  0.1290 -0.0855
  309loPI   C4A 4938  12.398   4.193   8.946 -0.3120  0.1149  0.1998
  309loPI   C5A 4939  12.395   4.133   8.493  0.1278  0.2453 -0.0720
  309loPI   C6A 4940  12.314   4.435   8.138  0.1237 -0.2321  0.0892
  309loPI   C1B 4941  12.363   4.692  10.145 -0.0226  0.2595  0.3203
  309loPI   C2B 4942  12.223   4.612   9.762  0.2431  0.2167  0.3489
  309loPI   C3B 4943  12.117   4.682   9.397 -0.0277  0.0940 -0.2333
  309loPI   C4B 4944  12.146   4.614   8.990 -0.0231 -0.2465 -0.1241
  310loPI    C1 4945   3.813   5.608  10.833 -0.1625  0.0798 -0.0112
  310loPI    C2 4946   3.820   6.001  10.904 -0.0756  0.0341  0.2459
  310loPI    C3 4947   3.663   5.752  11.175 -0.2145 -0.1015  0.0440
  310loPI   PO4 4948   3.781   5.577  10.559 -0.2088  0.3111  0.0802
  310loPI   GL1 4949   3.552   5.600  10.221  0.1200 -0.1067 -0.1243
  310loPI   GL2 4950   3.826   5.677  10.077  0.1074 -0.1039  0.1850
  310loPI   C1A 4951   3.337   5.485   9.847  0.2764  0.1370  0.1431
  310loPI   C2A 4952   3.190   5.413   9.425  0.0168  0.0018  0.0395
  310loPI   C3A 4953   3.196   5.320   9.053  0.0667 -0.1080 -0.0595
  310loPI   C4A 4954   3.032   5.493   8.708  0.0137 -0.0202  0.1295
  310loPI   C5A 4955   3.032   5.578   8.203 -0.2147  0.0776  0.1260
  310loPI   C6A 4956   3.073   5.729   7.817 -0.1883 -0.1022  0.0816
  310loPI   C1B 4957   3.708   5.815   9.642  0.3562  0.0500  0.0582
  310loPI   C2B 4958   3.882   5.986   9.366 -0.0404  0.1896 -0.1786
  310loPI   C3B 4959   4.109   5.733   9.112 -0.0673 -0.2416 -0.2993
  310loPI   C4B 4960   4.102   5.424   8.884 -0.0483  0.2469 -0.0616
  311loPI    C1 4961  16.141   3.727  10.958 -0.0737 -0.3426 -0.1067
  311loPI    C2 4962  16.164   3.847  11.338 -0.0150  0.0255 -0.2224
  311loPI    C3 4963  16.126   3.458  11.253  0.2510 -0.0876  0.1501
  311loPI   PO4 4964  16.101   3.885  10.790  0.0282  0.3482  0.0250
  311loPI   GL1 4965  16.024   3.865  10.439 -0.0860 -0.1979 -0.1269
  311loPI   GL2 4966  15.823   3.686  10.242 -0.1422  0.2954 -0.0293
  311loPI   C1A 4967  16.219   3.722   9.957 -0.2233 -0.2760 -0.0280
  311loPI   C2A 4968  16.258   3.718   9.513  0.0681 -0.4559 -0.1167
  311loPI   C3A 4969  16.195   3.794   9.143 -0.0752  0.2797  0.1672
  311loPI   C4A 4970  16.142   3.819   8.720 -0.0876  0.0673 -0.1020
  311loPI   C5A 4971  16.203   3.875   8.286 -0.1906 -0.0347  0.1072
  311loPI   C6A 4972  15.888   3.623   8.042  0.0474 -0.4521 -0.0215
  311loPI   C1B 4973  15.754   3.705   9.761 -0.2495  0.0986 -0.0347
  311loPI   C2B 4974  15.712   3.752   9.316 -0.3018 -0.0406  0.3518
  311loPI   C3B 4975  15.618   3.775   8.820  0.0467 -0.1875  0.2605
  311loPI   C4B 4976  15.613   3.615   8.472  0.5114 -0.3325  0.1138
  312loPI    C1 4977   7.956   8.574  10.675  0.2445 -0.0768 -0.0609
  312loPI    C2 4978   7.758   8.534  11.020  0.0069 -0.4169 -0.2307
  312loPI    C3 4979   8.097   8.330  10.959  0.1535 -0.2085 -0.1281
  312loPI   PO4 4980   7.771   8.760  10.466 -0.3862  0.1572  0.0011
  312loPI   GL1 4981   7.915   8.892  10.064  0.3614  0.0829  0.2679
  312loPI   GL2 4982   7.678   8.694   9.902  0.1278  0.2294  0.0665
  312loPI   C1A 4983   7.970   8.969   9.594  0.0467 -0.1550 -0.0796
  312loPI   C2A 4984   7.946   8.682   9.219  0.4085 -0.1324  0.1245
  312loPI   C3A 4985   7.911   8.682   8.821  0.4075 -0.1044 -0.1093
  312loPI   C4A 4986   7.875   8.593   8.353 -0.0094 -0.1135  0.2059
  312loPI   C5A 4987   7.868   8.510   7.886  0.3755  0.1909 -0.1937
  312loPI   C6A 4988   7.989   8.578   7.588  0.1039  0.1067  0.0510
  312loPI   C1B 4989   7.447   8.770   9.485  0.0278  0.0954  0.1994
  312loPI   C2B 4990   7.397   8.640   9.030 -0.0392 -0.1351 -0.3623
  312loPI   C3B 4991   7.417   8.648   8.537  0.0949  0.0710 -0.0062
  312loPI   C4B 4992   7.494   8.754   8.046  0.1546  0.0340 -0.2022
  313loPI    C1 4993   8.949   8.346  10.388 -0.1933  0.0140 -0.0096
  313loPI    C2 4994   8.961   8.292  10.785 -0.0022  0.0223 -0.0133
  313loPI    C3 4995   9.228   8.531  10.607  0.1547 -0.2806 -0.1934
  313loPI   PO4 4996   8.891   8.092  10.331 -0.1258 -0.1120  0.2677
  313loPI   GL1 4997   8.656   7.994   9.945 -0.0923 -0.0686 -0.2949
  313loPI   GL2 4998   9.034   7.971   9.832 -0.0574 -0.1292 -0.0862
  313loPI   C1A 4999   8.562   7.949   9.537  0.0768 -0.2369  0.0122
  313loPI   C2A 5000   8.582   7.823   9.056 -0.0767 -0.0429 -0.4020
  313loPI   C3A 5001   8.749   7.942   8.679 -0.2622  0.1006 -0.0182
  313loPI   C4A 5002   8.937   7.861   8.393 -0.0558  0.0418  0.2928
  313loPI   C5A 5003   9.203   7.769   8.119 -0.2653 -0.0805  0.1338
  313loPI   C6A 5004   9.327   7.421   7.878 -0.2375  0.1809  0.1436
  313loPI   C1B 5005   9.000   7.931   9.375 -0.0056  0.0799  0.0256
  313loPI   C2B 5006   9.200   8.056   9.007 -0.0338 -0.1549 -0.2710
  313loPI   C3B 5007   9.330   8.112   8.525  0.2538 -0.0443 -0.0264
  313loPI   C4B 5008   9.404   8.205   8.045  0.1826 -0.0477 -0.2900
  314loPI    C1 5009   3.341  12.894  10.859  0.1511 -0.0433  0.0532
  314loPI    C2 5010   3.661  13.050  11.041  0.1112  0.0314  0.0595
  314loPI    C3 5011   3.312  13.024  11.236  0.1453 -0.1677  0.0964
  314loPI   PO4 5012   3.389  12.981  10.575 -0.2959  0.0133 -0.0702
  314loPI   GL1 5013   3.485  13.003  10.124 -0.0835  0.2778  0.0268
  314loPI   GL2 5014   3.561  13.367  10.185  0.0373  0.3075  0.1081
  314loPI   C1A 5015   3.675  13.123   9.783  0.0789 -0.0283 -0.0743
  314loPI   C2A 5016   3.524  13.108   9.356  0.1366 -0.0817  0.1169
  314loPI   C3A 5017   3.658  13.179   8.970  0.2241 -0.1110 -0.0524
  314loPI   C4A 5018   3.780  13.141   8.485  0.2185  0.0037  0.0222
  314loPI   C5A 5019   3.726  12.869   8.088  0.4639  0.2204  0.0590
  314loPI   C6A 5020   3.999  12.519   8.040  0.1802 -0.3498 -0.1301
  314loPI   C1B 5021   3.885  13.520   9.980  0.2650  0.0313  0.0134
  314loPI   C2B 5022   3.929  13.505   9.564 -0.0804 -0.0626 -0.0701
  314loPI   C3B 5023   3.908  13.691   9.041 -0.2939 -0.2767  0.1405
  314loPI   C4B 5024   4.115  13.801   8.563  0.0038  0.0153 -0.3399
  315loPI    C1 5025   0.030  11.455  10.367  0.2561 -0.0846 -0.0961
  315loPI    C2 5026   0.230  11.224  10.625  0.2268  0.0284  0.0292
  315loPI    C3 5027   0.255  11.622  10.653  0.0846  0.0425 -0.0335
  315loPI   PO4 5028   0.078  11.348  10.150  0.0261  0.1454 -0.1272
  315loPI   GL1 5029   0.043  11.218   9.854 -0.2084 -0.1081  0.1018
  315loPI   GL2 5030   0.366  11.156   9.751  0.3659 -0.3108  0.1325
  315loPI   C1A 5031  -0.042  11.332   9.490 -0.0039  0.0673 -0.0956
  315loPI   C2A 5032   0.066  11.479   9.084 -0.0496  0.1562  0.4239
  315loPI   C3A 5033  -0.026  11.415   8.723 -0.1732  0.1458  0.0367
  315loPI   C4A 5034  -0.043  11.434   8.283 -0.1093 -0.1947  0.0637
  315loPI   C5A 5035  -0.382  11.532   7.998 -0.0374  0.0724 -0.1655
  315loPI   C6A 5036  -0.438  12.004   7.823  0.5441  0.0367  0.0651
  315loPI   C1B 5037   0.455  11.380   9.374  0.2367  0.4599  0.2991
  315loPI   C2B 5038   0.481  11.344   8.877 -0.0924 -0.0822 -0.0464
  315loPI   C3B 5039   0.443  11.499   8.538 -0.3933  0.5437  0.3527
  315loPI   C4B 5040   0.422  11.696   8.178 -0.1554 -0.0758 -0.1873
  316loPI    C1 5041  11.227  13.931  10.972  0.1668  0.0297  0.0740
  316loPI    C2 5042  11.291  13.566  11.121  0.1692  0.0299  0.0733
  316loPI    C3 5043  11.493  13.878  11.266  0.1683  0.0307  0.0728
  316loPI   PO4 5044  11.201  13.906  10.668 -0.0501 -0.1684  0.0211
  316loPI   GL1 5045  11.393  13.798  10.395 -0.3655  0.2190  0.4081
  316loPI   GL2 5046  11.728  13.906  10.262  0.0114  0.0592 -0.0568
  316loPI   C1A 5047  11.359  13.722   9.962 -0.3933  0.2210  0.1919
  316loPI   C2A 5048  11.273  13.686   9.503 -0.1106  0.0588 -0.1164
  316loPI   C3A 5049  11.288  13.734   9.049  0.0551 -0.1782  0.2820
  316loPI   C4A 5050  11.388  13.754   8.747 -0.1755  0.0327  0.0667
  316loPI   C5A 5051  11.374  13.666   8.317 -0.0626  0.3460 -0.2380
  316loPI   C6A 5052  11.046  13.752   8.001  0.0263  0.0637 -0.3126
  316loPI   C1B 5053  11.830  13.823   9.735 -0.1445 -0.0209  0.0210
  316loPI   C2B 5054  11.919  13.833   9.290  0.3995  0.1863  0.1337
  316loPI   C3B 5055  11.941  13.909   8.863 -0.5149 -0.2471 -0.1076
  316loPI   C4B 5056  11.846  13.906   8.365  0.2448 -0.1202 -0.1232
  317loPI    C1 5057  15.893  18.238  10.926 -0.2302  0.0999  0.2521
  317loPI    C2 5058  15.798  17.918  11.146 -0.0595 -0.0508  0.1101
  317loPI    C3 5059  16.023  18.209  11.303 -0.2393  0.0155  0.2490
  317loPI   PO4 5060  15.714  18.298  10.783  0.1336  0.2488  0.2713
  317loPI   GL1 5061  15.528  18.110  10.434  0.0407 -0.1964  0.0647
  317loPI   GL2 5062  15.215  18.155  10.331  0.1851  0.1990 -0.0712
  317loPI   C1A 5063  15.610  18.004  10.033  0.0539 -0.0150 -0.2151
  317loPI   C2A 5064  15.572  17.925   9.553  0.0038  0.1618  0.1838
  317loPI   C3A 5065  15.508  17.882   9.184  0.2026 -0.1045 -0.0972
  317loPI   C4A 5066  15.438  17.874   8.809  0.4966  0.5878 -0.3628
  317loPI   C5A 5067  15.394  18.107   8.473  0.2636  0.2275 -0.1627
  317loPI   C6A 5068  15.064  18.171   8.135  0.4669  0.0252 -0.1514
  317loPI   C1B 5069  14.955  17.985   9.989  0.1780  0.1827 -0.2529
  317loPI   C2B 5070  14.911  17.917   9.527 -0.1159 -0.1202 -0.0941
  317loPI   C3B 5071  14.923  17.882   9.011 -0.1658  0.2675  0.0494
  317loPI   C4B 5072  14.898  17.857   8.558 -0.1530  0.0410  0.1211
  318loPI    C1 5073   0.966  15.662  10.545 -0.2259 -0.0351  0.1978
  318loPI    C2 5074   1.117  16.031  10.573  0.0743 -0.1196 -0.2103
  318loPI    C3 5075   1.220  15.752  10.841  0.0805  0.0122 -0.0740
  318loPI   PO4 5076   0.994  15.516  10.220 -0.3014  0.4191 -0.3383
  318loPI   GL1 5077   1.300  15.462   9.979 -0.3267 -0.1116  0.1195
  318loPI   GL2 5078   1.683  15.318   9.863 -0.0428 -0.3752  0.1596
  318loPI   C1A 5079   1.359  15.614   9.605  0.0474 -0.1440  0.1357
  318loPI   C2A 5080   1.628  15.721   9.165  0.3693  0.2065  0.1646
  318loPI   C3A 5081   1.765  15.750   8.749 -0.1341 -0.1134 -0.0557
  318loPI   C4A 5082   1.938  15.735   8.395 -0.1394 -0.0120 -0.0309
  318loPI   C5A 5083   2.033  15.668   7.975  0.0235  0.0921  0.2142
  318loPI   C6A 5084   2.129  15.358   7.777 -0.0531  0.0258 -0.1108
  318loPI   C1B 5085   1.678  15.266   9.354  0.0380  0.1637 -0.2651
  318loPI   C2B 5086   1.525  15.080   8.965  0.1451  0.0753  0.3785
  318loPI   C3B 5087   1.362  14.863   8.568  0.1181  0.1218  0.1070
  318loPI   C4B 5088   1.234  14.918   8.070 -0.0918  0.1138 -0.0305
  319loPI    C1 5089  11.850   0.368  11.199 -0.0681 -0.1205 -0.1195
  319loPI    C2 5090  11.578   0.662  11.203  0.0419 -0.0186 -0.0748
  319loPI    C3 5091  11.576   0.383  11.490 -0.2805 -0.2642 -0.3085
  319loPI   PO4 5092  11.940   0.325  10.988 -0.2317 -0.0863 -0.2612
  319loPI   GL1 5093  11.882   0.254  10.508 -0.0810  0.1985  0.2975
  319loPI   GL2 5094  12.088   0.577  10.313  0.0112  0.4012 -0.0782
  319loPI   C1A 5095  11.933   0.045  10.151  0.3389 -0.1342  0.0812
  319loPI   C2A 5096  11.828   0.110   9.728 -0.0101 -0.0137  0.0526
  319loPI   C3A 5097  11.826   0.073   9.421  0.0311  0.0989 -0.1346
  319loPI   C4A 5098  11.796  -0.000   9.117  0.0699  0.0377  0.0335
  319loPI   C5A 5099  11.626   0.054   8.738  0.0477 -0.2070  0.1226
  319loPI   C6A 5100  11.783   0.150   8.391 -0.2106 -0.0006 -0.2198
  319loPI   C1B 5101  11.962   0.549   9.910 -0.1507 -0.1353 -0.1439
  319loPI   C2B 5102  11.959   0.583   9.601  0.1209 -0.1700  0.0074
  319loPI   C3B 5103  12.053   0.559   9.139 -0.0934  0.0929  0.0249
  319loPI   C4B 5104  11.973   0.531   8.705  0.0026 -0.1705 -0.0767
  320loPI    C1 5105   3.457   6.908  10.562 -0.0582  0.2617 -0.0950
  320loPI    C2 5106   3.573   6.748  10.910 -0.1413  0.1599 -0.1139
  320loPI    C3 5107   3.498   7.140  10.886  0.2675  0.2422 -0.1185
  320loPI   PO4 5108   3.652   6.771  10.370  0.0293  0.0674  0.1260
  320loPI   GL1 5109   3.758   6.766   9.931  0.6900 -0.0603 -0.1478
  320loPI   GL2 5110   3.951   7.049   9.775  0.4623 -0.0565 -0.1630
  320loPI   C1A 5111   3.793   6.414   9.680  0.1040  0.0480 -0.1314
  320loPI   C2A 5112   3.436   6.237   9.520  0.1446  0.2925 -0.1036
  320loPI   C3A 5113   3.344   5.933   9.352  0.0146  0.0508 -0.1593
  320loPI   C4A 5114   3.271   5.944   8.934  0.1078  0.0681 -0.3554
  320loPI   C5A 5115   3.274   5.980   8.506 -0.2078  0.2794 -0.0899
  320loPI   C6A 5116   3.525   5.876   8.169  0.0802  0.2246 -0.2146
  320loPI   C1B 5117   4.001   7.037   9.354  0.0496 -0.0661 -0.0588
  320loPI   C2B 5118   3.919   6.835   8.969 -0.2197 -0.2168  0.0808
  320loPI   C3B 5119   3.875   6.800   8.511 -0.2277 -0.3595 -0.0132
  320loPI   C4B 5120   3.718   7.056   8.163 -0.0870 -0.1133  0.3280
  321loPI    C1 5121   9.259   4.008  10.983 -0.0173  0.0406  0.1102
  321loPI    C2 5122   9.574   3.992  11.229  0.0355  0.0474  0.0430
  321loPI    C3 5123   9.230   4.151  11.356 -0.0702 -0.3380  0.2556
  321loPI   PO4 5124   9.456   4.013  10.767 -0.1655  0.2232 -0.0739
  321loPI   GL1 5125   9.542   3.776  10.399 -0.0597  0.0587 -0.3061
  321loPI   GL2 5126   9.130   3.872  10.403 -0.0310 -0.0429 -0.1145
  321loPI   C1A 5127   9.520   3.833  10.015  0.1358  0.0781 -0.0366
  321loPI   C2A 5128   9.481   3.905   9.605  0.3852  0.0677  0.0084
  321loPI   C3A 5129   9.445   3.883   9.225  0.0621  0.1433 -0.0980
  321loPI   C4A 5130   9.424   3.915   8.801 -0.0539  0.2243  0.0538
  321loPI   C5A 5131   9.502   3.831   8.462  0.0084  0.2899  0.1838
  321loPI   C6A 5132   9.641   3.617   8.086 -0.0350 -0.1444  0.0276
  321loPI   C1B 5133   9.028   3.778   9.963  0.4136  0.0392 -0.2294
  321loPI   C2B 5134   8.888   3.754   9.565 -0.0149  0.0413  0.0833
  321loPI   C3B 5135   8.952   3.894   9.086  0.0440  0.0623 -0.1512
  321loPI   C4B 5136   8.916   3.839   8.723  0.0642 -0.1046 -0.1322
  322loPI    C1 5137   5.986  14.179  11.146 -0.1302 -0.0759 -0.0794
  322loPI    C2 5138   5.946  13.977  11.489  0.1885 -0.0139 -0.0029
  322loPI    C3 5139   6.077  14.355  11.493  0.2200 -0.0217 -0.1951
  322loPI   PO4 5140   5.884  13.974  10.926  0.2169 -0.1809 -0.3421
  322loPI   GL1 5141   5.657  14.034  10.455  0.2963 -0.0101 -0.1172
  322loPI   GL2 5142   5.592  14.356  10.312 -0.0753  0.0595  0.1957
  322loPI   C1A 5143   5.930  13.916  10.163 -0.1923  0.3382 -0.1355
  322loPI   C2A 5144   6.007  13.966   9.711 -0.1051  0.1015  0.2879
  322loPI   C3A 5145   5.959  13.904   9.324  0.3788  0.1101  0.3556
  322loPI   C4A 5146   5.995  13.977   8.949  0.1528  0.3523  0.0343
  322loPI   C5A 5147   6.085  13.933   8.514  0.1108 -0.0316 -0.3136
  322loPI   C6A 5148   5.965  14.116   8.120  0.0456 -0.2441  0.0138
  322loPI   C1B 5149   5.699  14.322   9.859  0.0062 -0.2763  0.2148
  322loPI   C2B 5150   5.675  14.285   9.375 -0.1807 -0.1045  0.2250
  322loPI   C3B 5151   5.700  14.371   8.927 -0.1787  0.1580 -0.1189
  322loPI   C4B 5152   5.545  14.407   8.479  0.0092 -0.2584  0.1702
  323loPI    C1 5153   4.366   3.048  10.778 -0.1364 -0.0403 -0.0538
  323loPI    C2 5154   4.744   3.172  10.740 -0.0251 -0.3653 -0.0462
  323loPI    C3 5155   4.546   3.236  11.082 -0.0495 -0.0127 -0.1220
  323loPI   PO4 5156   4.416   2.778  10.660  0.2549  0.0080  0.0217
  323loPI   GL1 5157   4.589   2.641  10.363  0.1261 -0.1347 -0.0095
  323loPI   GL2 5158   4.815   2.468  10.332  0.0044  0.2603  0.2752
  323loPI   C1A 5159   4.562   2.725   9.941 -0.0013  0.3492 -0.0301
  323loPI   C2A 5160   4.588   2.705   9.503 -0.5033 -0.0095  0.1656
  323loPI   C3A 5161   4.506   2.686   9.011  0.1811 -0.1019 -0.3444
  323loPI   C4A 5162   4.555   2.696   8.543 -0.0141  0.0299  0.0575
  323loPI   C5A 5163   4.918   2.524   8.289  0.0876 -0.1812  0.0094
  323loPI   C6A 5164   5.421   2.622   8.394 -0.0837  0.0091 -0.1996
  323loPI   C1B 5165   4.857   2.301   9.940 -0.2801 -0.1556  0.4025
  323loPI   C2B 5166   4.905   2.167   9.484 -0.0648  0.2774 -0.2988
  323loPI   C3B 5167   4.864   2.288   9.088 -0.2376  0.1009  0.1160
  323loPI   C4B 5168   4.938   2.156   8.668  0.2898  0.1469  0.1458
  324loPI    C1 5169   4.784   9.275  10.450  0.1551 -0.1588  0.0034
  324loPI    C2 5170   4.537   9.551  10.601  0.0513 -0.1164 -0.2384
  324loPI    C3 5171   4.850   9.424  10.815 -0.0609 -0.0188 -0.0126
  324loPI   PO4 5172   4.691   9.242  10.220  0.1123  0.0013  0.1319
  324loPI   GL1 5173   4.745   9.332   9.709  0.2737 -0.3435 -0.1672
  324loPI   GL2 5174   4.987   9.144   9.789  0.1267  0.1809  0.0495
  324loPI   C1A 5175   4.525   9.334   9.402 -0.1359 -0.1569  0.0896
  324loPI   C2A 5176   4.515   9.216   9.041 -0.0461 -0.1036 -0.1569
  324loPI   C3A 5177   4.307   9.276   8.792 -0.2801  0.2801  0.0675
  324loPI   C4A 5178   3.856   9.309   8.754  0.0557 -0.0889 -0.2900
  324loPI   C5A 5179   3.598   9.105   8.476 -0.1390  0.1128 -0.1656
  324loPI   C6A 5180   3.246   8.893   8.471  0.0826  0.2072  0.2833
  324loPI   C1B 5181   4.973   8.918   9.402 -0.1298 -0.0396 -0.0869
  324loPI   C2B 5182   4.860   8.910   8.952 -0.0684 -0.2518  0.0093
  324loPI   C3B 5183   4.900   9.030   8.545  0.3725 -0.4063 -0.1096
  324loPI   C4B 5184   5.090   8.879   8.280  0.0507  0.3854 -0.3912
  325loPI    C1 5185   6.111  11.088  10.678 -0.2436  0.3205  0.0237
  325loPI    C2 5186   5.732  11.209  10.637 -0.3416  0.0573  0.1314
  325loPI    C3 5187   5.845  11.013  10.967 -0.1285  0.0706  0.0678
  325loPI   PO4 5188   6.286  11.241  10.556  0.2167  0.1621 -0.1182
  325loPI   GL1 5189   6.206  11.160  10.144  0.0055  0.2452 -0.1149
  325loPI   GL2 5190   6.290  11.450  10.163  0.1064  0.1375 -0.0854
  325loPI   C1A 5191   6.317  11.313   9.686 -0.0021 -0.4239  0.2329
  325loPI   C2A 5192   6.224  11.654   9.400 -0.0203  0.1004  0.1375
  325loPI   C3A 5193   6.236  11.740   8.904  0.0277  0.0639 -0.0531
  325loPI   C4A 5194   6.438  11.462   8.555 -0.3484 -0.1136 -0.2338
  325loPI   C5A 5195   6.722  11.247   8.292 -0.3150 -0.0951  0.0027
  325loPI   C6A 5196   7.103  11.126   8.234 -0.4642 -0.0135 -0.1748
  325loPI   C1B 5197   6.355  11.770   9.972 -0.2297  0.1721  0.2848
  325loPI   C2B 5198   6.298  12.085   9.618  0.1335 -0.1229  0.2303
  325loPI   C3B 5199   6.396  12.172   9.187  0.0256  0.0479 -0.0434
  325loPI   C4B 5200   6.401  12.193   8.824 -0.0236 -0.2585 -0.3030
  326loPI    C1 5201   1.858   0.945  10.341 -0.0432 -0.1696  0.0678
  326loPI    C2 5202   1.604   1.189  10.530  0.0656 -0.0017 -0.0003
  326loPI    C3 5203   1.784   0.894  10.731  0.0542  0.0725  0.1197
  326loPI   PO4 5204   1.735   0.820  10.194 -0.0197  0.0307 -0.2533
  326loPI   GL1 5205   1.677   0.699   9.742  0.1892  0.0021  0.3108
  326loPI   GL2 5206   1.526   0.970   9.750  0.4798  0.1080 -0.1249
  326loPI   C1A 5207   1.712   0.733   9.324  0.0094  0.2656  0.2210
  326loPI   C2A 5208   1.502   0.784   8.987  0.1836 -0.0275  0.0783
  326loPI   C3A 5209   1.653   0.675   8.615 -0.2833 -0.2669  0.2564
  326loPI   C4A 5210   1.631   0.856   8.391  0.0920 -0.0795  0.1402
  326loPI   C5A 5211   1.521   1.046   7.981 -0.1513  0.0601 -0.1831
  326loPI   C6A 5212   1.448   1.450   7.754 -0.0399 -0.2508  0.0950
  326loPI   C1B 5213   1.251   0.979   9.509  0.1167 -0.0095 -0.0784
  326loPI   C2B 5214   1.084   1.046   9.071  0.1936 -0.0469  0.2610
  326loPI   C3B 5215   1.311   1.131   8.598  0.0126  0.0416 -0.0901
  326loPI   C4B 5216   1.172   1.427   8.255 -0.0805  0.1056 -0.2307
  327loPI    C1 5217   2.106   1.348  10.683  0.1340 -0.0673 -0.0333
  327loPI    C2 5218   1.838   1.433  10.967  0.0908  0.0048 -0.0949
  327loPI    C3 5219   2.119   1.156  11.033  0.0588 -0.0046  0.0041
  327loPI   PO4 5220   2.040   1.420  10.455 -0.0743 -0.0424 -0.3446
  327loPI   GL1 5221   2.343   1.394  10.132  0.1046  0.3084  0.1422
  327loPI   GL2 5222   2.090   1.104   9.900  0.3132  0.1320  0.1112
  327loPI   C1A 5223   2.432   1.588   9.718 -0.3114 -0.0182 -0.1829
  327loPI   C2A 5224   2.283   1.354   9.423  0.1289 -0.0216 -0.1671
  327loPI   C3A 5225   1.845   1.185   9.281 -0.1580 -0.0304  0.0389
  327loPI   C4A 5226   1.870   1.061   8.784 -0.5571 -0.0939 -0.0732
  327loPI   C5A 5227   1.704   1.339   8.367 -0.1952  0.0596 -0.1333
  327loPI   C6A 5228   1.725   1.697   8.094  0.0559  0.2140 -0.3191
  327loPI   C1B 5229   2.264   0.852   9.473  0.0384 -0.0569  0.2787
  327loPI   C2B 5230   2.365   1.067   9.023 -0.0051 -0.2151 -0.4467
  327loPI   C3B 5231   2.392   1.159   8.611 -0.2040 -0.3198  0.1419
  327loPI   C4B 5232   2.597   1.065   8.155  0.0177  0.0627  0.2743
  328loPI    C1 5233  14.575   2.029  11.069 -0.0748 -0.1285 -0.0420
  328loPI    C2 5234  14.205   1.943  11.196 -0.0919  0.0981  0.0655
  328loPI    C3 5235  14.519   1.869  11.432 -0.0748 -0.0188  0.0067
  328loPI   PO4 5236  14.539   1.902  10.793  0.2299  0.0002  0.1395
  328loPI   GL1 5237  14.202   1.785  10.703 -0.0045 -0.4517  0.0564
  328loPI   GL2 5238  13.955   1.689  10.440  0.1339 -0.0338 -0.0179
  328loPI   C1A 5239  14.422   1.784  10.201 -0.0053 -0.3050  0.0824
  328loPI   C2A 5240  14.469   1.811   9.762  0.0495 -0.1820 -0.3034
  328loPI   C3A 5241  14.439   1.724   9.264  0.3059 -0.2160 -0.0958
  328loPI   C4A 5242  14.392   1.908   8.823  0.5053  0.1733  0.0773
  328loPI   C5A 5243  14.439   1.765   8.461  0.3237  0.1730 -0.3153
  328loPI   C6A 5244  14.273   1.636   8.067  0.0327 -0.1667 -0.1987
  328loPI   C1B 5245  13.882   1.675  10.028 -0.0859 -0.1672  0.2942
  328loPI   C2B 5246  13.835   1.743   9.619  0.0355 -0.0115  0.0837
  328loPI   C3B 5247  13.917   1.756   9.231 -0.2621 -0.0937 -0.3380
  328loPI   C4B 5248  13.848   1.794   8.774 -0.0860  0.2072 -0.1230
  329loPI    C1 5249   1.620   9.552  10.158  0.0515 -0.1897  0.0049
  329loPI    C2 5250   1.449   9.314  10.430  0.0741 -0.1177  0.0823
  329loPI    C3 5251   1.754   9.552  10.535 -0.0434  0.0531  0.0407
  329loPI   PO4 5252   1.636   9.459  10.011 -0.2521 -0.0761  0.1053
  329loPI   GL1 5253   1.723   9.584   9.546 -0.0152  0.1980 -0.0511
  329loPI   GL2 5254   1.754   9.840   9.611 -0.1235 -0.1293  0.4940
  329loPI   C1A 5255   1.405   9.455   9.242 -0.2821  0.0096  0.0674
  329loPI   C2A 5256   1.031   9.503   8.926 -0.3376  0.0128 -0.0278
  329loPI   C3A 5257   0.781   9.814   8.609  0.1753 -0.0608 -0.0052
  329loPI   C4A 5258   0.787  10.081   8.208  0.1164 -0.1718 -0.0152
  329loPI   C5A 5259   1.078  10.241   8.008 -0.3166 -0.1380  0.2074
  329loPI   C6A 5260   1.371  10.579   8.122  0.0964  0.0765  0.0513
  329loPI   C1B 5261   1.736   9.837   9.128  0.0170 -0.0724  0.3276
  329loPI   C2B 5262   1.666   9.693   8.736 -0.0980  0.2542  0.0674
  329loPI   C3B 5263   1.590   9.417   8.344  0.0428  0.0958 -0.0528
  329loPI   C4B 5264   1.638   9.487   7.921  0.2976 -0.0023 -0.2865
  330loPI    C1 5265   1.397   4.166  10.781  0.1604  0.0860  0.1858
  330loPI    C2 5266   1.222   3.908  11.032 -0.0747  0.2881  0.2332
  330loPI    C3 5267   1.573   4.074  11.129 -0.0102  0.1250  0.2831
  330loPI   PO4 5268   1.334   4.003  10.506 -0.0142  0.1753  0.0003
  330loPI   GL1 5269   1.044   4.050  10.210 -0.1777 -0.0351  0.0337
  330loPI   GL2 5270   1.226   4.302  10.035  0.2365 -0.0254 -0.1643
  330loPI   C1A 5271   0.996   3.887   9.705  0.0615  0.2534  0.1329
  330loPI   C2A 5272   0.878   3.872   9.359  0.0347 -0.0602  0.1471
  330loPI   C3A 5273   0.960   3.839   8.941  0.1304  0.2814  0.2033
  330loPI   C4A 5274   1.093   3.956   8.499 -0.0274  0.0715 -0.1238
  330loPI   C5A 5275   1.009   4.170   8.038 -0.0900 -0.1455 -0.1015
  330loPI   C6A 5276   1.164   4.181   7.599  0.1176  0.2512  0.2731
  330loPI   C1B 5277   1.137   4.408   9.532 -0.0579 -0.2004 -0.0173
  330loPI   C2B 5278   1.219   4.260   9.220 -0.1142 -0.1014 -0.0255
  330loPI   C3B 5279   1.277   4.179   8.895  0.1612  0.0989  0.2808
  330loPI   C4B 5280   1.278   4.394   8.505  0.3242  0.0253  0.0099
  331loPI    C1 5281   1.541   7.181  10.505 -0.1682 -0.2378 -0.1978
  331loPI    C2 5282   1.523   6.796  10.615 -0.2186 -0.1457  0.1272
  331loPI    C3 5283   1.325   7.074  10.824 -0.1311  0.0667 -0.0670
  331loPI   PO4 5284   1.440   7.189  10.285 -0.1378  0.0681  0.0300
  331loPI   GL1 5285   1.033   7.225  10.020 -0.2255  0.1792  0.0011
  331loPI   GL2 5286   0.742   7.183   9.897 -0.2165 -0.3983 -0.0189
  331loPI   C1A 5287   1.117   7.182   9.550 -0.3096  0.0151 -0.1736
  331loPI   C2A 5288   0.996   7.008   9.200 -0.2565 -0.2401  0.3147
  331loPI   C3A 5289   1.112   6.650   8.896 -0.1105 -0.0233 -0.0900
  331loPI   C4A 5290   1.135   6.676   8.424  0.0773  0.3710 -0.0392
  331loPI   C5A 5291   0.849   6.879   8.157 -0.0904 -0.0713  0.1272
  331loPI   C6A 5292   1.076   7.124   7.803  0.0857 -0.0720 -0.1109
  331loPI   C1B 5293   0.657   7.036   9.581 -0.0233 -0.0708 -0.3317
  331loPI   C2B 5294   0.759   6.661   9.358  0.3769 -0.0187  0.2645
  331loPI   C3B 5295   0.566   6.597   9.004  0.0867 -0.0653  0.0128
  331loPI   C4B 5296   0.634   6.604   8.577  0.0182 -0.0698 -0.2362
  332loPI    C1 5297   7.880  16.424  11.037 -0.0451  0.0282 -0.1500
  332loPI    C2 5298   7.829  16.032  10.975 -0.0131 -0.0098  0.0557
  332loPI    C3 5299   7.527  16.253  11.115  0.0051  0.0154  0.0555
  332loPI   PO4 5300   7.927  16.511  10.815  0.0776  0.2162 -0.0519
  332loPI   GL1 5301   7.983  16.471  10.262 -0.3823  0.0832  0.2369
  332loPI   GL2 5302   7.735  16.736  10.426  0.2633  0.2483  0.1003
  332loPI   C1A 5303   7.988  16.468   9.808 -0.1905  0.0039  0.2258
  332loPI   C2A 5304   8.023  16.599   9.346  0.0501 -0.0004  0.0568
  332loPI   C3A 5305   8.086  16.560   8.917 -0.4508 -0.0341  0.3285
  332loPI   C4A 5306   8.089  16.527   8.496 -0.2202 -0.0502  0.1353
  332loPI   C5A 5307   8.320  16.393   8.083  0.0784 -0.0216 -0.1071
  332loPI   C6A 5308   8.335  16.610   7.748  0.1694  0.1720 -0.2373
  332loPI   C1B 5309   7.571  16.785  10.053 -0.3104  0.3033 -0.0975
  332loPI   C2B 5310   7.676  16.793   9.586  0.0575 -0.1265  0.0871
  332loPI   C3B 5311   7.664  16.996   9.229 -0.0497 -0.1786 -0.0197
  332loPI   C4B 5312   7.800  16.947   8.774 -0.1576 -0.2463  0.3757
  333loPI    C1 5313   8.776   0.344  11.235  0.1659  0.0828 -0.0784
  333loPI    C2 5314   9.094   0.502  11.419 -0.1000  0.2063  0.2867
  333loPI    C3 5315   8.878   0.218  11.600 -0.2316  0.1629  0.0653
  333loPI   PO4 5316   8.816   0.558  10.962 -0.1876 -0.1528 -0.2581
  333loPI   GL1 5317   8.965   0.547  10.446 -0.0334  0.1796 -0.0201
  333loPI   GL2 5318   9.139   0.899  10.570 -0.0544 -0.0143 -0.1439
  333loPI   C1A 5319   8.975   0.577  10.044  0.2427  0.0646  0.1723
  333loPI   C2A 5320   9.086   0.553   9.587  0.1351 -0.0213 -0.3370
  333loPI   C3A 5321   9.014   0.647   9.189  0.4321  0.0056  0.4246
  333loPI   C4A 5322   9.010   0.662   8.806 -0.3725  0.1833 -0.1624
  333loPI   C5A 5323   9.193   0.272   8.642 -0.0276 -0.3749 -0.2118
  333loPI   C6A 5324   9.305  -0.292   8.676 -0.0666  0.0387 -0.1847
  333loPI   C1B 5325   8.886   1.038  10.197 -0.1036  0.0189 -0.2030
  333loPI   C2B 5326   8.695   0.954   9.803 -0.2672  0.0493 -0.0069
  333loPI   C3B 5327   8.751   0.989   9.414 -0.1215 -0.1503  0.1430
  333loPI   C4B 5328   8.712   1.107   8.893  0.0078 -0.0625 -0.1799
  334loPI    C1 5329   0.708   3.255  10.910 -0.0841  0.0649 -0.1175
  334loPI    C2 5330   0.849   2.949  11.125  0.2148  0.0793 -0.2874
  334loPI    C3 5331   1.091   3.251  11.023 -0.0720  0.3665 -0.1377
  334loPI   PO4 5332   0.633   3.159  10.734 -0.2097 -0.1696  0.2016
  334loPI   GL1 5333   0.577   3.457  10.390 -0.1417  0.3290  0.3041
  334loPI   GL2 5334   0.754   3.322  10.205  0.1647 -0.0995 -0.0757
  334loPI   C1A 5335   0.293   3.454  10.013 -0.0172  0.1498  0.2213
  334loPI   C2A 5336   0.242   3.368   9.601  0.0197 -0.0430  0.2845
  334loPI   C3A 5337   0.262   3.321   9.137  0.0028 -0.1325 -0.0941
  334loPI   C4A 5338   0.242   3.333   8.748  0.1103 -0.0699 -0.3806
  334loPI   C5A 5339   0.218   3.285   8.293  0.3598  0.3411  0.1076
  334loPI   C6A 5340   0.284   3.364   7.872 -0.2153  0.2127  0.1688
  334loPI   C1B 5341   0.725   3.467   9.724 -0.1700 -0.2374  0.2107
  334loPI   C2B 5342   0.721   3.377   9.288 -0.0382 -0.1278 -0.0781
  334loPI   C3B 5343   0.688   3.364   8.828 -0.0301 -0.0816  0.1274
  334loPI   C4B 5344   0.651   3.179   8.478 -0.0760 -0.1656  0.0764
  335loPI    C1 5345   9.441  16.581  11.083  0.0049 -0.0822  0.0128
  335loPI    C2 5346   9.182  16.659  11.378 -0.1619 -0.0187 -0.1483
  335loPI    C3 5347   9.446  16.937  11.264 -0.1647 -0.0076 -0.1271
  335loPI   PO4 5348   9.348  16.498  10.869  0.0396 -0.1510 -0.0641
  335loPI   GL1 5349   9.419  16.335  10.515 -0.5106 -0.0835  0.0438
  335loPI   GL2 5350   9.467  16.558  10.322 -0.0607 -0.0360  0.2807
  335loPI   C1A 5351   9.249  16.171  10.211  0.2300 -0.1011 -0.2309
  335loPI   C2A 5352   9.389  16.206   9.797  0.3292 -0.0027 -0.1342
  335loPI   C3A 5353   9.475  16.299   9.259 -0.1028  0.1769  0.1316
  335loPI   C4A 5354   9.522  16.270   8.785  0.0019 -0.0946  0.0893
  335loPI   C5A 5355   9.637  16.295   8.388  0.0835 -0.0296  0.1547
  335loPI   C6A 5356   9.845  16.241   8.031 -0.0962 -0.2309 -0.0107
  335loPI   C1B 5357   9.585  16.654   9.924  0.0005  0.2165 -0.4517
  335loPI   C2B 5358   9.561  16.747   9.456 -0.0939  0.2324 -0.4287
  335loPI   C3B 5359   9.730  16.681   9.035  0.3525  0.0128  0.0477
  335loPI   C4B 5360   9.694  16.723   8.668  0.0122 -0.1292 -0.1121
  336loPI    C1 5361   3.522  16.048  10.716 -0.2671 -0.0598  0.1528
  336loPI    C2 5362   3.522  16.300  11.027  0.3272  0.0549  0.0718
  336loPI    C3 5363   3.381  15.928  11.070 -0.0177  0.2119  0.3488
  336loPI   PO4 5364   3.585  16.234  10.503 -0.2904  0.0333  0.0133
  336loPI   GL1 5365   3.640  16.453  10.055  0.2332  0.2867  0.1621
  336loPI   GL2 5366   3.532  16.713  10.152 -0.4155  0.2678 -0.0931
  336loPI   C1A 5367   3.717  16.371   9.640  0.2477 -0.1043  0.0106
  336loPI   C2A 5368   3.548  16.373   9.278 -0.0078 -0.2756  0.0660
  336loPI   C3A 5369   3.590  16.327   8.806 -0.0688 -0.2896  0.4162
  336loPI   C4A 5370   3.665  16.445   8.380 -0.1723 -0.0283  0.0233
  336loPI   C5A 5371   3.920  16.366   8.029 -0.1634  0.0260 -0.1172
  336loPI   C6A 5372   4.064  16.417   7.678 -0.1395 -0.1676  0.0196
  336loPI   C1B 5373   3.789  16.910   9.821 -0.0240 -0.0728 -0.0349
  336loPI   C2B 5374   3.904  16.830   9.508  0.0549  0.3343  0.0962
  336loPI   C3B 5375   3.701  16.812   9.156  0.0912 -0.1393  0.0190
  336loPI   C4B 5376   3.805  16.822   8.681 -0.0155  0.1786  0.0084
  337loPI    C1 5377   4.626  12.268  10.492 -0.2703 -0.3816 -0.2367
  337loPI    C2 5378   4.627  12.031  10.814 -0.0217  0.0047  0.0553
  337loPI    C3 5379   4.345  12.312  10.773  0.0995  0.1295  0.0703
  337loPI   PO4 5380   4.925  12.414  10.512 -0.3680  0.0681  0.1589
  337loPI   GL1 5381   5.155  12.435  10.169  0.0908 -0.2231  0.0547
  337loPI   GL2 5382   5.051  12.142   9.987  0.0568  0.0872 -0.2297
  337loPI   C1A 5383   5.073  12.808   9.800  0.0856  0.2884 -0.0147
  337loPI   C2A 5384   5.128  12.861   9.379 -0.0570 -0.2237 -0.0848
  337loPI   C3A 5385   5.131  12.965   8.956 -0.0574  0.0928  0.3122
  337loPI   C4A 5386   5.104  12.842   8.495 -0.1965 -0.2543  0.0497
  337loPI   C5A 5387   5.242  12.901   8.254  0.0780 -0.0634 -0.0690
  337loPI   C6A 5388   5.272  13.197   7.917  0.3589 -0.1017  0.1572
  337loPI   C1B 5389   5.026  12.337   9.644  0.0892 -0.3566 -0.2093
  337loPI   C2B 5390   4.977  12.401   9.199 -0.0783  0.0676  0.1245
  337loPI   C3B 5391   4.971  12.450   8.787 -0.0287  0.0536  0.1173
  337loPI   C4B 5392   5.042  12.397   8.301 -0.0668 -0.1548 -0.0409
  338loPI    C1 5393  16.306  10.526  10.950  0.0930  0.1194  0.0650
  338loPI    C2 5394  16.068  10.211  11.015  0.1634  0.0542  0.0085
  338loPI    C3 5395  16.292  10.357  11.312  0.4121 -0.1826 -0.0583
  338loPI   PO4 5396  16.144  10.623  10.748  0.0269  0.1471  0.5181
  338loPI   GL1 5397  16.057  10.603  10.318 -0.0990 -0.1851  0.1250
  338loPI   GL2 5398  16.264  10.578  10.169 -0.3796 -0.0713  0.0829
  338loPI   C1A 5399  15.767  10.604   9.947  0.2002 -0.2717  0.3550
  338loPI   C2A 5400  15.611  10.504   9.580  0.6197 -0.0272 -0.0811
  338loPI   C3A 5401  15.446  10.562   9.101 -0.0695  0.0139 -0.1634
  338loPI   C4A 5402  15.429  10.633   8.794  0.0276 -0.0904  0.0762
  338loPI   C5A 5403  15.371  10.838   8.352 -0.0840 -0.1147 -0.2490
  338loPI   C6A 5404  15.541  10.703   7.952 -0.1593 -0.0295  0.0758
  338loPI   C1B 5405  16.182  10.677   9.772 -0.0930 -0.0252  0.0021
  338loPI   C2B 5406  16.037  10.641   9.374  0.2691 -0.2167  0.1269
  338loPI   C3B 5407  15.930  10.632   9.022 -0.0210  0.0039  0.1327
  338loPI   C4B 5408  15.867  10.808   8.565  0.0220 -0.1455  0.2224
  339loPI    C1 5409  14.985   1.172  10.986 -0.3523 -0.2201 -0.1260
  339loPI    C2 5410  15.291   0.951  11.119 -0.1424 -0.0245 -0.2781
  339loPI    C3 5411  14.940   0.941  11.310  0.0113 -0.1131  0.0057
  339loPI   PO4 5412  14.915   1.236  10.750 -0.0142 -0.1842 -0.1375
  339loPI   GL1 5413  14.756   1.482  10.460 -0.2264 -0.0947 -0.4220
  339loPI   GL2 5414  14.402   1.353  10.553 -0.0863 -0.1475 -0.4189
  339loPI   C1A 5415  14.748   1.403  10.067  0.1848 -0.3356  0.0723
  339loPI   C2A 5416  14.796   1.381   9.638 -0.0718 -0.1183 -0.1324
  339loPI   C3A 5417  14.811   1.341   9.189  0.0418  0.3698 -0.1584
  339loPI   C4A 5418  14.697   1.386   8.820 -0.2631 -0.2270  0.0493
  339loPI   C5A 5419  14.702   1.276   8.344  0.0484  0.1990 -0.0709
  339loPI   C6A 5420  14.892   0.902   8.016  0.0392 -0.2083  0.3143
  339loPI   C1B 5421  14.232   1.338  10.074  0.2928  0.0992 -0.1025
  339loPI   C2B 5422  14.198   1.407   9.626 -0.1432  0.1347 -0.1322
  339loPI   C3B 5423  14.304   1.231   9.219  0.3836 -0.2741  0.0690
  339loPI   C4B 5424  14.218   1.406   8.834  0.0668  0.1004  0.2046
  340loPI    C1 5425  17.666  11.376  10.766  0.0590 -0.1172  0.0621
  340loPI    C2 5426  18.030  11.541  10.769  0.0362 -0.0621 -0.1178
  340loPI    C3 5427  17.850  11.447  11.114  0.1766  0.0074 -0.0249
  340loPI   PO4 5428  17.732  11.253  10.440 -0.2739  0.0622  0.0033
  340loPI   GL1 5429  17.845  11.225  10.046  0.2159  0.1552  0.5183
  340loPI   GL2 5430  17.705  10.900  10.117  0.3196 -0.1952  0.3235
  340loPI   C1A 5431  17.771  11.291   9.611 -0.3974  0.1083  0.1048
  340loPI   C2A 5432  17.719  11.362   9.196  0.2458 -0.0908  0.1692
  340loPI   C3A 5433  17.696  11.386   8.776  0.1550 -0.0584 -0.2674
  340loPI   C4A 5434  17.558  11.419   8.461 -0.2153 -0.1209  0.0113
  340loPI   C5A 5435  17.442  11.655   8.118  0.1374  0.2016 -0.0730
  340loPI   C6A 5436  17.042  11.688   7.949 -0.0641  0.0301 -0.0304
  340loPI   C1B 5437  17.648  10.831   9.688 -0.1532  0.3364  0.1048
  340loPI   C2B 5438  17.520  10.843   9.220  0.1757  0.2347  0.1620
  340loPI   C3B 5439  17.438  10.889   8.801 -0.1134  0.3676 -0.0156
  340loPI   C4B 5440  17.392  10.914   8.419 -0.2521  0.0398  0.0381
  341loPI    C1 5441  17.242   7.043  11.167 -0.2115  0.2145  0.2828
  341loPI    C2 5442  17.559   7.265  11.267  0.1113 -0.1414  0.0785
  341loPI    C3 5443  17.490   6.919  11.455 -0.0078 -0.1923 -0.0577
  341loPI   PO4 5444  17.212   7.053  10.924 -0.2313 -0.2000  0.0688
  341loPI   GL1 5445  17.266   7.096  10.475  0.4362 -0.1427 -0.1620
  341loPI   GL2 5446  17.459   7.350  10.272 -0.1787  0.1486  0.1491
  341loPI   C1A 5447  17.105   7.176   9.967  0.2673  0.0991 -0.2696
  341loPI   C2A 5448  17.134   7.169   9.525  0.1446  0.0017  0.2007
  341loPI   C3A 5449  17.030   7.215   9.114 -0.1560 -0.1351  0.1174
  341loPI   C4A 5450  16.957   7.185   8.631  0.0675 -0.1032 -0.0279
  341loPI   C5A 5451  17.011   7.100   8.183 -0.1301 -0.1019 -0.1486
  341loPI   C6A 5452  17.433   7.228   7.944  0.2253 -0.1442 -0.1379
  341loPI   C1B 5453  17.577   7.272   9.786  0.3303 -0.0894  0.0305
  341loPI   C2B 5454  17.524   7.208   9.264 -0.0946  0.1379  0.0090
  341loPI   C3B 5455  17.572   7.240   8.904  0.0593  0.0948  0.1004
  341loPI   C4B 5456  17.446   7.268   8.462 -0.0759  0.2217 -0.2025
  342loPI    C1 5457  17.145  17.857  11.004  0.1442  0.1718 -0.1114
  342loPI    C2 5458  17.315  17.538  11.175  0.0127  0.0278 -0.2463
  342loPI    C3 5459  17.368  17.901  11.334  0.1510 -0.0619 -0.0829
  342loPI   PO4 5460  17.215  17.800  10.717 -0.1373  0.1439  0.0563
  342loPI   GL1 5461  17.183  17.843  10.226 -0.1089 -0.0051 -0.0065
  342loPI   GL2 5462  17.286  17.907   9.917 -0.2644  0.0592 -0.2146
  342loPI   C1A 5463  16.903  17.574   9.987  0.2422  0.0971 -0.3223
  342loPI   C2A 5464  16.975  17.242   9.858 -0.3644 -0.2458 -0.1887
  342loPI   C3A 5465  16.923  16.953   9.542 -0.0638  0.1167  0.0353
  342loPI   C4A 5466  16.651  16.729   9.227 -0.2889 -0.0948  0.0404
  342loPI   C5A 5467  16.568  16.395   9.041  0.0221  0.0166 -0.1510
  342loPI   C6A 5468  16.357  16.177   8.783 -0.0558 -0.0850 -0.0408
  342loPI   C1B 5469  17.031  17.771   9.560  0.2436 -0.3485 -0.0387
  342loPI   C2B 5470  16.878  17.799   9.172 -0.0548  0.3334 -0.2478
  342loPI   C3B 5471  16.865  17.606   8.711 -0.0232  0.1300  0.0906
  342loPI   C4B 5472  17.035  17.334   8.517  0.2898 -0.0597 -0.0914
  343loPI    C1 5473   1.253   8.793  10.250 -0.2055 -0.0120 -0.0541
  343loPI    C2 5474   1.121   8.484  10.467 -0.0469  0.0414  0.1211
  343loPI    C3 5475   1.495   8.615  10.514 -0.0764  0.1855 -0.0380
  343loPI   PO4 5476   1.195   8.786   9.944 -0.1841  0.0843  0.2119
  343loPI   GL1 5477   0.929   8.760   9.586 -0.1353  0.0074 -0.3863
  343loPI   GL2 5478   0.948   8.432   9.625 -0.0899  0.2254 -0.0775
  343loPI   C1A 5479   1.053   8.970   9.158 -0.0582  0.0694 -0.2058
  343loPI   C2A 5480   1.180   8.779   8.785  0.1877  0.0691  0.3189
  343loPI   C3A 5481   1.436   8.877   8.360 -0.1661  0.0839 -0.1278
  343loPI   C4A 5482   1.385   9.112   7.971 -0.1734 -0.0370 -0.2276
  343loPI   C5A 5483   1.536   9.154   7.481 -0.3006  0.3048 -0.0290
  343loPI   C6A 5484   1.480   9.322   7.109  0.3975 -0.2385 -0.3199
  343loPI   C1B 5485   1.000   8.471   9.135  0.3733 -0.0299  0.3150
  343loPI   C2B 5486   0.936   8.242   8.686  0.0458 -0.0251 -0.2181
  343loPI   C3B 5487   1.158   8.430   8.324 -0.0664 -0.1499  0.5661
  343loPI   C4B 5488   1.435   8.553   7.955  0.2914 -0.1681  0.0998
  344loPI    C1 5489   2.339  15.745  10.369  0.1370  0.0790 -0.1375
  344loPI    C2 5490   2.570  15.516  10.602 -0.0586  0.0730  0.0543
  344loPI    C3 5491   2.473  15.886  10.719 -0.0727  0.1081 -0.0672
  344loPI   PO4 5492   2.418  15.734  10.198  0.0763 -0.1139 -0.0034
  344loPI   GL1 5493   2.535  15.972   9.850 -0.1223 -0.2396 -0.1945
  344loPI   GL2 5494   2.847  16.142   9.789 -0.3365  0.0256 -0.1983
  344loPI   C1A 5495   2.591  15.766   9.423  0.0296  0.0886 -0.1508
  344loPI   C2A 5496   2.846  15.779   9.024 -0.1634  0.3455 -0.3512
  344loPI   C3A 5497   2.864  15.797   8.609  0.0534  0.2194 -0.0353
  344loPI   C4A 5498   2.916  15.962   8.224  0.0044 -0.1470 -0.0324
  344loPI   C5A 5499   3.154  15.746   7.945 -0.1967 -0.3089 -0.0399
  344loPI   C6A 5500   3.145  15.516   7.624  0.0833 -0.0173  0.0555
  344loPI   C1B 5501   3.069  16.305   9.452 -0.2337 -0.3471  0.1531
  344loPI   C2B 5502   3.138  16.264   8.982 -0.2391 -0.0588 -0.0527
  344loPI   C3B 5503   3.131  16.312   8.490 -0.5556 -0.0860 -0.2797
  344loPI   C4B 5504   3.198  16.343   8.051  0.0817 -0.1349 -0.1238
  345loPI    C1 5505   2.981   6.945  10.517  0.2178 -0.2186  0.1722
  345loPI    C2 5506   3.027   7.066  10.896 -0.2580  0.0639  0.1473
  345loPI    C3 5507   2.737   6.807  10.802 -0.0595 -0.1062 -0.0069
  345loPI   PO4 5508   2.984   7.027  10.302  0.4290  0.1096 -0.0675
  345loPI   GL1 5509   3.155   7.031   9.947  0.0844 -0.0156 -0.4587
  345loPI   GL2 5510   3.233   6.716   9.996  0.1644 -0.1380  0.0874
  345loPI   C1A 5511   3.502   7.062   9.536  0.0909 -0.0834  0.1852
  345loPI   C2A 5512   3.445   7.016   9.090 -0.0563 -0.0756 -0.0636
  345loPI   C3A 5513   3.581   7.166   8.656 -0.0995  0.1409 -0.0946
  345loPI   C4A 5514   3.298   7.387   8.414 -0.1204 -0.0038 -0.0076
  345loPI   C5A 5515   3.068   7.409   8.096  0.1617  0.1290  0.1036
  345loPI   C6A 5516   2.965   7.712   7.834  0.4260  0.1298 -0.0642
  345loPI   C1B 5517   3.172   6.761   9.536  0.1663 -0.0452 -0.0647
  345loPI   C2B 5518   2.928   6.844   9.129 -0.2198  0.4450  0.2508
  345loPI   C3B 5519   3.077   6.948   8.749 -0.0808 -0.0804 -0.1153
  345loPI   C4B 5520   2.882   6.855   8.352 -0.0781 -0.1292 -0.0167
  346loPI    C1 5521   6.107   5.715  11.020 -0.0828  0.0498  0.0079
  346loPI    C2 5522   6.287   6.050  11.143 -0.0047 -0.0391  0.1376
  346loPI    C3 5523   5.970   5.908  11.342 -0.0605 -0.0228  0.0610
  346loPI   PO4 5524   6.086   5.854  10.688  0.1253  0.1951  0.1907
  346loPI   GL1 5525   6.152   5.571  10.290  0.0476 -0.0042  0.2289
  346loPI   GL2 5526   6.265   5.328  10.308 -0.1475  0.0157  0.0717
  346loPI   C1A 5527   6.194   5.762   9.884  0.2474 -0.2287  0.0987
  346loPI   C2A 5528   6.294   5.859   9.458  0.1921  0.1386 -0.2328
  346loPI   C3A 5529   6.316   5.750   9.110  0.1382  0.1450 -0.2479
  346loPI   C4A 5530   6.255   5.646   8.700 -0.2055 -0.1179 -0.1825
  346loPI   C5A 5531   6.251   5.626   8.230  0.0689 -0.1063  0.1096
  346loPI   C6A 5532   6.137   5.673   7.838  0.2321  0.0055 -0.1561
  346loPI   C1B 5533   6.488   5.068   9.911  0.0169  0.0365  0.2503
  346loPI   C2B 5534   6.483   4.905   9.494 -0.1326  0.1536  0.3422
  346loPI   C3B 5535   6.356   4.741   9.073  0.1468  0.1877 -0.1921
  346loPI   C4B 5536   6.400   4.773   8.665  0.0116  0.0463  0.2637
  347loPI    C1 5537   8.524   1.199  11.288 -0.2413 -0.0613  0.1431
  347loPI    C2 5538   8.362   0.847  11.189  0.2485 -0.2596  0.0136
  347loPI    C3 5539   8.717   0.859  11.373  0.2058  0.1683  0.0798
  347loPI   PO4 5540   8.432   1.369  11.004 -0.5096  0.2632 -0.2612
  347loPI   GL1 5541   8.512   1.449  10.585  0.2962  0.0127  0.1816
  347loPI   GL2 5542   8.838   1.436  10.464 -0.0559 -0.2176  0.0601
  347loPI   C1A 5543   8.448   1.341  10.215  0.0665 -0.1180  0.3211
  347loPI   C2A 5544   8.383   1.396   9.820 -0.1002 -0.3868 -0.1227
  347loPI   C3A 5545   8.460   1.435   9.397 -0.0756  0.1674 -0.1939
  347loPI   C4A 5546   8.470   1.494   9.011  0.0469 -0.2202  0.1748
  347loPI   C5A 5547   8.531   1.592   8.586 -0.1599  0.1293 -0.4571
  347loPI   C6A 5548   8.550   1.694   8.226  0.1169 -0.0239 -0.0175
  347loPI   C1B 5549   8.909   1.491  10.035  0.0968 -0.0158  0.4522
  347loPI   C2B 5550   8.954   1.461   9.622 -0.2581 -0.0988 -0.3600
  347loPI   C3B 5551   9.007   1.585   9.247 -0.3203 -0.1540  0.0585
  347loPI   C4B 5552   8.962   1.551   8.878  0.1254 -0.0641  0.2430
  348loPI    C1 5553  14.637   4.261  11.095 -0.1074  0.0394 -0.0146
  348loPI    C2 5554  14.584   3.955  11.347 -0.0637 -0.1758 -0.2622
  348loPI    C3 5555  14.953   4.083  11.263 -0.0843 -0.0191 -0.1186
  348loPI   PO4 5556  14.536   4.177  10.880 -0.1504 -0.2176 -0.0486
  348loPI   GL1 5557  14.611   4.048  10.519  0.0154  0.0236  0.0596
  348loPI   GL2 5558  14.567   4.171  10.293  0.2518 -0.1730 -0.0911
  348loPI   C1A 5559  14.774   3.675  10.287 -0.0857  0.4103  0.1020
  348loPI   C2A 5560  14.683   3.652   9.769  0.1903  0.0490 -0.0907
  348loPI   C3A 5561  14.693   3.703   9.294 -0.0268 -0.0379  0.1824
  348loPI   C4A 5562  14.621   3.593   8.921 -0.3273  0.1062  0.1165
  348loPI   C5A 5563  14.451   3.574   8.520 -0.0331  0.3486 -0.2260
  348loPI   C6A 5564  14.594   3.556   8.061  0.0189 -0.2134 -0.1688
  348loPI   C1B 5565  14.419   4.008   9.965 -0.0115 -0.0385  0.0447
  348loPI   C2B 5566  14.344   4.047   9.530  0.1009  0.1532  0.3547
  348loPI   C3B 5567  14.300   3.956   9.120 -0.0588 -0.2399  0.0962
  348loPI   C4B 5568  14.216   4.029   8.686 -0.0151 -0.2641 -0.0576
  349loPI    C1 5569   2.587   9.343  10.108 -0.0475 -0.1198  0.1228
  349loPI    C2 5570   2.825   9.028  10.172  0.2763  0.0863 -0.0435
  349loPI    C3 5571   2.696   9.246  10.481  0.2122 -0.0911  0.0564
  349loPI   PO4 5572   2.660   9.441   9.925  0.1029 -0.3184  0.0396
  349loPI   GL1 5573   2.663   9.552   9.491  0.1685  0.3300  0.0430
  349loPI   GL2 5574   2.445   9.330   9.425 -0.0353 -0.0953  0.1477
  349loPI   C1A 5575   2.933   9.380   9.191 -0.0894 -0.0770 -0.0557
  349loPI   C2A 5576   3.096   9.357   8.681  0.1324  0.0172  0.1025
  349loPI   C3A 5577   3.383   9.586   8.468 -0.5418  0.3153  0.0569
  349loPI   C4A 5578   3.423   9.873   8.205  0.0202 -0.1089  0.0975
  349loPI   C5A 5579   3.698   9.968   7.882  0.2685 -0.3132 -0.1677
  349loPI   C6A 5580   4.104  10.120   7.836  0.3096 -0.0430  0.2473
  349loPI   C1B 5581   2.477   9.379   9.072  0.0335 -0.2245 -0.2082
  349loPI   C2B 5582   2.377   9.349   8.527  0.3865  0.0648 -0.1723
  349loPI   C3B 5583   2.698   9.352   8.230  0.1382  0.3678  0.0983
  349loPI   C4B 5584   3.116   9.282   8.182 -0.1593 -0.4653  0.0633
  350loPI    C1 5585  15.634  14.477  10.885  0.3614  0.1019 -0.0797
  350loPI    C2 5586  15.503  14.216  11.158  0.1342  0.1411 -0.1490
  350loPI    C3 5587  15.888  14.215  11.049  0.1330 -0.1753 -0.1607
  350loPI   PO4 5588  15.399  14.428  10.685  0.0173 -0.1560  0.2209
  350loPI   GL1 5589  15.137  14.445  10.326  0.2828 -0.2060  0.0879
  350loPI   GL2 5590  15.430  14.521  10.172 -0.1173 -0.3486  0.4611
  350loPI   C1A 5591  15.094  14.195  10.055 -0.1196  0.2424 -0.1019
  350loPI   C2A 5592  14.935  14.162   9.701 -0.0037  0.2059 -0.1276
  350loPI   C3A 5593  14.958  14.180   9.320 -0.1120 -0.2733  0.2007
  350loPI   C4A 5594  15.052  14.222   8.878  0.1858  0.3540  0.2010
  350loPI   C5A 5595  14.971  14.270   8.378  0.0556 -0.0237 -0.0754
  350loPI   C6A 5596  14.927  14.554   7.995 -0.0227  0.1748  0.0190
  350loPI   C1B 5597  15.171  14.621   9.764 -0.2166 -0.0366  0.4651
  350loPI   C2B 5598  15.125  14.682   9.267  0.1570  0.2113 -0.2722
  350loPI   C3B 5599  15.238  14.673   8.796 -0.1016 -0.1975 -0.1390
  350loPI   C4B 5600  15.180  14.793   8.392  0.1328 -0.1888 -0.1202
  351loPI    C1 5601  10.241  16.877  10.951 -0.2433  0.0528  0.2811
  351loPI    C2 5602   9.947  16.837  11.220 -0.0667  0.0051  0.4698
  351loPI    C3 5603  10.316  16.934  11.340  0.0614 -0.2183  0.2660
  351loPI   PO4 5604  10.138  17.077  10.781 -0.2159  0.0856 -0.0707
  351loPI   GL1 5605  10.195  17.214  10.301  0.1983  0.0085  0.0161
  351loPI   GL2 5606  10.448  17.286  10.396 -0.1813 -0.2790 -0.0317
  351loPI   C1A 5607  10.250  17.229   9.829 -0.1468  0.0524 -0.3534
  351loPI   C2A 5608  10.329  17.197   9.407  0.0926 -0.1958  0.0595
  351loPI   C3A 5609  10.543  17.200   9.015 -0.1074  0.0951  0.1815
  351loPI   C4A 5610  10.689  16.774   8.813  0.2061  0.1442  0.1685
  351loPI   C5A 5611  10.786  16.618   8.410 -0.2775 -0.1110 -0.1418
  351loPI   C6A 5612  10.796  16.230   8.298  0.0704 -0.0004 -0.0644
  351loPI   C1B 5613  10.805  17.216   9.971  0.3665 -0.4368  0.0223
  351loPI   C2B 5614  10.912  17.248   9.462 -0.4699 -0.1242 -0.0049
  351loPI   C3B 5615  11.380  17.239   9.488 -0.0053  0.4231 -0.0137
  351loPI   C4B 5616  11.699  16.874   9.623 -0.1100  0.2246  0.0873
  352loPI    C1 5617  13.893  14.202  10.878 -0.0209  0.0748  0.0920
  352loPI    C2 5618  13.520  14.344  10.851 -0.0093  0.1187  0.1572
  352loPI    C3 5619  13.647  14.181  11.193 -0.0167 -0.0338  0.0883
  352loPI   PO4 5620  14.159  14.424  10.748 -0.2531  0.1988  0.0664
  352loPI   GL1 5621  14.262  14.519  10.319 -0.2018 -0.1358  0.0024
  352loPI   GL2 5622  14.512  14.604  10.338  0.2431 -0.0097  0.3519
  352loPI   C1A 5623  14.149  14.599   9.934  0.0292  0.2238  0.2951
  352loPI   C2A 5624  14.185  14.524   9.506  0.1511  0.3352 -0.2172
  352loPI   C3A 5625  14.127  14.574   9.062  0.2130  0.0568 -0.0093
  352loPI   C4A 5626  14.184  14.679   8.703  0.0472 -0.1319 -0.2339
  352loPI   C5A 5627  14.413  14.575   8.270 -0.1601  0.0744  0.2873
  352loPI   C6A 5628  14.337  14.543   7.780  0.4131 -0.0402 -0.0513
  352loPI   C1B 5629  14.635  14.489   9.910 -0.2228  0.3885  0.0126
  352loPI   C2B 5630  14.703  14.660   9.517  0.1273  0.0366 -0.0939
  352loPI   C3B 5631  14.635  14.646   9.117 -0.2584 -0.2110 -0.2414
  352loPI   C4B 5632  14.760  14.573   8.686  0.1012 -0.1288 -0.0980
  353loPI    C1 5633  17.581   5.336  10.931  0.2991 -0.1614 -0.1864
  353loPI    C2 5634  17.409   4.993  11.044 -0.3227  0.1254 -0.2212
  353loPI    C3 5635  17.604   5.217  11.312 -0.0094 -0.1951 -0.1753
  353loPI   PO4 5636  17.650   5.433  10.708  0.0079 -0.0839 -0.1131
  353loPI   GL1 5637  17.747   5.430  10.383 -0.1458  0.1139  0.1262
  353loPI   GL2 5638  17.943   5.177  10.223 -0.1200  0.0516 -0.0973
  353loPI   C1A 5639  17.492   5.463  10.019 -0.1855 -0.2943  0.1229
  353loPI   C2A 5640  17.433   5.419   9.568  0.2024  0.1763  0.1106
  353loPI   C3A 5641  17.375   5.406   9.078  0.0613 -0.1114  0.0754
  353loPI   C4A 5642  17.337   5.454   8.581  0.0500  0.1522 -0.1636
  353loPI   C5A 5643  17.295   5.477   8.088  0.0191 -0.0277 -0.1566
  353loPI   C6A 5644  17.144   5.840   7.911 -0.0393 -0.0014 -0.0191
  353loPI   C1B 5645  17.822   5.128   9.768 -0.2505  0.2014  0.2303
  353loPI   C2B 5646  17.704   4.989   9.351 -0.2227 -0.0949  0.2189
  353loPI   C3B 5647  17.666   5.090   8.882  0.0442 -0.0726 -0.1733
  353loPI   C4B 5648  17.582   4.974   8.452 -0.1024 -0.3353  0.1545
  354loPI    C1 5649   7.791   4.853  10.874 -0.0954 -0.1304 -0.0781
  354loPI    C2 5650   7.927   5.124  11.135  0.1067 -0.0761 -0.2372
  354loPI    C3 5651   7.941   4.735  11.225  0.4559 -0.0777 -0.2861
  354loPI   PO4 5652   7.749   5.060  10.676  0.0849  0.0723 -0.2056
  354loPI   GL1 5653   7.897   5.027  10.289  0.0366  0.1632  0.0542
  354loPI   GL2 5654   8.152   4.781  10.369 -0.1058 -0.2689 -0.2603
  354loPI   C1A 5655   7.806   5.123   9.932  0.2003  0.2200  0.1359
  354loPI   C2A 5656   7.901   5.036   9.598 -0.1617  0.1180  0.2584
  354loPI   C3A 5657   7.918   5.044   9.214  0.3337 -0.3069  0.1730
  354loPI   C4A 5658   7.936   4.949   8.888  0.1725  0.3780 -0.0992
  354loPI   C5A 5659   7.857   5.004   8.510 -0.0667  0.1886  0.3591
  354loPI   C6A 5660   8.022   5.092   8.053 -0.1158 -0.0484  0.0463
  354loPI   C1B 5661   8.442   4.811  10.056  0.1076  0.1270  0.0761
  354loPI   C2B 5662   8.378   4.648   9.606 -0.1433  0.1251 -0.0689
  354loPI   C3B 5663   8.283   4.574   9.203 -0.2279  0.1493  0.1199
  354loPI   C4B 5664   8.312   4.627   8.751  0.1713  0.0266 -0.2607
  355loPI    C1 5665   1.709  10.075  10.551 -0.0701 -0.1009  0.0009
  355loPI    C2 5666   2.097   9.988  10.597  0.0291  0.3208 -0.0031
  355loPI    C3 5667   1.837   9.902  10.888  0.0650 -0.2653 -0.1330
  355loPI   PO4 5668   1.787  10.332  10.419 -0.0402 -0.0509  0.0359
  355loPI   GL1 5669   1.762  10.401  10.041 -0.0628 -0.0532 -0.0520
  355loPI   GL2 5670   1.553  10.373   9.780  0.0947 -0.2889 -0.1940
  355loPI   C1A 5671   2.053  10.260   9.725 -0.0793 -0.0851 -0.1605
  355loPI   C2A 5672   1.951  10.210   9.273  0.2104 -0.1744 -0.1264
  355loPI   C3A 5673   1.828  10.285   8.872 -0.1536  0.2482 -0.1902
  355loPI   C4A 5674   1.679  10.106   8.507  0.1821  0.0144 -0.0968
  355loPI   C5A 5675   1.410   9.920   8.241 -0.1280  0.2613 -0.0849
  355loPI   C6A 5676   1.098   9.636   8.192 -0.2151 -0.1130  0.0286
  355loPI   C1B 5677   1.489  10.423   9.317  0.0839  0.0437  0.1084
  355loPI   C2B 5678   1.260  10.618   9.007 -0.0250 -0.0149 -0.2325
  355loPI   C3B 5679   1.072  10.720   8.586  0.1982 -0.1354  0.1105
  355loPI   C4B 5680   0.864  10.658   8.222 -0.2402  0.0331  0.0483
  356loPI    C1 5681   5.411  18.101  11.353  0.1486 -0.2416 -0.1525
  356loPI    C2 5682   5.751  17.974  11.521  0.0639 -0.1265  0.1112
  356loPI    C3 5683   5.510  18.223  11.720 -0.0753 -0.0434 -0.1554
  356loPI   PO4 5684   5.351  18.015  11.102  0.0566 -0.2919  0.0619
  356loPI   GL1 5685   5.382  17.889  10.690  0.1646 -0.4597  0.0277
  356loPI   GL2 5686   5.127  17.952  10.573  0.0642  0.0924 -0.2669
  356loPI   C1A 5687   5.580  18.027  10.397 -0.1510  0.1583  0.1935
  356loPI   C2A 5688   5.657  17.991   9.959 -0.0284 -0.3932  0.1994
  356loPI   C3A 5689   5.760  18.026   9.503 -0.2578 -0.1826 -0.1704
  356loPI   C4A 5690   5.781  18.002   9.018  0.1679  0.2361  0.1030
  356loPI   C5A 5691   5.652  17.958   8.609  0.2311 -0.3166  0.0507
  356loPI   C6A 5692   5.338  18.171   8.308 -0.1835  0.3210 -0.0288
  356loPI   C1B 5693   5.052  17.888  10.148  0.2944  0.0666 -0.1328
  356loPI   C2B 5694   5.176  17.890   9.683  0.2675  0.2566 -0.3526
  356loPI   C3B 5695   5.238  17.931   9.291 -0.1504 -0.1112  0.1068
  356loPI   C4B 5696   5.247  17.912   8.932  0.1273 -0.0934  0.1116
  357loPI    C1 5697   1.510   3.511  10.901  0.0513 -0.0179 -0.1936
  357loPI    C2 5698   1.863   3.322  10.889  0.0158 -0.1268  0.2744
  357loPI    C3 5699   1.585   3.211  11.154 -0.2977  0.0905  0.0455
  357loPI   PO4 5700   1.501   3.509  10.656  0.0097 -0.1873  0.3214
  357loPI   GL1 5701   1.364   3.496  10.246  0.2650 -0.1485 -0.1059
  357loPI   GL2 5702   1.165   3.632  10.107  0.1453 -0.1412 -0.4739
  357loPI   C1A 5703   1.174   3.172   9.916  0.0497 -0.2107  0.3469
  357loPI   C2A 5704   1.189   3.275   9.478 -0.2045  0.3346  0.0313
  357loPI   C3A 5705   1.235   3.358   9.043 -0.3918  0.0456  0.0524
  357loPI   C4A 5706   1.199   3.333   8.610  0.0326  0.2708 -0.2624
  357loPI   C5A 5707   1.077   3.416   8.227  0.1280  0.3945 -0.4576
  357loPI   C6A 5708   0.715   3.675   8.087  0.0200  0.1506 -0.1541
  357loPI   C1B 5709   1.387   3.653   9.742 -0.3384  0.1042 -0.1153
  357loPI   C2B 5710   1.412   3.736   9.255  0.0308  0.1301 -0.1609
  357loPI   C3B 5711   1.491   3.753   8.853 -0.0416 -0.2462 -0.0805
  357loPI   C4B 5712   1.510   3.701   8.467 -0.2634 -0.2666  0.0312
  358loPI    C1 5713  17.951   1.253  10.344  0.1809 -0.1140 -0.1367
  358loPI    C2 5714  17.671   1.240  10.630  0.0604  0.1790 -0.2374
  358loPI    C3 5715  18.040   1.104  10.705 -0.0991 -0.1886 -0.0965
  358loPI   PO4 5716  17.815   1.283  10.096  0.2253 -0.1098 -0.2478
  358loPI   GL1 5717  17.779   1.097   9.741  0.2272  0.4384 -0.1643
  358loPI   GL2 5718  17.456   0.974   9.813  0.0342  0.0153  0.0505
  358loPI   C1A 5719  17.668   1.431   9.434  0.1884  0.1054 -0.0157
  358loPI   C2A 5720  17.816   1.386   9.046 -0.1825  0.2112 -0.2457
  358loPI   C3A 5721  17.626   1.161   8.700  0.2714  0.1684  0.1353
  358loPI   C4A 5722  17.686   1.279   8.287  0.1451  0.1586  0.4736
  358loPI   C5A 5723  17.592   1.626   7.983 -0.1732 -0.3067  0.1173
  358loPI   C6A 5724  17.786   1.698   7.542 -0.2463  0.0753 -0.0778
  358loPI   C1B 5725  17.377   0.889   9.352 -0.2662  0.0976 -0.0192
  358loPI   C2B 5726  17.504   0.681   8.857 -0.1294 -0.1872  0.0827
  358loPI   C3B 5727  17.478   0.743   8.446 -0.0995  0.3554  0.1888
  358loPI   C4B 5728  17.764   0.743   8.020 -0.2180  0.2313  0.1473
  359loPI    C1 5729   8.705  10.748  10.856  0.0449 -0.1639  0.0454
  359loPI    C2 5730   8.490  10.912  11.151  0.0073  0.0368 -0.0917
  359loPI    C3 5731   8.874  11.014  11.103  0.0240 -0.0244 -0.0892
  359loPI   PO4 5732   8.641  10.762  10.584 -0.4129  0.1517 -0.0625
  359loPI   GL1 5733   8.868  10.745  10.200 -0.3149  0.3273  0.3346
  359loPI   GL2 5734   9.136  10.605  10.081  0.2711  0.4876 -0.3963
  359loPI   C1A 5735   8.936  11.059   9.846  0.1685 -0.0117  0.2127
  359loPI   C2A 5736   8.641  11.296   9.687  0.0606 -0.1174 -0.2729
  359loPI   C3A 5737   8.718  11.281   9.271  0.0823 -0.0207 -0.2070
  359loPI   C4A 5738   8.978  11.233   8.850  0.0370  0.1808 -0.0483
  359loPI   C5A 5739   8.885  11.532   8.495  0.2280 -0.0959  0.1758
  359loPI   C6A 5740   8.987  11.850   8.119 -0.0607  0.3050 -0.1933
  359loPI   C1B 5741   9.259  10.652   9.613 -0.0805 -0.3020 -0.0515
  359loPI   C2B 5742   9.171  10.503   9.214 -0.0850  0.1521  0.1599
  359loPI   C3B 5743   8.753  10.273   9.188 -0.2621 -0.2022 -0.1056
  359loPI   C4B 5744   8.377  10.348   9.012 -0.1962 -0.3314  0.3350
  360loPI    C1 5745   9.826   9.790  10.393 -0.2386  0.1268  0.0158
  360loPI    C2 5746   9.616  10.095  10.546 -0.1409  0.1244  0.1573
  360loPI    C3 5747   9.999  10.046  10.647 -0.1617 -0.0583  0.1518
  360loPI   PO4 5748   9.872   9.789  10.124 -0.2060  0.0058 -0.0914
  360loPI   GL1 5749   9.744   9.871   9.697  0.2931  0.0005  0.2950
  360loPI   GL2 5750   9.979  10.119   9.664 -0.0944  0.1252 -0.4421
  360loPI   C1A 5751   9.632   9.686   9.247  0.1123  0.1668  0.1323
  360loPI   C2A 5752   9.402   9.706   8.890  0.1985 -0.3350  0.3678
  360loPI   C3A 5753   9.364   9.750   8.437  0.0459 -0.0565  0.0716
  360loPI   C4A 5754   9.210   9.479   7.957 -0.0774  0.0947  0.2941
  360loPI   C5A 5755   9.116   9.068   7.687 -0.0668 -0.2122 -0.0704
  360loPI   C6A 5756   9.462   8.846   7.495  0.2103 -0.0961  0.2649
  360loPI   C1B 5757   9.890  10.159   9.224 -0.0146 -0.1258  0.0901
  360loPI   C2B 5758   9.945  10.419   8.832  0.0205 -0.2127  0.0197
  360loPI   C3B 5759   9.923  10.642   8.448  0.1022  0.0108 -0.1342
  360loPI   C4B 5760   9.559  10.575   8.097  0.0736  0.0123  0.0066
  361loPI    C1 5761   5.900   7.211  10.758 -0.1170  0.1000 -0.0143
  361loPI    C2 5762   5.924   6.855  10.939  0.1777  0.0696 -0.1073
  361loPI    C3 5763   5.568   7.033  10.893  0.0258 -0.2198 -0.0758
  361loPI   PO4 5764   6.078   7.114  10.519  0.0957 -0.1239 -0.2553
  361loPI   GL1 5765   6.033   7.367  10.229  0.0303  0.0334 -0.0169
  361loPI   GL2 5766   5.748   7.445  10.227  0.1167 -0.2715  0.4263
  361loPI   C1A 5767   5.994   7.663   9.842 -0.2000 -0.0483  0.2524
  361loPI   C2A 5768   5.753   7.886   9.529 -0.2331  0.0721 -0.0946
  361loPI   C3A 5769   5.755   7.841   9.082  0.1616  0.3706 -0.3705
  361loPI   C4A 5770   5.737   7.840   8.611  0.1770  0.1251 -0.0980
  361loPI   C5A 5771   5.432   7.637   8.313  0.3797 -0.1710 -0.0258
  361loPI   C6A 5772   5.408   7.588   7.870  0.0545  0.1966 -0.0812
  361loPI   C1B 5773   5.795   7.162   9.821  0.2048 -0.3669  0.2666
  361loPI   C2B 5774   5.912   7.044   9.391 -0.1650 -0.0999 -0.2114
  361loPI   C3B 5775   6.290   7.090   9.188 -0.1736 -0.0933  0.1321
  361loPI   C4B 5776   6.475   7.209   8.781  0.5039  0.1085 -0.2381
  362loPI    C1 5777   1.320  11.883  10.087 -0.2149 -0.1478  0.0592
  362loPI    C2 5778   1.390  12.162  10.365 -0.2397 -0.3116  0.2318
  362loPI    C3 5779   1.462  11.777  10.445 -0.1044 -0.3454 -0.0417
  362loPI   PO4 5780   1.081  11.858   9.971 -0.0450  0.2262 -0.0753
  362loPI   GL1 5781   0.635  12.072   9.912  0.2355  0.0913  0.1624
  362loPI   GL2 5782   0.422  12.372   9.848  0.0160  0.1055 -0.0865
  362loPI   C1A 5783   0.687  11.865   9.498 -0.0532 -0.1823  0.0752
  362loPI   C2A 5784   0.687  11.780   9.121  0.2024 -0.0547 -0.1999
  362loPI   C3A 5785   0.697  11.823   8.788 -0.0807  0.1835 -0.0440
  362loPI   C4A 5786   0.700  12.004   8.463  0.1901 -0.2357 -0.1354
  362loPI   C5A 5787   0.809  12.333   8.215 -0.0455  0.1816 -0.3079
  362loPI   C6A 5788   0.743  12.527   7.821 -0.2000  0.1918 -0.3179
  362loPI   C1B 5789   0.400  12.267   9.489  0.1601  0.1243  0.0327
  362loPI   C2B 5790   0.455  12.276   9.010  0.1258 -0.2411  0.3681
  362loPI   C3B 5791   0.409  12.580   8.594  0.0399  0.1677 -0.0726
  362loPI   C4B 5792   0.289  12.600   8.059 -0.5423 -0.0084 -0.0418
  363loPI    C1 5793   9.541   0.029  11.219 -0.1628  0.1266 -0.0630
  363loPI    C2 5794   9.580  -0.243  11.510 -0.2059  0.0811 -0.0997
  363loPI    C3 5795   9.370   0.091  11.576  0.0207  0.2039  0.0132
  363loPI   PO4 5796   9.687   0.115  11.084  0.0909 -0.2650  0.0992
  363loPI   GL1 5797   9.692   0.283  10.630 -0.0954  0.2727 -0.0340
  363loPI   GL2 5798   9.630   0.525  10.562 -0.2216  0.0550  0.3909
  363loPI   C1A 5799   9.886   0.247  10.186  0.0085 -0.1767 -0.3632
  363loPI   C2A 5800   9.755   0.022   9.714  0.0017 -0.0358  0.1882
  363loPI   C3A 5801   9.699  -0.241   9.365  0.0607 -0.0160 -0.1658
  363loPI   C4A 5802   9.746  -0.192   8.971 -0.1915 -0.0410 -0.1118
  363loPI   C5A 5803   9.732  -0.079   8.520  0.1883 -0.2172  0.3640
  363loPI   C6A 5804   9.691   0.337   8.302  0.0934  0.0439 -0.0507
  363loPI   C1B 5805   9.564   0.624  10.129  0.1131 -0.1817  0.0684
  363loPI   C2B 5806   9.570   0.605   9.696 -0.4299  0.3018 -0.0015
  363loPI   C3B 5807   9.670   0.664   9.258 -0.0781 -0.0046  0.0212
  363loPI   C4B 5808   9.495   0.617   8.977  0.3009  0.0018 -0.2277
  364loPI    C1 5809   7.605   2.807  11.153  0.1132 -0.0221 -0.2876
  364loPI    C2 5810   7.416   3.142  11.265  0.0733 -0.1331 -0.0150
  364loPI    C3 5811   7.223   2.792  11.271  0.1741 -0.1911 -0.1077
  364loPI   PO4 5812   7.717   2.854  10.943  0.0054  0.0798 -0.1011
  364loPI   GL1 5813   7.721   3.017  10.588 -0.2442 -0.1463  0.1215
  364loPI   GL2 5814   7.793   3.258  10.252  0.2124 -0.2587  0.1032
  364loPI   C1A 5815   7.479   2.875  10.185 -0.1794  0.1952 -0.0387
  364loPI   C2A 5816   7.461   2.707   9.780 -0.2278  0.0206  0.1399
  364loPI   C3A 5817   7.461   2.689   9.269  0.0176 -0.1074 -0.1915
  364loPI   C4A 5818   7.544   2.764   8.952 -0.0691  0.0025  0.0292
  364loPI   C5A 5819   7.556   2.643   8.446  0.1602  0.2389  0.0237
  364loPI   C6A 5820   7.672   2.906   7.998  0.1665 -0.2597 -0.0951
  364loPI   C1B 5821   7.662   3.181   9.807 -0.0413  0.1221  0.1752
  364loPI   C2B 5822   7.673   3.261   9.301  0.0623 -0.1043  0.3177
  364loPI   C3B 5823   7.707   3.240   8.906  0.0191 -0.2137 -0.0426
  364loPI   C4B 5824   7.594   3.198   8.483  0.2626  0.2777 -0.3258
  365loPI    C1 5825   8.500  11.300  10.807 -0.1616  0.0125 -0.0308
  365loPI    C2 5826   8.158  11.479  10.702  0.0503  0.4329 -0.0265
  365loPI    C3 5827   8.281  11.490  11.083 -0.0134  0.1321  0.0058
  365loPI   PO4 5828   8.565  11.242  10.449 -0.2703 -0.1265  0.1808
  365loPI   GL1 5829   8.886  11.388  10.169  0.3400  0.0810 -0.0101
  365loPI   GL2 5830   8.726  11.655  10.014  0.1335  0.3184  0.2313
  365loPI   C1A 5831   9.102  11.491   9.700  0.0871 -0.2272  0.0145
  365loPI   C2A 5832   9.238  11.527   9.235 -0.0207 -0.2095 -0.1523
  365loPI   C3A 5833   9.339  11.576   8.751  0.0899  0.2797  0.0325
  365loPI   C4A 5834   9.372  11.638   8.370  0.1422  0.0659  0.2592
  365loPI   C5A 5835   9.444  11.736   7.853 -0.0521 -0.2771 -0.2641
  365loPI   C6A 5836   9.302  12.100   7.625  0.0916  0.1069  0.1315
  365loPI   C1B 5837   8.203  11.631  10.020 -0.0816 -0.2842 -0.1542
  365loPI   C2B 5838   7.943  11.900   9.799 -0.2838 -0.1735  0.4734
  365loPI   C3B 5839   7.602  12.086   9.622 -0.0820  0.1333  0.0656
  365loPI   C4B 5840   7.229  12.236   9.379 -0.3550  0.1088  0.1132
  366loPI    C1 5841   5.959  16.121  11.158 -0.0906 -0.2135 -0.0323
  366loPI    C2 5842   5.669  15.848  11.194 -0.1244 -0.1546  0.1581
  366loPI    C3 5843   5.873  15.966  11.517 -0.1372  0.0745  0.0843
  366loPI   PO4 5844   5.887  16.310  11.040 -0.1655  0.1955  0.1800
  366loPI   GL1 5845   5.876  16.451  10.627 -0.1549  0.1874  0.1657
  366loPI   GL2 5846   6.173  16.376  10.598  0.1115  0.0757 -0.1703
  366loPI   C1A 5847   5.595  16.649  10.331 -0.0284 -0.5884  0.2384
  366loPI   C2A 5848   5.604  16.691   9.839 -0.0459 -0.1423 -0.0263
  366loPI   C3A 5849   5.673  16.724   9.458  0.1432 -0.0792 -0.3056
  366loPI   C4A 5850   5.837  16.666   9.083  0.4183  0.0944  0.1865
  366loPI   C5A 5851   5.707  16.728   8.673 -0.0290  0.4446  0.2200
  366loPI   C6A 5852   5.841  16.444   8.317  0.0092  0.0140 -0.2211
  366loPI   C1B 5853   6.042  16.257  10.179  0.0329  0.0748 -0.1803
  366loPI   C2B 5854   5.913  16.232   9.749 -0.1996  0.0860  0.0819
  366loPI   C3B 5855   5.947  16.176   9.310  0.0904 -0.2863 -0.0766
  366loPI   C4B 5856   6.047  16.247   8.879  0.0049  0.0719  0.0904
  367loPI    C1 5857   3.183   7.554  10.210  0.0198 -0.1148  0.0488
  367loPI    C2 5858   2.936   7.471  10.512  0.0114 -0.2592  0.0030
  367loPI    C3 5859   3.331   7.461  10.569  0.0079  0.0941  0.1087
  367loPI   PO4 5860   3.054   7.774  10.131  0.1511 -0.0697 -0.1542
  367loPI   GL1 5861   3.073   7.678   9.673  0.3681  0.0806 -0.1167
  367loPI   GL2 5862   3.304   7.480   9.763  0.0264  0.4297  0.0486
  367loPI   C1A 5863   3.103   7.797   9.181 -0.1374  0.1395  0.0594
  367loPI   C2A 5864   3.022   7.886   8.761 -0.0146  0.1996  0.3015
  367loPI   C3A 5865   2.987   8.095   8.266  0.0204 -0.2755  0.1789
  367loPI   C4A 5866   2.893   8.232   7.873  0.0111  0.0130  0.1207
  367loPI   C5A 5867   3.346   8.138   7.754 -0.1577  0.0208  0.0193
  367loPI   C6A 5868   3.652   8.406   7.620  0.0764 -0.0906 -0.0060
  367loPI   C1B 5869   3.523   7.628   9.370  0.1065  0.2897  0.0206
  367loPI   C2B 5870   3.494   7.636   8.868 -0.2152  0.0594 -0.0371
  367loPI   C3B 5871   3.750   7.638   8.522  0.0254  0.3347 -0.0386
  367loPI   C4B 5872   3.914   7.534   8.162  0.2591  0.2564  0.0857
  368loPI    C1 5873   0.577  10.777  10.635 -0.0773 -0.2868 -0.0452
  368loPI    C2 5874   0.363  10.830  10.969 -0.3216  0.1074 -0.2560
  368loPI    C3 5875   0.515  10.470  10.883 -0.1644  0.0236  0.3282
  368loPI   PO4 5876   0.381  10.728  10.403  0.1673  0.0757 -0.1704
  368loPI   GL1 5877   0.192  10.750  10.065  0.3719  0.0703  0.4472
  368loPI   GL2 5878   0.450  10.716   9.910 -0.3160 -0.0892  0.1959
  368loPI   C1A 5879  -0.111  10.809   9.758  0.0167 -0.1811 -0.2322
  368loPI   C2A 5880  -0.195  10.888   9.385 -0.3669  0.2496 -0.1525
  368loPI   C3A 5881  -0.286  10.991   9.034  0.2162  0.2208  0.2653
  368loPI   C4A 5882  -0.361  10.925   8.635  0.0845 -0.0122  0.1109
  368loPI   C5A 5883  -0.275  11.006   8.175  0.4808 -0.0436 -0.1694
  368loPI   C6A 5884  -0.154  11.198   7.725  0.3394 -0.1073 -0.1435
  368loPI   C1B 5885   0.307  10.759   9.449  0.1946 -0.0695  0.0180
  368loPI   C2B 5886   0.206  10.929   9.028  0.1748 -0.1382 -0.1161
  368loPI   C3B 5887   0.156  11.012   8.517  0.1403  0.2274 -0.0548
  368loPI   C4B 5888   0.204  11.074   8.098 -0.0454 -0.1421  0.1815
  369loPI    C1 5889   9.208  12.634  10.753  0.1451 -0.0677  0.0033
  369loPI    C2 5890   9.597  12.644  10.843  0.0834  0.2517  0.2513
  369loPI    C3 5891   9.357  12.378  11.022  0.1495  0.1938  0.2544
  369loPI   PO4 5892   9.166  12.603  10.492 -0.0151 -0.2175 -0.2442
  369loPI   GL1 5893   9.246  13.079  10.321  0.2520  0.2123  0.2035
  369loPI   GL2 5894   9.579  12.928  10.180  0.1252 -0.0610  0.4759
  369loPI   C1A 5895   9.173  13.394   9.941 -0.0319  0.0059  0.0250
  369loPI   C2A 5896   9.246  13.455   9.552  0.0685  0.3783  0.4375
  369loPI   C3A 5897   9.233  13.441   9.093 -0.2729  0.2628  0.0954
  369loPI   C4A 5898   9.211  13.516   8.694  0.0158 -0.0111  0.0740
  369loPI   C5A 5899   9.253  13.386   8.240 -0.1815 -0.0082 -0.2678
  369loPI   C6A 5900   9.532  13.123   8.034  0.0035 -0.2763  0.1357
  369loPI   C1B 5901   9.530  12.925   9.747 -0.1680  0.0379 -0.3768
  369loPI   C2B 5902   9.537  13.017   9.243 -0.0351 -0.0590 -0.0494
  369loPI   C3B 5903   9.586  13.068   8.884 -0.0779 -0.2653  0.3670
  369loPI   C4B 5904   9.605  13.083   8.518  0.0376  0.0844 -0.0322
  370loPI    C1 5905   9.097  10.060  10.624  0.0379 -0.0738  0.1972
  370loPI    C2 5906   8.798   9.797  10.659 -0.0222  0.0296  0.4952
  370loPI    C3 5907   8.789  10.138  10.868  0.1239  0.2053  0.2208
  370loPI   PO4 5908   9.071  10.091  10.382 -0.1843 -0.3599 -0.0488
  370loPI   GL1 5909   8.852  10.144   9.930  0.3897 -0.0373 -0.1981
  370loPI   GL2 5910   9.031  10.138   9.683  0.0315  0.0340 -0.0369
  370loPI   C1A 5911   8.723  10.551   9.635  0.1101  0.1663 -0.0489
  370loPI   C2A 5912   8.459  10.852   9.841 -0.3954 -0.1716  0.1233
  370loPI   C3A 5913   8.151  11.140   9.804  0.0997  0.0855 -0.2242
  370loPI   C4A 5914   8.218  11.380   9.442 -0.3043 -0.2281  0.0428
  370loPI   C5A 5915   8.104  11.597   9.026  0.1245  0.1753 -0.0537
  370loPI   C6A 5916   7.942  11.679   8.566 -0.1844 -0.1655  0.1315
  370loPI   C1B 5917   9.402  10.093   9.346 -0.2108  0.0138 -0.1910
  370loPI   C2B 5918   9.438  10.202   8.876 -0.2771 -0.0553 -0.1599
  370loPI   C3B 5919   9.613  10.203   8.519 -0.1134  0.0410  0.1479
  370loPI   C4B 5920   9.721   9.993   8.151  0.0021  0.0874 -0.0003
  371loPI    C1 5921   8.684  15.950  10.844  0.2173  0.1323  0.2444
  371loPI    C2 5922   8.605  15.723  10.524 -0.0725  0.4342  0.0957
  371loPI    C3 5923   8.830  15.578  10.822  0.0238  0.0749 -0.1457
  371loPI   PO4 5924   8.714  16.173  10.709  0.0125 -0.0743  0.3268
  371loPI   GL1 5925   8.495  16.386  10.194  0.1311  0.0455 -0.2414
  371loPI   GL2 5926   8.738  16.126  10.206 -0.3788  0.1264 -0.1447
  371loPI   C1A 5927   8.499  16.564   9.715 -0.0849  0.0980  0.2049
  371loPI   C2A 5928   8.597  16.620   9.313  0.1144 -0.0356  0.3752
  371loPI   C3A 5929   8.555  16.598   8.904 -0.1820 -0.0882 -0.2949
  371loPI   C4A 5930   8.587  16.436   8.575  0.0428 -0.0341  0.0472
  371loPI   C5A 5931   8.577  16.031   8.415 -0.0269 -0.0756 -0.0349
  371loPI   C6A 5932   8.862  15.722   8.371 -0.0282 -0.1533  0.0343
  371loPI   C1B 5933   8.813  16.068   9.856 -0.0155 -0.0777 -0.1869
  371loPI   C2B 5934   8.961  16.200   9.500  0.1892  0.2749  0.2435
  371loPI   C3B 5935   8.910  16.256   9.081 -0.1498  0.3395  0.2037
  371loPI   C4B 5936   9.014  16.240   8.631 -0.3700 -0.0685  0.0805
  372loPI    C1 5937   2.526  13.623  10.541 -0.2060 -0.1669 -0.1308
  372loPI    C2 5938   2.853  13.662  10.768 -0.0721 -0.0381 -0.3411
  372loPI    C3 5939   2.499  13.794  10.901 -0.0019  0.0055 -0.1953
  372loPI   PO4 5940   2.659  13.531  10.334 -0.1097 -0.2388  0.1203
  372loPI   GL1 5941   2.792  13.520   9.844  0.3944 -0.0514 -0.1197
  372loPI   GL2 5942   3.048  13.291   9.946  0.0160  0.1579  0.1898
  372loPI   C1A 5943   2.857  13.522   9.459 -0.2316  0.0142 -0.2684
  372loPI   C2A 5944   2.944  13.527   9.056  0.2305  0.0931  0.1436
  372loPI   C3A 5945   3.055  13.455   8.605  0.1005 -0.2014  0.0522
  372loPI   C4A 5946   3.361  13.368   8.292  0.1514 -0.0726  0.1289
  372loPI   C5A 5947   3.738  13.488   8.092  0.1558  0.3453  0.0473
  372loPI   C6A 5948   4.010  13.683   8.067  0.0708  0.2600 -0.1098
  372loPI   C1B 5949   3.285  13.454   9.736  0.0938 -0.0483 -0.0196
  372loPI   C2B 5950   3.389  13.574   9.339 -0.1835  0.1141 -0.1064
  372loPI   C3B 5951   3.397  13.646   8.943 -0.2351  0.0566 -0.3157
  372loPI   C4B 5952   3.610  13.686   8.617  0.0681 -0.1458 -0.3823
  373loPI    C1 5953   1.527  14.469  10.666 -0.2094  0.2002 -0.0851
  373loPI    C2 5954   1.250  14.237  10.837  0.1823 -0.2151  0.0066
  373loPI    C3 5955   1.443  14.512  11.054 -0.0796  0.0043 -0.0334
  373loPI   PO4 5956   1.470  14.601  10.461 -0.3393  0.1714  0.1238
  373loPI   GL1 5957   1.418  14.548  10.041  0.1908 -0.0914 -0.1019
  373loPI   GL2 5958   1.479  14.814   9.858  0.2899 -0.0061  0.0913
  373loPI   C1A 5959   1.608  14.327   9.584  0.0206  0.2040  0.3195
  373loPI   C2A 5960   1.823  14.324   9.165 -0.0518  0.2043 -0.1627
  373loPI   C3A 5961   1.742  14.300   8.739  0.3365 -0.0950  0.1879
  373loPI   C4A 5962   1.614  14.290   8.352  0.2736 -0.0352 -0.1364
  373loPI   C5A 5963   1.493  14.366   7.962 -0.0197 -0.2380  0.2857
  373loPI   C6A 5964   1.110  14.487   7.714 -0.4015  0.6095  0.1650
  373loPI   C1B 5965   1.318  15.071   9.634  0.0371 -0.0256  0.3271
  373loPI   C2B 5966   1.136  15.231   9.289 -0.0386 -0.2350  0.1605
  373loPI   C3B 5967   1.097  15.476   8.896 -0.1534 -0.0889 -0.1914
  373loPI   C4B 5968   1.038  15.214   8.526 -0.3115  0.0049 -0.3139
  374loPI    C1 5969   5.934  15.430  11.123  0.1938  0.2222 -0.0424
  374loPI    C2 5970   6.157  15.330  11.441  0.0892  0.0911 -0.0099
  374loPI    C3 5971   5.788  15.475  11.493  0.1357  0.2308 -0.0666
  374loPI   PO4 5972   6.053  15.607  11.000  0.4123  0.1573 -0.0764
  374loPI   GL1 5973   6.131  15.506  10.584 -0.0955  0.0475  0.2336
  374loPI   GL2 5974   5.966  15.255  10.472 -0.0339 -0.2356  0.2909
  374loPI   C1A 5975   6.269  15.788  10.228  0.1384  0.2289 -0.2799
  374loPI   C2A 5976   6.246  15.814   9.781  0.4566 -0.0639 -0.5086
  374loPI   C3A 5977   6.271  15.756   9.260  0.0141 -0.1602 -0.3019
  374loPI   C4A 5978   6.398  15.798   8.831  0.1233 -0.0342 -0.0926
  374loPI   C5A 5979   6.306  15.591   8.483 -0.3079 -0.1431 -0.1894
  374loPI   C6A 5980   6.178  15.250   8.378 -0.4079 -0.0959 -0.2903
  374loPI   C1B 5981   5.974  15.277  10.069  0.3001  0.0116 -0.3129
  374loPI   C2B 5982   5.984  15.257   9.643  0.1828  0.0047  0.2122
  374loPI   C3B 5983   6.054  15.230   9.273  0.0532  0.1595  0.0654
  374loPI   C4B 5984   6.137  15.290   8.905 -0.0415  0.0384  0.4077
  375loPI    C1 5985   4.562   3.987  10.874  0.2061  0.0150 -0.1203
  375loPI    C2 5986   4.772   3.664  10.980 -0.1591 -0.2279 -0.1187
  375loPI    C3 5987   4.735   3.970  11.235  0.0531 -0.2520 -0.0566
  375loPI   PO4 5988   4.626   4.010  10.621  0.3679 -0.1197 -0.0714
  375loPI   GL1 5989   4.463   3.869  10.240 -0.1051  0.0788  0.0139
  375loPI   GL2 5990   4.354   3.594  10.027 -0.0068 -0.1270  0.1161
  375loPI   C1A 5991   4.608   4.028   9.850 -0.0676  0.0203  0.1890
  375loPI   C2A 5992   4.676   4.037   9.408 -0.0190 -0.0438 -0.3053
  375loPI   C3A 5993   4.646   4.068   9.025  0.2310 -0.1868 -0.1126
  375loPI   C4A 5994   4.496   4.188   8.563 -0.1167 -0.1190 -0.2476
  375loPI   C5A 5995   4.335   3.906   8.286 -0.0454  0.1639 -0.0267
  375loPI   C6A 5996   3.898   3.912   8.100  0.0589  0.0603 -0.0129
  375loPI   C1B 5997   4.413   3.647   9.571  0.1024 -0.0104  0.0048
  375loPI   C2B 5998   4.429   3.570   9.100  0.1366  0.0434  0.1767
  375loPI   C3B 5999   4.280   3.544   8.668 -0.3453 -0.2133 -0.0563
  375loPI   C4B 6000   4.209   3.429   8.225 -0.0396 -0.1695  0.3627
  376loPI    C1 6001   2.357   5.228  10.684 -0.0237 -0.0497 -0.2013
  376loPI    C2 6002   2.307   5.354  11.060 -0.3362 -0.3263 -0.1450
  376loPI    C3 6003   2.624   5.476  10.848 -0.2447 -0.0378  0.1496
  376loPI   PO4 6004   2.152   5.173  10.458 -0.0885 -0.2767  0.1040
  376loPI   GL1 6005   2.164   4.984  10.089 -0.0940 -0.1766 -0.0926
  376loPI   GL2 6006   2.477   4.890  10.040  0.0052  0.2547 -0.3530
  376loPI   C1A 6007   2.155   5.102   9.688 -0.0046 -0.3044 -0.2230
  376loPI   C2A 6008   2.087   5.305   9.247 -0.1517  0.0673  0.0320
  376loPI   C3A 6009   2.067   5.254   8.827 -0.1722 -0.0803  0.2105
  376loPI   C4A 6010   1.904   5.148   8.596  0.3506  0.2944  0.0780
  376loPI   C5A 6011   2.075   5.173   8.256  0.4234 -0.0455 -0.3303
  376loPI   C6A 6012   2.087   5.218   7.832  0.0762 -0.3152  0.0545
  376loPI   C1B 6013   2.535   4.896   9.568  0.2295  0.0117  0.1420
  376loPI   C2B 6014   2.441   4.871   9.207 -0.3807  0.0587 -0.1219
  376loPI   C3B 6015   2.407   4.874   8.799 -0.1424  0.2585 -0.1891
  376loPI   C4B 6016   2.163   4.736   8.452  0.0516  0.1137  0.0295
  377loPI    C1 6017   5.570  15.494  10.777  0.0290  0.0389 -0.0772
  377loPI    C2 6018   5.253  15.250  10.792  0.1794 -0.1591 -0.0800
  377loPI    C3 6019   5.405  15.403  11.130  0.2015 -0.2226 -0.0611
  377loPI   PO4 6020   5.501  15.609  10.589  0.1674 -0.1672  0.3015
  377loPI   GL1 6021   5.127  15.345  10.330  0.1286  0.0068  0.0897
  377loPI   GL2 6022   5.000  15.269  10.014  0.0206 -0.1819  0.0167
  377loPI   C1A 6023   5.479  15.229   9.960  0.0334 -0.0541  0.0574
  377loPI   C2A 6024   5.516  15.191   9.587  0.0218  0.0621 -0.3322
  377loPI   C3A 6025   5.528  15.133   9.219  0.0218  0.1314  0.1713
  377loPI   C4A 6026   5.560  15.257   8.800  0.2264 -0.3386  0.3081
  377loPI   C5A 6027   5.454  15.531   8.383 -0.4672  0.2383  0.1212
  377loPI   C6A 6028   5.576  15.523   8.037 -0.0661 -0.0468  0.3648
  377loPI   C1B 6029   5.025  15.011   9.698 -0.0922  0.1551 -0.0663
  377loPI   C2B 6030   4.992  15.067   9.288 -0.0234 -0.1994  0.0863
  377loPI   C3B 6031   5.034  15.103   8.869  0.1870  0.0835 -0.4053
  377loPI   C4B 6032   5.009  15.291   8.561 -0.0832 -0.0666  0.0637
  378loPI    C1 6033  14.762   8.951  10.765  0.2046  0.1094  0.0935
  378loPI    C2 6034  14.994   8.725  11.001  0.1883 -0.0902 -0.0789
  378loPI    C3 6035  14.677   8.915  11.154  0.3458  0.0185  0.1168
  378loPI   PO4 6036  14.593   8.791  10.520  0.1432 -0.3818  0.1667
  378loPI   GL1 6037  14.704   8.616  10.120  0.2867 -0.0832  0.0207
  378loPI   GL2 6038  15.023   8.733  10.043 -0.2033 -0.0943  0.0881
  378loPI   C1A 6039  14.747   8.586   9.617  0.0815 -0.4579  0.0464
  378loPI   C2A 6040  14.709   8.625   9.153 -0.1089 -0.0561  0.1761
  378loPI   C3A 6041  14.748   8.593   8.711  0.0517  0.0269  0.2195
  378loPI   C4A 6042  14.744   8.451   8.284  0.1153 -0.1776  0.2614
  378loPI   C5A 6043  14.818   8.645   7.977  0.0735 -0.1548  0.0345
  378loPI   C6A 6044  14.801   9.015   7.897 -0.0116 -0.0068  0.0335
  378loPI   C1B 6045  15.202   8.617   9.727 -0.2592  0.1177  0.2609
  378loPI   C2B 6046  15.220   8.725   9.310  0.1645 -0.2859  0.1252
  378loPI   C3B 6047  15.207   8.754   8.887 -0.0922  0.2008 -0.0355
  378loPI   C4B 6048  15.163   8.684   8.444  0.2019  0.3269 -0.2108
  379loPI    C1 6049   8.675  14.730  10.877  0.1411 -0.0604  0.0377
  379loPI    C2 6050   8.797  14.363  10.773  0.0527 -0.1191  0.1386
  379loPI    C3 6051   8.444  14.412  10.955 -0.1111  0.0558 -0.2153
  379loPI   PO4 6052   8.848  14.855  10.702  0.0544 -0.0261 -0.0263
  379loPI   GL1 6053   9.061  14.856  10.311  0.0438  0.0512 -0.0552
  379loPI   GL2 6054   8.791  14.680  10.251 -0.3260 -0.0727  0.0290
  379loPI   C1A 6055   8.972  15.194  10.013 -0.2369 -0.0017 -0.0529
  379loPI   C2A 6056   8.992  15.358   9.559  0.0909  0.2680  0.0777
  379loPI   C3A 6057   9.051  15.429   9.121  0.0538  0.0485  0.0582
  379loPI   C4A 6058   9.027  15.345   8.679  0.1391 -0.0984 -0.5421
  379loPI   C5A 6059   9.212  15.109   8.289  0.1401  0.2089 -0.3132
  379loPI   C6A 6060   9.078  14.934   8.013 -0.1964 -0.1013  0.0834
  379loPI   C1B 6061   8.753  14.730   9.927 -0.0911 -0.0519 -0.0342
  379loPI   C2B 6062   8.874  14.842   9.486 -0.1393  0.0750 -0.0100
  379loPI   C3B 6063   8.883  14.841   9.112  0.1917  0.1038 -0.1317
  379loPI   C4B 6064   8.891  14.880   8.634  0.1444 -0.2001 -0.2653
  380loPI    C1 6065  17.864   4.946  10.755  0.0771 -0.0547  0.0928
  380loPI    C2 6066  17.842   4.757  11.106 -0.0348  0.1330  0.1882
  380loPI    C3 6067  18.040   5.104  11.078 -0.0772  0.1487  0.0794
  380loPI   PO4 6068  17.634   4.803  10.589 -0.0999 -0.2124  0.3010
  380loPI   GL1 6069  17.537   4.877  10.178  0.0148  0.2501  0.1215
  380loPI   GL2 6070  17.360   5.028  10.157  0.2943  0.2059  0.0755
  380loPI   C1A 6071  17.521   4.566   9.913  0.3389  0.0904  0.5875
  380loPI   C2A 6072  17.511   4.485   9.511  0.3210  0.0602  0.1720
  380loPI   C3A 6073  17.429   4.511   9.097  0.1405  0.0179 -0.2689
  380loPI   C4A 6074  17.469   4.414   8.719 -0.0595 -0.0219  0.1319
  380loPI   C5A 6075  17.522   4.483   8.283  0.1831  0.1952 -0.1989
  380loPI   C6A 6076  17.501   4.936   7.982 -0.0985  0.1361 -0.0867
  380loPI   C1B 6077  17.288   4.929   9.669  0.4317  0.3253  0.3620
  380loPI   C2B 6078  17.173   4.982   9.184 -0.0515 -0.3438  0.0435
  380loPI   C3B 6079  17.155   4.896   8.746  0.1678  0.1827  0.0722
  380loPI   C4B 6080  17.035   4.875   8.316 -0.1551 -0.1457  0.2629
  381loPI    C1 6081   3.422  10.391  10.225  0.1706 -0.0846  0.0466
  381loPI    C2 6082   3.286  10.105  10.468  0.0561 -0.1411 -0.0831
  381loPI    C3 6083   3.360  10.471  10.612 -0.2187 -0.1132 -0.0067
  381loPI   PO4 6084   3.216  10.456  10.095 -0.0880  0.1895  0.2376
  381loPI   GL1 6085   3.202  10.256   9.697  0.1262 -0.1143 -0.1289
  381loPI   GL2 6086   3.058  10.365   9.482  0.1870  0.1195 -0.1251
  381loPI   C1A 6087   3.507  10.237   9.342 -0.1798 -0.3075  0.0314
  381loPI   C2A 6088   3.770  10.043   9.018 -0.1433  0.2372 -0.4117
  381loPI   C3A 6089   3.754   9.795   8.685 -0.2093  0.1849 -0.0588
  381loPI   C4A 6090   3.876   9.571   8.316  0.1588  0.1734  0.1632
  381loPI   C5A 6091   4.174   9.560   7.932 -0.2004  0.1251 -0.3834
  381loPI   C6A 6092   4.448   9.783   7.681 -0.0570  0.2176 -0.2610
  381loPI   C1B 6093   2.917  10.389   9.045 -0.1351 -0.0632 -0.0301
  381loPI   C2B 6094   2.761  10.269   8.531  0.0638  0.1376  0.0306
  381loPI   C3B 6095   2.619  10.110   8.152 -0.1006 -0.0392 -0.3803
  381loPI   C4B 6096   2.501   9.738   8.071  0.0106 -0.0963  0.0122
  382loPI    C1 6097  12.999  10.350  10.789  0.3498  0.0999 -0.2304
  382loPI    C2 6098  13.027  10.743  10.860 -0.0084  0.0784  0.0601
  382loPI    C3 6099  13.059  10.482  11.162  0.0243 -0.1057 -0.1004
  382loPI   PO4 6100  13.112  10.391  10.508  0.2750  0.2867 -0.0306
  382loPI   GL1 6101  13.366  10.434  10.122  0.1942  0.2115  0.0806
  382loPI   GL2 6102  13.351  10.142   9.982 -0.0724 -0.1250  0.0986
  382loPI   C1A 6103  13.231  10.705   9.752  0.0525  0.3689 -0.2675
  382loPI   C2A 6104  13.114  10.732   9.344 -0.3005  0.0097  0.2769
  382loPI   C3A 6105  13.077  10.782   8.870 -0.2322  0.0187  0.0046
  382loPI   C4A 6106  12.935  10.792   8.448 -0.1232 -0.2875  0.1183
  382loPI   C5A 6107  12.832  10.705   8.097  0.0349 -0.3048  0.2702
  382loPI   C6A 6108  13.049  10.410   7.818 -0.0225  0.1839 -0.0339
  382loPI   C1B 6109  13.546  10.342   9.613  0.2002 -0.2671 -0.1470
  382loPI   C2B 6110  13.460  10.388   9.192  0.2098  0.0497 -0.0934
  382loPI   C3B 6111  13.411  10.363   8.803 -0.3471  0.2108 -0.1895
  382loPI   C4B 6112  13.295  10.406   8.396  0.1329  0.0838 -0.1272
  383loPI    C1 6113   3.400   9.271  10.230  0.2334  0.0254  0.1636
  383loPI    C2 6114   3.456   9.563  10.498  0.0806 -0.0258  0.2526
  383loPI    C3 6115   3.242   9.240  10.596  0.1927 -0.1377  0.1329
  383loPI   PO4 6116   3.186   9.344   9.981 -0.0355 -0.1232 -0.2202
  383loPI   GL1 6117   3.171   9.404   9.632 -0.1923 -0.3194 -0.0733
  383loPI   GL2 6118   3.435   9.481   9.434 -0.1072 -0.3908  0.2666
  383loPI   C1A 6119   3.104   9.841   9.415  0.3054 -0.1792 -0.4494
  383loPI   C2A 6120   3.137   9.903   8.953 -0.0038 -0.0696  0.2101
  383loPI   C3A 6121   3.209  10.168   8.629  0.1345 -0.0649 -0.0898
  383loPI   C4A 6122   3.121  10.247   8.227 -0.3272 -0.1491  0.0347
  383loPI   C5A 6123   3.158  10.078   7.851  0.3040 -0.3438 -0.0423
  383loPI   C6A 6124   2.852   9.778   7.712 -0.3144 -0.0354 -0.1638
  383loPI   C1B 6125   3.427   9.362   9.038  0.0236  0.0293  0.0222
  383loPI   C2B 6126   3.559   8.873   8.908  0.0836 -0.0122 -0.1568
  383loPI   C3B 6127   3.570   8.450   8.784  0.0474 -0.2831  0.0723
  383loPI   C4B 6128   3.455   8.133   8.588  0.1589  0.1393 -0.1478
  384loPI    C1 6129   4.569   4.755  10.296 -0.2639  0.2100  0.2111
  384loPI    C2 6130   4.460   4.524  10.604 -0.0912  0.1213  0.2069
  384loPI    C3 6131   4.500   4.366  10.238 -0.0764  0.1798  0.1831
  384loPI   PO4 6132   4.369   4.894  10.237 -0.2739  0.1421 -0.2206
  384loPI   GL1 6133   4.339   5.080   9.893 -0.1810  0.0003  0.1359
  384loPI   GL2 6134   4.623   4.990   9.718  0.2456 -0.0319 -0.3823
  384loPI   C1A 6135   4.171   4.938   9.452 -0.2515 -0.0072  0.2220
  384loPI   C2A 6136   4.025   4.932   9.057  0.0096 -0.6319 -0.1313
  384loPI   C3A 6137   3.891   5.037   8.650 -0.0705 -0.0355 -0.1214
  384loPI   C4A 6138   4.150   5.302   8.360  0.2375  0.0446  0.0253
  384loPI   C5A 6139   4.231   5.341   7.921 -0.0138  0.1606  0.1381
  384loPI   C6A 6140   4.593   5.310   7.782 -0.0608  0.0230 -0.1941
  384loPI   C1B 6141   4.806   4.716   9.382 -0.0285  0.1464 -0.3044
  384loPI   C2B 6142   4.793   4.600   9.021  0.2061 -0.1086 -0.1164
  384loPI   C3B 6143   4.842   4.694   8.634  0.2105 -0.2980 -0.1090
  384loPI   C4B 6144   4.882   4.538   8.236  0.0471  0.0603 -0.0581
  385loPI    C1 6145   0.903  12.930  10.381 -0.0704 -0.0233  0.0891
  385loPI    C2 6146   0.868  13.309  10.505  0.0956  0.0079  0.0432
  385loPI    C3 6147   0.814  13.008  10.763  0.0461  0.0644  0.0991
  385loPI   PO4 6148   0.931  12.891  10.131 -0.1756 -0.1182 -0.0730
  385loPI   GL1 6149   1.236  13.063   9.826  0.1259  0.0097 -0.1721
  385loPI   GL2 6150   1.311  13.361   9.635 -0.2940 -0.1928  0.1807
  385loPI   C1A 6151   1.201  12.916   9.423  0.0016 -0.0860 -0.0495
  385loPI   C2A 6152   1.240  12.991   8.974 -0.1838  0.1882 -0.0587
  385loPI   C3A 6153   1.147  12.980   8.626 -0.0376 -0.3694  0.1540
  385loPI   C4A 6154   1.138  12.599   8.385  0.2989  0.3237  0.2321
  385loPI   C5A 6155   1.208  12.290   7.910  0.0320  0.0028 -0.1230
  385loPI   C6A 6156   0.854  12.145   7.534  0.1566 -0.3438 -0.1757
  385loPI   C1B 6157   1.427  13.400   9.257 -0.1841  0.1617  0.1508
  385loPI   C2B 6158   1.567  13.381   8.748 -0.1440 -0.0551  0.2233
  385loPI   C3B 6159   1.642  13.437   8.379  0.2292 -0.0047 -0.1357
  385loPI   C4B 6160   1.806  13.680   8.068  0.1608 -0.0399 -0.0441
  386loPI    C1 6161  10.636  15.220  11.104  0.0696 -0.0450  0.1048
  386loPI    C2 6162  11.013  15.350  11.139  0.0360  0.1112 -0.0954
  386loPI    C3 6163  10.794  15.281  11.467  0.2182  0.0772  0.0206
  386loPI   PO4 6164  10.527  15.438  10.953  0.1083  0.3020 -0.0088
  386loPI   GL1 6165  10.581  15.529  10.580  0.1202 -0.1059  0.0261
  386loPI   GL2 6166  10.705  15.866  10.456  0.1546 -0.0790  0.3125
  386loPI   C1A 6167  10.539  15.524  10.171 -0.2585  0.1154 -0.0227
  386loPI   C2A 6168  10.447  15.473   9.736 -0.2423 -0.0325 -0.0950
  386loPI   C3A 6169  10.609  15.368   9.278 -0.0500  0.2410  0.1189
  386loPI   C4A 6170  10.754  15.337   8.864 -0.0142  0.3811  0.2094
  386loPI   C5A 6171  10.836  15.303   8.482 -0.1394  0.1290 -0.0259
  386loPI   C6A 6172  10.843  15.567   8.234 -0.2345 -0.2347 -0.0898
  386loPI   C1B 6173  10.756  15.921  10.000  0.0183 -0.2445 -0.2155
  386loPI   C2B 6174  10.810  15.888   9.573 -0.1456 -0.0599 -0.0386
  386loPI   C3B 6175  10.797  15.820   9.113 -0.1797 -0.1893 -0.1468
  386loPI   C4B 6176  10.909  15.865   8.660 -0.4502  0.1212 -0.2293
  387loPI    C1 6177  15.475  17.187  10.730 -0.0328  0.1203 -0.0724
  387loPI    C2 6178  15.508  17.489  10.990  0.1192  0.0703 -0.0327
  387loPI    C3 6179  15.566  17.112  11.112  0.0561  0.0354 -0.1098
  387loPI   PO4 6180  15.636  17.262  10.534 -0.3489 -0.1333 -0.2836
  387loPI   GL1 6181  15.745  17.616  10.211 -0.3483  0.0120  0.2261
  387loPI   GL2 6182  15.551  17.356  10.035 -0.2407  0.6569 -0.2384
  387loPI   C1A 6183  15.273  17.667   9.827  0.4254 -0.0517 -0.1598
  387loPI   C2A 6184  15.242  17.511   9.507  0.2707 -0.0240  0.0783
  387loPI   C3A 6185  15.220  17.499   9.031 -0.0002  0.2320 -0.0747
  387loPI   C4A 6186  15.234  17.432   8.614 -0.0272 -0.0556  0.2145
  387loPI   C5A 6187  15.126  16.961   8.376 -0.0055 -0.0070  0.0933
  387loPI   C6A 6188  15.526  16.801   8.204 -0.0318 -0.2811 -0.0874
  387loPI   C1B 6189  15.476  17.179   9.697  0.2151 -0.1022  0.2136
  387loPI   C2B 6190  15.645  17.234   9.245 -0.1912  0.0787 -0.0920
  387loPI   C3B 6191  15.766  17.526   8.941 -0.0528  0.0040  0.0383
  387loPI   C4B 6192  15.876  17.837   8.531  0.2913 -0.2616  0.0413
  388loPI    C1 6193  12.949  13.777  10.802 -0.0270  0.0985 -0.0441
  388loPI    C2 6194  13.084  14.004  11.102  0.0474  0.0175 -0.0157
  388loPI    C3 6195  12.949  13.635  11.176  0.0037  0.0221 -0.0728
  388loPI   PO4 6196  13.079  13.892  10.476 -0.0799 -0.0806 -0.0050
  388loPI   GL1 6197  12.996  13.734  10.114  0.0101  0.1397 -0.2718
  388loPI   GL2 6198  13.219  13.644   9.973 -0.2916  0.1095  0.0042
  388loPI   C1A 6199  12.846  13.985   9.873 -0.2487 -0.2090  0.1261
  388loPI   C2A 6200  12.941  13.952   9.494 -0.0492 -0.1208 -0.2158
  388loPI   C3A 6201  12.919  13.957   9.077  0.0566 -0.2329 -0.0233
  388loPI   C4A 6202  12.926  14.011   8.597 -0.2580  0.1817 -0.0702
  388loPI   C5A 6203  12.739  14.127   8.258  0.0255 -0.3341  0.1538
  388loPI   C6A 6204  13.012  14.318   8.102 -0.4834  0.1900 -0.1642
  388loPI   C1B 6205  13.290  13.538   9.453 -0.0935  0.1687  0.1810
  388loPI   C2B 6206  13.253  13.510   9.060  0.0461 -0.1163 -0.1629
  388loPI   C3B 6207  13.278  13.603   8.515 -0.3103  0.0924 -0.0515
  388loPI   C4B 6208  13.106  13.813   8.168  0.1037 -0.0129  0.2393
  389loPI    C1 6209   5.121   4.013  10.883  0.2098 -0.1040  0.0536
  389loPI    C2 6210   4.964   4.354  11.021  0.0900 -0.1142 -0.0549
  389loPI    C3 6211   5.214   4.141  11.250  0.0875 -0.0048  0.0506
  389loPI   PO4 6212   5.146   3.953  10.669  0.2369 -0.0375  0.3497
  389loPI   GL1 6213   5.051   4.018  10.206 -0.1788 -0.1515 -0.3432
  389loPI   GL2 6214   5.011   3.786  10.030  0.0252  0.1645 -0.2492
  389loPI   C1A 6215   5.144   4.201   9.722  0.0236  0.0371  0.1400
  389loPI   C2A 6216   5.171   4.106   9.313  0.0507 -0.1140  0.0190
  389loPI   C3A 6217   5.163   4.158   8.851 -0.1794 -0.0976 -0.1206
  389loPI   C4A 6218   5.127   4.130   8.365  0.0171 -0.0568 -0.1124
  389loPI   C5A 6219   5.295   4.232   7.919  0.0655  0.1715 -0.0577
  389loPI   C6A 6220   5.177   4.223   7.452  0.0462  0.1837  0.0294
  389loPI   C1B 6221   4.964   3.643   9.651  0.0676 -0.1793  0.0640
  389loPI   C2B 6222   5.003   3.662   9.151  0.1595  0.0860  0.0340
  389loPI   C3B 6223   4.831   3.663   8.773  0.0085  0.0608  0.3695
  389loPI   C4B 6224   4.791   3.680   8.305 -0.2384  0.0406 -0.0260
  390loPI    C1 6225   1.268   4.801  10.879 -0.0787 -0.0710 -0.0274
  390loPI    C2 6226   1.050   5.087  11.054 -0.0202  0.0238 -0.1081
  390loPI    C3 6227   1.354   4.918  11.252 -0.2084 -0.1578  0.0306
  390loPI   PO4 6228   1.128   4.565  10.606  0.1472 -0.0225  0.0010
  390loPI   GL1 6229   0.877   4.553  10.301  0.2896  0.2393  0.0374
  390loPI   GL2 6230   0.618   4.399  10.167  0.0822 -0.0138 -0.1536
  390loPI   C1A 6231   0.863   4.851   9.929 -0.0125  0.0116 -0.1668
  390loPI   C2A 6232   0.844   4.796   9.478 -0.0329  0.0070  0.2045
  390loPI   C3A 6233   0.933   4.683   9.045  0.3355  0.3566  0.1098
  390loPI   C4A 6234   0.860   4.741   8.578  0.0256  0.2104  0.0371
  390loPI   C5A 6235   1.105   4.730   8.190  0.1535  0.1670 -0.0006
  390loPI   C6A 6236   1.481   4.449   8.012  0.1875  0.0454 -0.0770
  390loPI   C1B 6237   0.651   4.368   9.775 -0.0861 -0.0513 -0.0836
  390loPI   C2B 6238   0.623   4.281   9.301 -0.3243  0.1529 -0.0654
  390loPI   C3B 6239   0.704   4.272   8.877  0.1409  0.0840 -0.2190
  390loPI   C4B 6240   0.668   4.281   8.439  0.2732 -0.0655  0.4354
  391loPI    C1 6241   6.615   7.138  10.798  0.0136  0.2669 -0.2342
  391loPI    C2 6242   6.564   7.445  11.049  0.2171 -0.0596  0.2212
  391loPI    C3 6243   6.293   7.151  11.036  0.0712  0.0857 -0.1437
  391loPI   PO4 6244   6.656   7.209  10.593 -0.0473  0.0008 -0.1154
  391loPI   GL1 6245   6.478   7.254  10.137  0.0857 -0.0177 -0.1008
  391loPI   GL2 6246   6.698   7.381   9.987  0.2198 -0.3589 -0.1105
  391loPI   C1A 6247   6.307   7.255   9.709  0.3438  0.1118 -0.1217
  391loPI   C2A 6248   6.145   7.544   9.401  0.0342 -0.0964 -0.0137
  391loPI   C3A 6249   6.086   7.469   8.966 -0.3490 -0.3276  0.0873
  391loPI   C4A 6250   6.074   7.478   8.607 -0.1051 -0.0800 -0.1686
  391loPI   C5A 6251   5.934   7.631   8.164 -0.2652 -0.2260 -0.0644
  391loPI   C6A 6252   6.025   7.979   7.885 -0.0478  0.2709 -0.0776
  391loPI   C1B 6253   6.820   7.264   9.636 -0.0472 -0.1603 -0.1007
  391loPI   C2B 6254   6.772   7.214   9.254  0.0359  0.2754  0.1269
  391loPI   C3B 6255   6.936   7.117   8.873  0.0431  0.1493  0.3077
  391loPI   C4B 6256   6.834   7.152   8.379 -0.0406 -0.2127 -0.0556
  392loPI    C1 6257  12.756   2.956  11.303  0.0225 -0.2973  0.2271
  392loPI    C2 6258  12.480   3.103  11.553  0.1814 -0.0905  0.2832
  392loPI    C3 6259  12.867   3.110  11.655  0.2445 -0.0386  0.0483
  392loPI   PO4 6260  12.714   2.806  11.198  0.1117  0.3749 -0.2750
  392loPI   GL1 6261  12.434   2.630  10.879 -0.1628  0.0187  0.0820
  392loPI   GL2 6262  12.569   2.520  10.586 -0.3350 -0.0074  0.4169
  392loPI   C1A 6263  12.093   2.812  10.547  0.2884 -0.0463 -0.2809
  392loPI   C2A 6264  11.970   2.837  10.087  0.3309  0.0783  0.0905
  392loPI   C3A 6265  11.957   2.869   9.559  0.0801  0.3591 -0.0279
  392loPI   C4A 6266  11.921   2.844   9.143 -0.0433  0.1605 -0.0113
  392loPI   C5A 6267  11.851   2.816   8.715  0.2797 -0.0403 -0.2963
  392loPI   C6A 6268  11.659   2.396   8.536  0.0283  0.0221 -0.3236
  392loPI   C1B 6269  12.770   2.450  10.228  0.0761 -0.0512  0.2453
  392loPI   C2B 6270  12.813   2.443   9.832  0.0829 -0.3014  0.0284
  392loPI   C3B 6271  12.785   2.443   9.441 -0.5762  0.3180  0.0584
  392loPI   C4B 6272  12.723   2.565   9.083  0.3029  0.1288  0.0812
  393loPI    C1 6273  13.788  17.973  11.145  0.1054 -0.3336 -0.1681
  393loPI    C2 6274  13.942  17.987  11.514  0.0480 -0.2459 -0.1472
  393loPI    C3 6275  13.546  18.011  11.462  0.0589 -0.2152 -0.2172
  393loPI   PO4 6276  13.742  17.632  10.960 -0.0509  0.2918  0.1218
  393loPI   GL1 6277  13.679  17.530  10.556  0.1343  0.1434  0.1456
  393loPI   GL2 6278  13.546  17.527  10.437 -0.1232  0.2739  0.0932
  393loPI   C1A 6279  13.817  17.205  10.124  0.2062  0.0922 -0.3331
  393loPI   C2A 6280  13.879  17.220   9.691 -0.4513  0.0382  0.2251
  393loPI   C3A 6281  13.804  17.223   9.339  0.2122  0.0733 -0.0726
  393loPI   C4A 6282  13.750  17.256   8.938  0.0965  0.1490  0.0919
  393loPI   C5A 6283  13.647  17.282   8.504 -0.1926  0.1784 -0.0922
  393loPI   C6A 6284  13.269  17.264   8.265  0.0919 -0.2387 -0.0748
  393loPI   C1B 6285  13.502  17.700  10.012  0.1295 -0.0630 -0.0401
  393loPI   C2B 6286  13.488  17.698   9.643  0.1260  0.2184 -0.1503
  393loPI   C3B 6287  13.441  17.694   9.170  0.0140  0.1776  0.1756
  393loPI   C4B 6288  13.426  17.689   8.771 -0.1155  0.0314 -0.3087
  394loPI    C1 6289  11.310   4.452  11.003  0.0132 -0.1181  0.1501
  394loPI    C2 6290  11.546   4.657  11.252 -0.0059 -0.0169  0.0857
  394loPI    C3 6291  11.463   4.273  11.326  0.1084 -0.0287  0.1553
  394loPI   PO4 6292  11.352   4.647  10.782 -0.1801 -0.0552  0.0714
  394loPI   GL1 6293  11.135   4.672  10.477  0.0675 -0.0294 -0.0945
  394loPI   GL2 6294  10.883   4.914  10.497 -0.1813 -0.2967  0.0299
  394loPI   C1A 6295  11.237   4.634  10.103  0.3046  0.4637  0.0470
  394loPI   C2A 6296  11.214   4.561   9.774  0.0067 -0.1164 -0.2384
  394loPI   C3A 6297  11.161   4.558   9.336 -0.1559  0.2018  0.0877
  394loPI   C4A 6298  11.122   4.572   8.847  0.0555 -0.2542  0.0708
  394loPI   C5A 6299  11.135   4.618   8.379  0.0793  0.0129 -0.0515
  394loPI   C6A 6300  11.099   4.615   7.832 -0.0254 -0.0387  0.2630
  394loPI   C1B 6301  10.868   4.997  10.050 -0.1398  0.1645 -0.2197
  394loPI   C2B 6302  10.889   4.880   9.612 -0.0695 -0.2145  0.0979
  394loPI   C3B 6303  10.871   5.001   9.165 -0.0081 -0.2028 -0.0129
  394loPI   C4B 6304  10.777   4.976   8.682  0.2478  0.0128 -0.2776
  395loPI    C1 6305  12.878   8.868  10.548 -0.1072  0.2021 -0.0427
  395loPI    C2 6306  12.640   9.189  10.575 -0.1576  0.1641 -0.0344
  395loPI    C3 6307  12.901   9.108  10.867 -0.1013  0.2320 -0.0655
  395loPI   PO4 6308  12.942   8.902  10.277 -0.3756  0.0797  0.1600
  395loPI   GL1 6309  12.786   8.880   9.935  0.5680  0.0743  0.2102
  395loPI   GL2 6310  12.696   8.422   9.898 -0.1066  0.2031  0.1488
  395loPI   C1A 6311  12.703   8.996   9.536 -0.1012  0.0071 -0.1055
  395loPI   C2A 6312  12.703   9.035   9.132 -0.1432 -0.2708 -0.3132
  395loPI   C3A 6313  12.731   9.037   8.729 -0.0159  0.1952  0.2427
  395loPI   C4A 6314  12.670   9.094   8.246  0.2158 -0.2433 -0.2198
  395loPI   C5A 6315  12.475   8.992   7.880  0.0046 -0.4904 -0.1067
  395loPI   C6A 6316  12.110   8.726   7.793  0.1020 -0.0364 -0.0988
  395loPI   C1B 6317  12.753   8.484   9.523 -0.2016  0.0328  0.0891
  395loPI   C2B 6318  12.692   8.387   9.097 -0.1928 -0.4339  0.1461
  395loPI   C3B 6319  12.584   8.503   8.676 -0.1329 -0.1321 -0.0893
  395loPI   C4B 6320  12.633   8.503   8.108 -0.1042  0.1378 -0.2915
  396loPI    C1 6321   4.613  15.521  10.931 -0.0867 -0.0203  0.0130
  396loPI    C2 6322   4.861  15.323  11.175  0.1328 -0.1420 -0.3023
  396loPI    C3 6323   4.467  15.257  11.193  0.1246  0.0041  0.1576
  396loPI   PO4 6324   4.759  15.462  10.641  0.4731  0.1946  0.2526
  396loPI   GL1 6325   4.607  15.647  10.213  0.0762  0.2737 -0.0991
  396loPI   GL2 6326   4.559  15.229  10.217  0.2136  0.0053 -0.0718
  396loPI   C1A 6327   4.607  15.575   9.711 -0.2206  0.2749  0.0919
  396loPI   C2A 6328   4.793  15.596   9.303  0.1726  0.1065  0.0308
  396loPI   C3A 6329   4.762  15.536   8.886  0.1266 -0.1047 -0.0223
  396loPI   C4A 6330   4.586  15.654   8.397  0.1077  0.2429 -0.0642
  396loPI   C5A 6331   4.623  15.332   7.972  0.2133  0.2054 -0.1007
  396loPI   C6A 6332   4.512  15.380   7.570 -0.3479 -0.0734  0.0598
  396loPI   C1B 6333   4.438  15.044   9.890 -0.0100  0.1144  0.0973
  396loPI   C2B 6334   4.547  15.113   9.526  0.0982 -0.0807 -0.0212
  396loPI   C3B 6335   4.515  15.053   9.028  0.4297  0.0534 -0.1289
  396loPI   C4B 6336   4.561  15.082   8.601  0.0758 -0.0835  0.2111
  397loPI    C1 6337  13.922   6.486  11.161  0.0872  0.2224  0.2522
  397loPI    C2 6338  13.721   6.606  11.485  0.2636  0.2772  0.3425
  397loPI    C3 6339  13.793   6.217  11.427 -0.0115  0.2418  0.2242
  397loPI   PO4 6340  13.760   6.668  10.960  0.3230  0.2251  0.2663
  397loPI   GL1 6341  13.817   6.753  10.484 -0.0249 -0.1666 -0.1747
  397loPI   GL2 6342  14.134   6.678  10.526  0.0261 -0.5343  0.1130
  397loPI   C1A 6343  13.973   7.028  10.253 -0.4364 -0.2973 -0.3291
  397loPI   C2A 6344  14.184   7.073   9.929 -0.0726 -0.2838 -0.1091
  397loPI   C3A 6345  14.218   7.120   9.475  0.0122 -0.1865 -0.1112
  397loPI   C4A 6346  14.186   7.245   9.074 -0.0143 -0.0760 -0.1906
  397loPI   C5A 6347  14.267   7.177   8.636 -0.1358 -0.4024  0.1988
  397loPI   C6A 6348  14.165   6.979   8.294 -0.0389  0.1186  0.1263
  397loPI   C1B 6349  14.081   6.539  10.070 -0.4292 -0.0540 -0.1537
  397loPI   C2B 6350  14.028   6.640   9.629 -0.2644 -0.3871 -0.2312
  397loPI   C3B 6351  14.090   6.706   9.199 -0.0266  0.1173  0.0169
  397loPI   C4B 6352  13.945   6.731   8.782  0.0279 -0.1573  0.1070
  398loPI    C1 6353  10.601   5.846  10.619 -0.0857  0.0168  0.1381
  398loPI    C2 6354  10.375   6.058  10.367  0.2295  0.1473 -0.0410
  398loPI    C3 6355  10.281   6.043  10.755 -0.3033 -0.1162 -0.1712
  398loPI   PO4 6356  10.849   5.916  10.561 -0.1331 -0.0907 -0.0557
  398loPI   GL1 6357  11.126   5.787  10.312  0.1797 -0.0826 -0.3206
  398loPI   GL2 6358  11.014   5.491  10.234  0.0780 -0.0004  0.0103
  398loPI   C1A 6359  11.157   5.875   9.911 -0.0005 -0.3477 -0.0884
  398loPI   C2A 6360  11.155   5.835   9.547 -0.0775 -0.0873 -0.1149
  398loPI   C3A 6361  11.241   5.881   9.138  0.2326 -0.1370  0.0974
  398loPI   C4A 6362  11.277   5.848   8.674 -0.1974  0.4051 -0.1871
  398loPI   C5A 6363  10.973   5.847   8.303 -0.0769  0.1124  0.0565
  398loPI   C6A 6364  10.880   5.574   8.006 -0.4376  0.1545  0.0475
  398loPI   C1B 6365  10.998   5.429   9.847 -0.2351 -0.0811 -0.3150
  398loPI   C2B 6366  10.967   5.380   9.428  0.1345  0.0443 -0.2122
  398loPI   C3B 6367  11.065   5.446   8.994 -0.2637  0.0992  0.1219
  398loPI   C4B 6368  11.086   5.391   8.502  0.1335 -0.2775  0.1699
  399loPI    C1 6369  14.867   6.820  10.929 -0.2055  0.0708  0.2854
  399loPI    C2 6370  15.066   6.567  11.167  0.1290  0.0384 -0.0180
  399loPI    C3 6371  15.029   6.952  11.270  0.1133 -0.0124  0.1707
  399loPI   PO4 6372  14.931   6.778  10.707 -0.3713 -0.3097 -0.0171
  399loPI   GL1 6373  15.011   7.071  10.371  0.0221 -0.0113 -0.0837
  399loPI   GL2 6374  14.882   7.406  10.460  0.2479 -0.0002 -0.3144
  399loPI   C1A 6375  15.071   6.731  10.109 -0.1024 -0.1202 -0.3553
  399loPI   C2A 6376  15.033   6.710   9.715  0.0372  0.1996  0.1908
  399loPI   C3A 6377  15.070   6.800   9.221 -0.1534  0.3930 -0.1541
  399loPI   C4A 6378  14.962   6.757   8.850 -0.0800 -0.2214 -0.1737
  399loPI   C5A 6379  14.740   6.865   8.477 -0.3098 -0.1017 -0.1454
  399loPI   C6A 6380  14.689   6.842   8.041 -0.1042 -0.2242 -0.0747
  399loPI   C1B 6381  14.938   7.625  10.075  0.3869  0.1632  0.1127
  399loPI   C2B 6382  14.955   7.651   9.654 -0.0099  0.0966  0.0588
  399loPI   C3B 6383  14.902   7.704   9.269 -0.4717 -0.2791  0.2904
  399loPI   C4B 6384  14.945   7.699   8.874  0.0373 -0.2437 -0.1677
  400loPI    C1 6385  11.296   7.978  11.198 -0.4555 -0.2571 -0.1595
  400loPI    C2 6386  11.235   7.591  11.120 -0.3140 -0.3221  0.0425
  400loPI    C3 6387  11.065   7.759  11.441  0.0558 -0.3521  0.2591
  400loPI   PO4 6388  11.195   8.197  10.960  0.1785  0.0843  0.0176
  400loPI   GL1 6389  11.015   8.332  10.552  0.0037 -0.0015 -0.2396
  400loPI   GL2 6390  11.028   8.657  10.388  0.2810 -0.0065 -0.2250
  400loPI   C1A 6391  11.111   8.255  10.073  0.0527  0.1863 -0.0618
  400loPI   C2A 6392  11.418   8.026   9.790  0.1365 -0.4717  0.0381
  400loPI   C3A 6393  11.477   7.840   9.397 -0.0977 -0.2314  0.1038
  400loPI   C4A 6394  11.557   7.739   9.041 -0.3931 -0.0317 -0.0128
  400loPI   C5A 6395  11.510   7.988   8.623  0.0164  0.1379 -0.3553
  400loPI   C6A 6396  11.435   8.308   8.377  0.0855 -0.1849  0.1248
  400loPI   C1B 6397  10.947   8.730   9.924 -0.0972 -0.1612  0.4044
  400loPI   C2B 6398  11.214   8.464   9.621  0.2197 -0.0187 -0.4461
  400loPI   C3B 6399  11.474   8.358   9.362 -0.2081 -0.1962  0.2802
  400loPI   C4B 6400  11.696   8.253   9.006  0.0251  0.2623 -0.1009
  401loPI    C1 6401  16.866   3.406  10.728  0.1354  0.0103  0.0366
  401loPI    C2 6402  16.746   3.742  10.910 -0.0910 -0.0099 -0.0726
  401loPI    C3 6403  16.542   3.402  10.962 -0.0200 -0.0692 -0.1769
  401loPI   PO4 6404  16.933   3.532  10.494  0.1864 -0.1112 -0.1589
  401loPI   GL1 6405  16.864   3.829  10.180  0.3019 -0.0001 -0.0751
  401loPI   GL2 6406  16.938   4.141  10.191 -0.1424 -0.0137  0.0061
  401loPI   C1A 6407  17.108   3.631   9.709 -0.0054  0.1103  0.1430
  401loPI   C2A 6408  17.154   3.562   9.372  0.0069 -0.3139 -0.3410
  401loPI   C3A 6409  17.061   3.530   8.974 -0.0479  0.1074 -0.1242
  401loPI   C4A 6410  17.035   3.533   8.580  0.3560 -0.0221 -0.1914
  401loPI   C5A 6411  17.164   3.466   8.211  0.1683  0.1539  0.0249
  401loPI   C6A 6412  17.557   3.459   8.013 -0.3208  0.3283  0.2600
  401loPI   C1B 6413  17.049   4.391   9.817 -0.4589  0.2124 -0.1578
  401loPI   C2B 6414  17.049   4.509   9.406  0.0251  0.1772 -0.0766
  401loPI   C3B 6415  16.996   4.456   8.941 -0.3751 -0.0825 -0.1181
  401loPI   C4B 6416  17.021   4.414   8.498 -0.1537 -0.0772 -0.2733
  402loPI    C1 6417  12.456  16.183  11.160 -0.2976  0.2811 -0.0818
  402loPI    C2 6418  12.136  15.969  11.270 -0.1913  0.1580 -0.0092
  402loPI    C3 6419  12.278  16.255  11.510 -0.0257 -0.0364  0.1283
  402loPI   PO4 6420  12.330  16.239  10.859 -0.0958  0.0911 -0.1187
  402loPI   GL1 6421  12.238  16.118  10.450  0.3866  0.1392  0.0838
  402loPI   GL2 6422  12.213  16.478  10.337  0.0892 -0.2434 -0.0242
  402loPI   C1A 6423  12.361  16.103   9.991  0.2793 -0.1349 -0.1009
  402loPI   C2A 6424  12.373  16.074   9.626 -0.5278 -0.2130 -0.2178
  402loPI   C3A 6425  12.282  16.110   9.243  0.0990 -0.0598 -0.1623
  402loPI   C4A 6426  12.315  16.209   8.696 -0.1834 -0.1544  0.0883
  402loPI   C5A 6427  12.150  16.216   8.233  0.2257  0.3375 -0.3461
  402loPI   C6A 6428  12.465  16.388   7.970 -0.1639 -0.0556  0.1193
  402loPI   C1B 6429  12.035  16.564   9.985  0.1028 -0.2488 -0.1615
  402loPI   C2B 6430  12.052  16.530   9.546  0.0608  0.0117 -0.0907
  402loPI   C3B 6431  12.041  16.567   9.179  0.1820  0.3674 -0.1048
  402loPI   C4B 6432  11.958  16.603   8.809 -0.1465 -0.0842  0.1678
  403loPI    C1 6433   0.001  12.625  10.636 -0.1082 -0.0153  0.0307
  403loPI    C2 6434  -0.396  12.673  10.613 -0.0973  0.0734  0.0219
  403loPI    C3 6435  -0.171  12.952  10.789 -0.0436  0.0004  0.0696
  403loPI   PO4 6436   0.046  12.503  10.366  0.5213  0.1710 -0.2033
  403loPI   GL1 6437  -0.321  12.425  10.145  0.0378 -0.0483  0.0117
  403loPI   GL2 6438  -0.056  12.356   9.873  0.0752 -0.1935 -0.1130
  403loPI   C1A 6439  -0.505  12.198   9.817  0.0914 -0.2655  0.0133
  403loPI   C2A 6440  -0.571  12.193   9.425  0.1542  0.4119  0.0424
  403loPI   C3A 6441  -0.570  12.257   8.988 -0.3154  0.1176  0.2962
  403loPI   C4A 6442  -0.611  12.218   8.553  0.1721 -0.0008  0.2222
  403loPI   C5A 6443  -0.827  12.133   8.169 -0.2569 -0.2630  0.0172
  403loPI   C6A 6444  -0.923  12.147   7.678  0.0439 -0.0439  0.0077
  403loPI   C1B 6445  -0.104  12.260   9.479 -0.0532 -0.1498  0.1996
  403loPI   C2B 6446  -0.074  12.357   9.096  0.0345  0.0006 -0.2559
  403loPI   C3B 6447  -0.070  12.351   8.637 -0.2563  0.0463  0.0248
  403loPI   C4B 6448  -0.265  12.332   8.168 -0.0841  0.0759  0.0492
  404loPI    C1 6449   2.920   8.499  10.202  0.2641 -0.1179 -0.2231
  404loPI    C2 6450   3.209   8.232  10.131  0.2035 -0.2150 -0.1100
  404loPI    C3 6451   3.049   8.260  10.496  0.3274  0.0943 -0.0762
  404loPI   PO4 6452   2.697   8.537   9.918 -0.2131 -0.0656 -0.0733
  404loPI   GL1 6453   2.527   8.502   9.523  0.0357 -0.1010  0.1201
  404loPI   GL2 6454   2.738   8.265   9.361 -0.0230 -0.0675 -0.4708
  404loPI   C1A 6455   2.508   8.804   9.239 -0.2498 -0.3289  0.1378
  404loPI   C2A 6456   2.684   8.979   8.929  0.1779  0.0781 -0.0516
  404loPI   C3A 6457   2.795   8.942   8.436  0.3413 -0.2176  0.1948
  404loPI   C4A 6458   2.947   8.621   8.141 -0.0241  0.3091 -0.0929
  404loPI   C5A 6459   3.344   8.389   8.154 -0.0246  0.0919 -0.0158
  404loPI   C6A 6460   3.418   7.831   8.137 -0.0812  0.1089  0.0010
  404loPI   C1B 6461   2.615   8.126   9.027  0.2841  0.1174  0.0158
  404loPI   C2B 6462   2.509   7.984   8.577  0.1144  0.0154 -0.2018
  404loPI   C3B 6463   2.495   8.194   8.245  0.1469 -0.1253 -0.1880
  404loPI   C4B 6464   2.433   8.426   7.945 -0.0493  0.0364  0.2977
  405loPI    C1 6465  16.139  11.489  11.032 -0.0438 -0.1391  0.2094
  405loPI    C2 6466  16.460  11.560  11.261  0.0185 -0.2587  0.1597
  405loPI    C3 6467  16.170  11.317  11.392 -0.0266 -0.1932  0.1820
  405loPI   PO4 6468  16.224  11.500  10.767 -0.0327  0.0794 -0.1506
  405loPI   GL1 6469  16.115  11.587  10.384  0.0925  0.0196 -0.0171
  405loPI   GL2 6470  16.494  11.624  10.326 -0.0456  0.1992 -0.0480
  405loPI   C1A 6471  16.018  11.646  10.002  0.5327 -0.4208  0.0107
  405loPI   C2A 6472  16.008  11.589   9.562  0.0186  0.0327  0.0751
  405loPI   C3A 6473  15.860  11.591   9.202  0.0065  0.2298  0.1655
  405loPI   C4A 6474  15.774  11.619   8.847  0.4013  0.1328 -0.2060
  405loPI   C5A 6475  15.858  11.681   8.464  0.0506  0.2438  0.2248
  405loPI   C6A 6476  16.128  11.755   8.134  0.1717  0.1510 -0.0729
  405loPI   C1B 6477  16.435  11.542   9.849 -0.1798 -0.4703  0.3591
  405loPI   C2B 6478  16.476  11.623   9.431  0.1130  0.0361 -0.0251
  405loPI   C3B 6479  16.363  11.701   9.051  0.0537  0.2041  0.0905
  405loPI   C4B 6480  16.360  11.790   8.671 -0.0043  0.0718 -0.0326
  406loPI    C1 6481  12.919   0.999  10.878  0.2818 -0.0420 -0.2150
  406loPI    C2 6482  12.651   0.829  11.121  0.0485  0.4673 -0.1046
  406loPI    C3 6483  13.002   0.954  11.267  0.1046  0.3395 -0.1291
  406loPI   PO4 6484  12.905   0.936  10.610  0.2475  0.2361  0.0260
  406loPI   GL1 6485  13.035   1.129  10.363 -0.1580 -0.0750  0.3256
  406loPI   GL2 6486  12.752   1.072  10.132 -0.3593 -0.0714  0.1011
  406loPI   C1A 6487  13.154   1.217   9.957  0.1929  0.0116 -0.1892
  406loPI   C2A 6488  13.180   1.179   9.532 -0.2477 -0.2206 -0.1212
  406loPI   C3A 6489  13.193   1.208   9.108  0.0371 -0.0577 -0.1998
  406loPI   C4A 6490  13.268   1.150   8.662  0.1843 -0.0709  0.3218
  406loPI   C5A 6491  13.113   0.829   8.327  0.0307  0.1546 -0.3521
  406loPI   C6A 6492  12.895   0.411   8.359 -0.0382 -0.1722 -0.1983
  406loPI   C1B 6493  12.678   1.194   9.735 -0.2279 -0.1051  0.3337
  406loPI   C2B 6494  12.658   1.078   9.280 -0.0352 -0.2909 -0.1355
  406loPI   C3B 6495  12.686   1.078   8.857  0.0537 -0.0923  0.2135
  406loPI   C4B 6496  12.540   1.045   8.374  0.0610 -0.1051  0.0847
  407loPI    C1 6497  16.805   6.647  11.023 -0.0126  0.0434 -0.1302
  407loPI    C2 6498  17.177   6.569  11.146  0.0051  0.2698 -0.0357
  407loPI    C3 6499  16.866   6.393  11.325  0.0687  0.0181 -0.1677
  407loPI   PO4 6500  16.869   6.711  10.766  0.1063 -0.1092  0.1853
  407loPI   GL1 6501  16.921   6.722  10.269  0.4311 -0.4306  0.1114
  407loPI   GL2 6502  16.612   6.631  10.219 -0.0951 -0.1697  0.1698
  407loPI   C1A 6503  17.022   6.734   9.786  0.0845 -0.3126  0.1842
  407loPI   C2A 6504  16.852   6.704   9.389 -0.0353 -0.1502 -0.0145
  407loPI   C3A 6505  16.818   6.708   8.948 -0.2188  0.0509  0.0975
  407loPI   C4A 6506  16.867   6.712   8.453 -0.0283  0.0768 -0.1130
  407loPI   C5A 6507  16.647   6.824   8.014  0.0510  0.1147  0.1391
  407loPI   C6A 6508  16.456   7.188   7.912  0.0797 -0.2492 -0.0077
  407loPI   C1B 6509  16.502   6.665   9.756  0.4469  0.1842  0.1090
  407loPI   C2B 6510  16.399   6.601   9.343 -0.1507  0.0118  0.6073
  407loPI   C3B 6511  16.328   6.560   8.849  0.2387  0.2419  0.0257
  407loPI   C4B 6512  16.282   6.591   8.397  0.0457  0.2147 -0.1203
  408loPI    C1 6513   5.671  14.950  11.075 -0.1423  0.0207  0.1229
  408loPI    C2 6514   5.901  14.910  11.401 -0.1936  0.2104  0.1838
  408loPI    C3 6515   5.663  14.610  11.286  0.0817  0.0119  0.1206
  408loPI   PO4 6516   5.806  15.021  10.867 -0.2535  0.0543 -0.0220
  408loPI   GL1 6517   5.915  14.775  10.593  0.1045  0.3471  0.0585
  408loPI   GL2 6518   6.193  14.813  10.457 -0.2945  0.1181  0.2019
  408loPI   C1A 6519   5.840  14.787  10.155 -0.3264 -0.0830 -0.0946
  408loPI   C2A 6520   5.863  14.799   9.808 -0.2050  0.0525  0.0498
  408loPI   C3A 6521   5.882  14.737   9.391  0.0707 -0.2396 -0.1530
  408loPI   C4A 6522   5.867  14.874   8.950 -0.1056 -0.1898  0.0808
  408loPI   C5A 6523   5.849  14.921   8.565  0.1401  0.0271  0.2273
  408loPI   C6A 6524   6.080  14.676   8.301  0.1396 -0.1780  0.1579
  408loPI   C1B 6525   6.337  14.869  10.033  0.0097  0.0986  0.0805
  408loPI   C2B 6526   6.365  14.903   9.621 -0.1643  0.1399 -0.1807
  408loPI   C3B 6527   6.400  14.922   9.147 -0.0007 -0.1477 -0.0675
  408loPI   C4B 6528   6.414  14.853   8.606 -0.2439 -0.2493 -0.1731
  409loPI    C1 6529   8.814   3.869  11.131 -0.2186  0.0806 -0.1863
  409loPI    C2 6530   8.650   3.576  11.349 -0.0060  0.0149 -0.1129
  409loPI    C3 6531   8.904   3.834  11.519  0.0741  0.0321 -0.2567
  409loPI   PO4 6532   8.852   3.712  10.893  0.0613 -0.0690 -0.0405
  409loPI   GL1 6533   8.588   3.754  10.462  0.0405  0.1418 -0.0497
  409loPI   GL2 6534   8.313   3.881  10.329  0.3829 -0.0192 -0.2460
  409loPI   C1A 6535   8.639   3.518  10.214  0.1235 -0.3254 -0.2466
  409loPI   C2A 6536   8.701   3.295   9.803  0.2039  0.1535 -0.0589
  409loPI   C3A 6537   8.799   3.257   9.332  0.0464 -0.1651 -0.2591
  409loPI   C4A 6538   8.756   3.253   8.898 -0.0182  0.4236 -0.1812
  409loPI   C5A 6539   8.681   3.401   8.607 -0.0477  0.0462 -0.0517
  409loPI   C6A 6540   8.798   3.543   8.236 -0.0113  0.1528 -0.1403
  409loPI   C1B 6541   8.319   3.632   9.855 -0.2067  0.0318 -0.0753
  409loPI   C2B 6542   8.374   3.610   9.434  0.0223 -0.2400 -0.2352
  409loPI   C3B 6543   8.330   3.785   9.061  0.0407 -0.4229 -0.1373
  409loPI   C4B 6544   8.334   3.811   8.636  0.3129 -0.1209  0.0240
  410loPI    C1 6545  11.909   2.415  11.289  0.0243 -0.0584  0.1033
  410loPI    C2 6546  12.183   2.707  11.291 -0.0998  0.0598  0.0030
  410loPI    C3 6547  11.921   2.676  11.592 -0.0793  0.0449  0.0194
  410loPI   PO4 6548  12.038   2.258  11.075  0.1324 -0.4113 -0.1030
  410loPI   GL1 6549  12.126   2.265  10.637 -0.3044  0.0704  0.1663
  410loPI   GL2 6550  11.781   2.337  10.642 -0.2913  0.2010  0.1720
  410loPI   C1A 6551  12.246   2.396  10.277 -0.0364 -0.1963  0.0575
  410loPI   C2A 6552  12.266   2.453   9.972  0.1210 -0.1185 -0.0659
  410loPI   C3A 6553  12.242   2.436   9.522 -0.1748 -0.0350 -0.1012
  410loPI   C4A 6554  12.176   2.383   9.122  0.0195  0.0501 -0.1864
  410loPI   C5A 6555  12.365   2.517   8.735  0.0626  0.6864  0.1052
  410loPI   C6A 6556  12.779   2.519   8.579 -0.4551  0.0413  0.1384
  410loPI   C1B 6557  11.606   2.439  10.277 -0.3440  0.0808  0.0419
  410loPI   C2B 6558  11.744   2.391   9.840  0.1291 -0.2804 -0.2382
  410loPI   C3B 6559  11.739   2.357   9.414  0.1926  0.1313  0.1244
  410loPI   C4B 6560  11.727   2.419   9.007  0.1031  0.0415 -0.3680
  411loPI    C1 6561  14.464   6.252  11.211  0.1012 -0.1046 -0.0561
  411loPI    C2 6562  14.776   6.310  11.455  0.1131  0.0237 -0.1011
  411loPI    C3 6563  14.485   6.056  11.559  0.0582  0.1676  0.1027
  411loPI   PO4 6564  14.648   6.357  10.984  0.1362  0.0784  0.2099
  411loPI   GL1 6565  14.586   6.506  10.501 -0.3766 -0.2816 -0.0330
  411loPI   GL2 6566  14.920   6.340  10.354 -0.0411 -0.1711  0.2647
  411loPI   C1A 6567  14.540   6.746  10.110 -0.1847 -0.1179  0.2693
  411loPI   C2A 6568  14.540   6.750   9.676 -0.0653  0.0194 -0.0736
  411loPI   C3A 6569  14.608   6.699   9.241  0.0331 -0.5158  0.2638
  411loPI   C4A 6570  14.437   6.741   8.832  0.1030 -0.2753  0.0025
  411loPI   C5A 6571  14.359   6.564   8.472 -0.0686  0.0071 -0.0063
  411loPI   C6A 6572  14.327   6.532   7.988  0.2028 -0.2197  0.3945
  411loPI   C1B 6573  14.775   6.325   9.925 -0.1500 -0.0215 -0.1568
  411loPI   C2B 6574  14.912   6.325   9.499  0.2308 -0.1545  0.1601
  411loPI   C3B 6575  14.846   6.314   9.045 -0.0990  0.1670  0.0167
  411loPI   C4B 6576  14.799   6.379   8.618  0.0950  0.1676  0.0370
  412loPI    C1 6577  14.610   2.743  11.165  0.1869  0.2420  0.1773
  412loPI    C2 6578  14.961   2.874  11.306  0.1604  0.1721  0.3101
  412loPI    C3 6579  14.682   2.739  11.558  0.1448 -0.0362  0.1839
  412loPI   PO4 6580  14.636   2.570  10.967  0.0098  0.0365  0.0128
  412loPI   GL1 6581  14.698   2.335  10.499  0.1983 -0.3350  0.1034
  412loPI   GL2 6582  14.807   2.589  10.448 -0.1306  0.0999 -0.3262
  412loPI   C1A 6583  14.676   2.235  10.082  0.1793 -0.3213 -0.3627
  412loPI   C2A 6584  14.703   2.273   9.677  0.1577 -0.1046 -0.2635
  412loPI   C3A 6585  14.610   2.231   9.184  0.1776 -0.0400  0.0271
  412loPI   C4A 6586  14.696   2.288   8.835 -0.0972 -0.0492  0.1884
  412loPI   C5A 6587  14.587   2.221   8.399  0.0441 -0.1476 -0.0629
  412loPI   C6A 6588  14.381   2.132   8.040  0.0847 -0.0498 -0.0825
  412loPI   C1B 6589  14.841   2.693   9.952  0.1032  0.2687  0.0510
  412loPI   C2B 6590  14.776   2.776   9.494 -0.1516  0.2562  0.4724
  412loPI   C3B 6591  14.770   2.763   9.060 -0.0525  0.0648  0.0878
  412loPI   C4B 6592  14.741   2.681   8.549 -0.0509  0.1216  0.3795
  413loPI    C1 6593  10.121   8.921  10.738 -0.2906 -0.0470  0.2191
  413loPI    C2 6594  10.082   8.538  10.850  0.0269 -0.1003  0.1569
  413loPI    C3 6595  10.369   8.766  11.012  0.2676 -0.0788 -0.2847
  413loPI   PO4 6596  10.148   8.993  10.449 -0.0577  0.2788 -0.0930
  413loPI   GL1 6597   9.956   8.856  10.055 -0.1012  0.1992 -0.0358
  413loPI   GL2 6598   9.705   8.873   9.970 -0.0224  0.0375 -0.0580
  413loPI   C1A 6599  10.198   8.945   9.626  0.0977 -0.0589 -0.2494
  413loPI   C2A 6600  10.189   8.785   9.251  0.1876 -0.1494  0.2594
  413loPI   C3A 6601  10.164   8.872   8.799  0.0821  0.2079  0.1485
  413loPI   C4A 6602  10.346   8.989   8.443 -0.0464 -0.2258 -0.1894
  413loPI   C5A 6603  10.447   9.477   8.272 -0.0062  0.2835 -0.0113
  413loPI   C6A 6604  10.589   9.921   8.182 -0.0191  0.2734  0.0444
  413loPI   C1B 6605   9.696   8.748   9.528 -0.1652  0.1500  0.0857
  413loPI   C2B 6606   9.755   8.745   9.070  0.0439  0.2500 -0.0079
  413loPI   C3B 6607   9.743   8.565   8.620  0.1778 -0.1239  0.3132
  413loPI   C4B 6608   9.591   8.600   8.247 -0.0142  0.2778  0.2507
  414loPI    C1 6609   1.813  15.017  10.509  0.3433 -0.0208  0.0953
  414loPI    C2 6610   1.864  14.751  10.804  0.1826  0.0004  0.1434
  414loPI    C3 6611   1.529  14.968  10.787  0.1040 -0.1397 -0.1655
  414loPI   PO4 6612   1.814  14.938  10.258 -0.0246 -0.0368  0.1834
  414loPI   GL1 6613   2.001  14.691   9.965  0.0633 -0.0528  0.2093
  414loPI   GL2 6614   2.024  14.974   9.794 -0.0348  0.0276  0.2234
  414loPI   C1A 6615   2.217  14.459   9.689 -0.1609 -0.1594  0.5006
  414loPI   C2A 6616   2.349  14.383   9.228  0.4004  0.0015 -0.0866
  414loPI   C3A 6617   2.205  14.367   8.817  0.0299  0.3973  0.3346
  414loPI   C4A 6618   2.205  14.401   8.415  0.1772 -0.0781 -0.0021
  414loPI   C5A 6619   2.101  14.747   8.107  0.1071  0.0838 -0.1556
  414loPI   C6A 6620   1.871  15.026   7.944 -0.1561 -0.1710  0.1876
  414loPI   C1B 6621   1.954  14.888   9.415 -0.2848  0.1593 -0.0925
  414loPI   C2B 6622   1.943  14.774   9.043 -0.2531 -0.1494 -0.0738
  414loPI   C3B 6623   1.834  14.895   8.638  0.1761  0.0082  0.1051
  414loPI   C4B 6624   1.707  15.296   8.505  0.2070  0.2526 -0.2417
  415loPI    C1 6625  17.804  10.854  10.806  0.0205 -0.1862  0.1316
  415loPI    C2 6626  17.937  10.611  11.095  0.2010  0.0440  0.2458
  415loPI    C3 6627  17.732  10.942  11.190  0.2270  0.1002  0.1079
  415loPI   PO4 6628  17.767  10.711  10.588 -0.6463 -0.0065  0.2061
  415loPI   GL1 6629  17.578  10.409  10.296 -0.1418  0.0719 -0.1627
  415loPI   GL2 6630  17.396  10.198  10.223  0.1961 -0.2207  0.0643
  415loPI   C1A 6631  17.693  10.336   9.817 -0.0401 -0.0459  0.0644
  415loPI   C2A 6632  17.526  10.329   9.321  0.2665  0.1176  0.1753
  415loPI   C3A 6633  17.284  10.477   8.922  0.0519 -0.0586  0.1417
  415loPI   C4A 6634  17.284  10.353   8.472 -0.2156 -0.0015  0.0368
  415loPI   C5A 6635  17.415  10.174   8.064 -0.1403 -0.3415 -0.0602
  415loPI   C6A 6636  17.490   9.922   7.698  0.1199  0.0011  0.0780
  415loPI   C1B 6637  17.058  10.163   9.903 -0.0034 -0.2409 -0.0931
  415loPI   C2B 6638  16.974  10.315   9.433 -0.1200  0.1575 -0.1193
  415loPI   C3B 6639  16.791  10.336   8.981 -0.0365  0.1100 -0.2577
  415loPI   C4B 6640  16.773  10.427   8.598  0.1374 -0.3039  0.0652
  416loPI    C1 6641  16.976   4.767  10.918  0.0020 -0.0642 -0.1707
  416loPI    C2 6642  16.930   4.420  11.111 -0.0585  0.1185  0.1500
  416loPI    C3 6643  16.958   4.762  11.317  0.0766  0.2981 -0.1591
  416loPI   PO4 6644  16.793   4.868  10.749 -0.0652  0.3359 -0.1052
  416loPI   GL1 6645  16.733   5.048  10.321 -0.1773 -0.2831  0.0304
  416loPI   GL2 6646  16.854   4.834  10.078 -0.3707  0.2544  0.1576
  416loPI   C1A 6647  16.520   5.235  10.031  0.0353 -0.0952 -0.0450
  416loPI   C2A 6648  16.372   5.144   9.585  0.1947  0.1498  0.0828
  416loPI   C3A 6649  16.292   5.198   9.160 -0.1660 -0.2674 -0.3368
  416loPI   C4A 6650  16.298   5.222   8.749  0.2182  0.0099 -0.0922
  416loPI   C5A 6651  16.129   5.259   8.347  0.0852 -0.0954  0.2525
  416loPI   C6A 6652  15.902   5.565   8.394  0.2607 -0.0343 -0.1855
  416loPI   C1B 6653  16.772   4.859   9.660 -0.1155 -0.3141  0.0119
  416loPI   C2B 6654  16.673   4.790   9.271  0.0147  0.1737  0.0339
  416loPI   C3B 6655  16.658   4.800   8.829 -0.0135  0.1674 -0.1099
  416loPI   C4B 6656  16.535   4.920   8.415 -0.3025  0.0182 -0.1217
  417loPI    C1 6657   2.978  14.870  10.508  0.0079  0.0027 -0.1101
  417loPI    C2 6658   2.849  14.512  10.384  0.0421 -0.0622  0.0391
  417loPI    C3 6659   3.237  14.569  10.461  0.0757  0.0776 -0.2209
  417loPI   PO4 6660   2.777  15.052  10.424  0.3230  0.2913  0.2808
  417loPI   GL1 6661   2.777  15.390  10.150  0.0702 -0.0996  0.1633
  417loPI   GL2 6662   2.895  15.630  10.041  0.0147 -0.3151 -0.3087
  417loPI   C1A 6663   2.745  15.332   9.704  0.2564  0.1710  0.0833
  417loPI   C2A 6664   2.753  15.259   9.247  0.0382  0.2306  0.1592
  417loPI   C3A 6665   2.607  15.298   8.827 -0.1741 -0.1405 -0.0687
  417loPI   C4A 6666   2.790  15.347   8.338 -0.0002  0.1421 -0.1342
  417loPI   C5A 6667   3.270  15.340   8.163 -0.3114 -0.2085 -0.0024
  417loPI   C6A 6668   3.569  15.361   7.962  0.0081  0.2084  0.2375
  417loPI   C1B 6669   3.066  15.714   9.641 -0.0127  0.2232 -0.1783
  417loPI   C2B 6670   3.385  15.895   9.270 -0.1589 -0.3089 -0.0645
  417loPI   C3B 6671   3.415  15.846   8.858  0.0650  0.0494 -0.0196
  417loPI   C4B 6672   3.377  15.701   8.443  0.0894  0.2659 -0.0900
  418loPI    C1 6673   8.204   9.774  10.602  0.1438  0.2102  0.2846
  418loPI    C2 6674   8.394   9.480  10.796 -0.0618 -0.0820  0.0513
  418loPI    C3 6675   8.022   9.582  10.903 -0.0877 -0.0842 -0.0356
  418loPI   PO4 6676   8.370   9.817  10.423 -0.1266 -0.2778  0.0208
  418loPI   GL1 6677   8.381   9.842   9.927  0.0478  0.0688  0.1247
  418loPI   GL2 6678   8.478   9.571   9.774 -0.0056 -0.1925 -0.1565
  418loPI   C1A 6679   8.685   9.868   9.522 -0.1068 -0.1699 -0.1110
  418loPI   C2A 6680   8.423   9.865   9.127  0.1028  0.1810 -0.2050
  418loPI   C3A 6681   8.480   9.960   8.702  0.2479  0.0370  0.1656
  418loPI   C4A 6682   8.601  10.164   8.333 -0.3068  0.2160 -0.1185
  418loPI   C5A 6683   8.777  10.445   8.081 -0.0880  0.0204 -0.2998
  418loPI   C6A 6684   9.106  10.610   7.945 -0.1588  0.0324  0.2576
  418loPI   C1B 6685   8.382   9.300   9.452 -0.2276  0.0731  0.4001
  418loPI   C2B 6686   8.209   9.261   8.985 -0.2106  0.0209 -0.0046
  418loPI   C3B 6687   8.162   9.173   8.584  0.3395  0.0814  0.0633
  418loPI   C4B 6688   8.341   9.353   8.244  0.1608 -0.0340  0.1179
  419loPI    C1 6689   7.128   8.065  10.737  0.0473 -0.0983 -0.2032
  419loPI    C2 6690   7.349   7.907  11.030 -0.0321 -0.0457 -0.1146
  419loPI    C3 6691   6.975   8.028  11.104 -0.0824 -0.1113 -0.2580
  419loPI   PO4 6692   7.160   7.964  10.528 -0.1561  0.0383 -0.1931
  419loPI   GL1 6693   7.001   7.823  10.084  0.0307 -0.3216 -0.1946
  419loPI   GL2 6694   7.024   8.141   9.957 -0.7494  0.0159 -0.0949
  419loPI   C1A 6695   7.001   7.746   9.676 -0.1805  0.0935 -0.2517
  419loPI   C2A 6696   7.046   7.693   9.276 -0.1345 -0.2407 -0.1370
  419loPI   C3A 6697   7.016   7.593   8.861 -0.0120 -0.1330  0.2945
  419loPI   C4A 6698   7.052   7.595   8.385 -0.0601 -0.0217 -0.0167
  419loPI   C5A 6699   7.087   7.809   8.004  0.0791  0.3302 -0.0418
  419loPI   C6A 6700   7.073   8.014   7.658  0.2280 -0.1981  0.1308
  419loPI   C1B 6701   7.255   8.229   9.559 -0.2960  0.0091  0.2740
  419loPI   C2B 6702   7.241   8.182   9.177  0.4007 -0.1703  0.0612
  419loPI   C3B 6703   7.215   8.198   8.734  0.1254  0.1090  0.2917
  419loPI   C4B 6704   7.282   8.200   8.323 -0.3870  0.1175  0.2291
  420loPI    C1 6705  14.333   7.217  11.164 -0.3324 -0.1043 -0.1496
  420loPI    C2 6706  13.996   7.386  11.296 -0.1586  0.0814  0.0654
  420loPI    C3 6707  14.301   7.325  11.548 -0.0234 -0.0677 -0.1312
  420loPI   PO4 6708  14.406   7.348  10.911 -0.0259 -0.1159 -0.0408
  420loPI   GL1 6709  14.267   7.406  10.511  0.1596 -0.4518  0.0022
  420loPI   GL2 6710  14.086   7.506  10.241 -0.1290  0.0646 -0.0022
  420loPI   C1A 6711  14.549   7.293  10.156  0.0637  0.2397  0.2050
  420loPI   C2A 6712  14.775   7.231   9.802  0.0229  0.0373  0.1316
  420loPI   C3A 6713  14.743   7.183   9.381 -0.1814 -0.0608  0.1941
  420loPI   C4A 6714  14.647   7.226   8.964 -0.0549  0.0898  0.1970
  420loPI   C5A 6715  14.730   7.410   8.534  0.2344  0.1119 -0.1754
  420loPI   C6A 6716  15.016   7.709   8.411 -0.0289  0.5405 -0.1937
  420loPI   C1B 6717  14.009   7.544   9.765 -0.1214  0.3465  0.0252
  420loPI   C2B 6718  13.932   7.581   9.418 -0.0599 -0.0119  0.0693
  420loPI   C3B 6719  13.833   7.716   9.002 -0.1501 -0.0456  0.0938
  420loPI   C4B 6720  13.812   7.625   8.604  0.2953  0.1271  0.1006
  421loPI    C1 6721  17.230  15.467  10.487 -0.1925 -0.1412 -0.0196
  421loPI    C2 6722  17.321  15.142  10.702 -0.0573 -0.1226 -0.0481
  421loPI    C3 6723  17.438  15.503  10.827  0.2020 -0.1316 -0.2571
  421loPI   PO4 6724  17.115  15.447  10.171 -0.0480 -0.0319  0.1118
  421loPI   GL1 6725  16.840  15.334   9.896  0.1410  0.0585 -0.1447
  421loPI   GL2 6726  16.763  15.538   9.682 -0.0148  0.1444 -0.2045
  421loPI   C1A 6727  16.712  15.042   9.620 -0.0115 -0.1387 -0.0046
  421loPI   C2A 6728  16.779  14.910   9.294  0.0740 -0.0541  0.2077
  421loPI   C3A 6729  16.660  14.830   8.849 -0.0438  0.3192  0.1600
  421loPI   C4A 6730  16.559  14.770   8.394  0.1554  0.1195 -0.1702
  421loPI   C5A 6731  16.193  14.702   8.167 -0.0960 -0.0622  0.0057
  421loPI   C6A 6732  15.890  14.497   7.875 -0.3002 -0.0775 -0.0968
  421loPI   C1B 6733  16.573  15.490   9.340  0.1854  0.0093 -0.6135
  421loPI   C2B 6734  16.398  15.361   9.008 -0.0609  0.0442 -0.0736
  421loPI   C3B 6735  16.065  15.177   8.939  0.0878 -0.1718  0.3661
  421loPI   C4B 6736  15.973  15.091   8.505  0.1548 -0.1330 -0.1938
  422loPI    C1 6737   8.803   5.059  10.956 -0.5311 -0.0326  0.0847
  422loPI    C2 6738   9.080   5.232  11.188 -0.2159 -0.1754 -0.1766
  422loPI    C3 6739   8.691   5.283  11.268 -0.1166 -0.0123  0.2254
  422loPI   PO4 6740   8.947   5.069  10.756 -0.2447  0.2675 -0.3370
  422loPI   GL1 6741   9.142   5.136  10.473 -0.0091 -0.0453 -0.0889
  422loPI   GL2 6742   9.305   5.361  10.264 -0.1879 -0.1957 -0.0957
  422loPI   C1A 6743   8.883   5.223  10.005 -0.1971  0.2243 -0.2049
  422loPI   C2A 6744   8.904   5.299   9.603 -0.3130 -0.1929 -0.0030
  422loPI   C3A 6745   8.973   5.256   9.129 -0.1630  0.1351 -0.2913
  422loPI   C4A 6746   8.920   5.189   8.744  0.1446  0.0642 -0.0539
  422loPI   C5A 6747   9.131   4.783   8.549 -0.0239 -0.1463 -0.0879
  422loPI   C6A 6748   9.258   4.441   8.254  0.1122 -0.0797  0.0408
  422loPI   C1B 6749   9.385   5.285   9.884 -0.4001 -0.1869  0.1445
  422loPI   C2B 6750   9.361   5.358   9.465 -0.2300 -0.5594  0.1281
  422loPI   C3B 6751   9.485   5.301   9.058  0.2438  0.1350 -0.0418
  422loPI   C4B 6752   9.499   5.264   8.603  0.1371  0.1807  0.0479
  423loPI    C1 6753  13.451   0.128  11.108  0.2237 -0.0015 -0.1450
  423loPI    C2 6754  13.250   0.472  11.144 -0.1388 -0.2440  0.2410
  423loPI    C3 6755  13.487   0.346  11.441  0.1173 -0.2548  0.0357
  423loPI   PO4 6756  13.546   0.212  10.803  0.0991  0.3882  0.4871
  423loPI   GL1 6757  13.672   0.249  10.500 -0.1168  0.4604  0.0811
  423loPI   GL2 6758  13.959   0.425  10.531 -0.1059  0.0516 -0.3091
  423loPI   C1A 6759  13.386   0.311  10.076 -0.1684 -0.2692  0.1341
  423loPI   C2A 6760  13.337   0.319   9.697 -0.0906  0.3351  0.0213
  423loPI   C3A 6761  13.282   0.290   9.209  0.0031  0.3307  0.0476
  423loPI   C4A 6762  13.297   0.210   8.771  0.1769 -0.0770  0.0976
  423loPI   C5A 6763  13.352   0.328   8.473  0.1130  0.2958  0.2325
  423loPI   C6A 6764  13.294   0.507   8.003  0.0783 -0.1565  0.2691
  423loPI   C1B 6765  13.854   0.496  10.094  0.0855 -0.3870 -0.1566
  423loPI   C2B 6766  13.856   0.371   9.724 -0.0713 -0.3434 -0.2654
  423loPI   C3B 6767  13.792   0.406   9.359 -0.0394 -0.1539 -0.3402
  423loPI   C4B 6768  13.859   0.302   8.822 -0.0206 -0.3226  0.1112
  424loPI    C1 6769   6.450   6.191  10.651  0.0623  0.2657  0.2593
  424loPI    C2 6770   6.837   6.161  10.556 -0.0611 -0.0631 -0.1767
  424loPI    C3 6771   6.722   6.134  10.938  0.3402  0.0189 -0.0447
  424loPI   PO4 6772   6.302   6.226  10.451  0.1970  0.0638  0.2143
  424loPI   GL1 6773   6.409   6.185  10.060  0.2131 -0.0461  0.2904
  424loPI   GL2 6774   6.641   5.932  10.178  0.0651  0.4637  0.0475
  424loPI   C1A 6775   6.373   6.302   9.675 -0.0814 -0.1361  0.0713
  424loPI   C2A 6776   6.400   6.330   9.243  0.0552 -0.5008 -0.2142
  424loPI   C3A 6777   6.548   6.217   8.876 -0.0308  0.1137 -0.0845
  424loPI   C4A 6778   6.575   6.164   8.440  0.1330 -0.2757 -0.0363
  424loPI   C5A 6779   6.467   6.045   8.076 -0.0059 -0.2267 -0.0243
  424loPI   C6A 6780   6.220   6.205   7.750  0.1421 -0.1281  0.2074
  424loPI   C1B 6781   6.701   5.918   9.713  0.1130 -0.2476 -0.0889
  424loPI   C2B 6782   6.847   5.774   9.167  0.1709 -0.3870 -0.1131
  424loPI   C3B 6783   6.777   5.760   8.730 -0.0685  0.1625  0.1172
  424loPI   C4B 6784   6.793   5.750   8.275  0.0876  0.1406 -0.1901
  425loPI    C1 6785  16.746  13.321  10.631 -0.2011 -0.3481  0.2732
  425loPI    C2 6786  16.988  13.591  10.799 -0.1983 -0.0821 -0.1442
  425loPI    C3 6787  16.651  13.482  10.985 -0.0177 -0.0695  0.1989
  425loPI   PO4 6788  16.719  13.437  10.318  0.1445  0.2952 -0.2795
  425loPI   GL1 6789  16.839  13.479   9.883  0.3086 -0.0952  0.1269
  425loPI   GL2 6790  16.712  13.533   9.561  0.1816 -0.1742 -0.0448
  425loPI   C1A 6791  17.217  13.522   9.816 -0.1295  0.0340  0.2107
  425loPI   C2A 6792  17.322  13.560   9.384  0.2456  0.0971 -0.0578
  425loPI   C3A 6793  17.267  13.531   9.004 -0.0208 -0.0169  0.3095
  425loPI   C4A 6794  17.259  13.506   8.496  0.0311 -0.3017 -0.0280
  425loPI   C5A 6795  17.058  13.640   8.124  0.0607 -0.2741  0.3030
  425loPI   C6A 6796  16.940  13.999   7.950 -0.1289 -0.4023  0.0606
  425loPI   C1B 6797  16.670  13.407   9.197 -0.0583 -0.4781  0.0544
  425loPI   C2B 6798  16.761  13.461   8.769 -0.0673  0.0321  0.2211
  425loPI   C3B 6799  16.693  13.383   8.329  0.1483  0.1020  0.1373
  425loPI   C4B 6800  16.741  13.277   7.882 -0.0685  0.2383  0.1562
  426loPI    C1 6801  15.508   2.745  11.215  0.0401  0.2493  0.0934
  426loPI    C2 6802  15.362   2.474  11.471 -0.0087  0.2767  0.0948
  426loPI    C3 6803  15.674   2.702  11.576  0.2279  0.0111 -0.0184
  426loPI   PO4 6804  15.520   2.582  11.015 -0.2335  0.1595 -0.0513
  426loPI   GL1 6805  15.494   2.489  10.558  0.1818 -0.0664  0.0359
  426loPI   GL2 6806  15.296   2.739  10.417  0.1556  0.0478  0.1363
  426loPI   C1A 6807  15.705   2.391  10.150  0.0757 -0.0539 -0.0030
  426loPI   C2A 6808  15.693   2.397   9.748  0.0084 -0.1622  0.0915
  426loPI   C3A 6809  15.698   2.391   9.270 -0.0342  0.0067 -0.0010
  426loPI   C4A 6810  15.711   2.307   8.754 -0.0307 -0.1275  0.2425
  426loPI   C5A 6811  15.731   2.250   8.238  0.1088  0.2869 -0.0228
  426loPI   C6A 6812  15.983   2.089   7.894  0.0833  0.2142 -0.0453
  426loPI   C1B 6813  15.356   2.774   9.956  0.2738  0.0245  0.1321
  426loPI   C2B 6814  15.342   2.797   9.519  0.0850  0.1164  0.0564
  426loPI   C3B 6815  15.308   2.804   9.068  0.0758 -0.0372 -0.0730
  426loPI   C4B 6816  15.240   2.725   8.687 -0.2326 -0.1354  0.2519
  427loPI    C1 6817   9.296   6.362  10.937 -0.0346 -0.1068  0.0024
  427loPI    C2 6818   9.123   6.162  11.236 -0.2587 -0.0002 -0.0541
  427loPI    C3 6819   9.464   6.360  11.300 -0.2180 -0.1139  0.0881
  427loPI   PO4 6820   9.125   6.497  10.865 -0.3531 -0.2682  0.0515
  427loPI   GL1 6821   8.968   6.489  10.418 -0.0731 -0.1164  0.4784
  427loPI   GL2 6822   8.754   6.303  10.426 -0.1236  0.2718  0.1118
  427loPI   C1A 6823   9.244   6.689  10.156 -0.0645 -0.4068  0.2679
  427loPI   C2A 6824   9.375   6.704   9.731  0.2798 -0.0617 -0.0117
  427loPI   C3A 6825   9.544   6.628   9.286  0.0766  0.2403 -0.2613
  427loPI   C4A 6826   9.458   6.603   8.859 -0.3166 -0.0577 -0.2710
  427loPI   C5A 6827   9.622   6.766   8.452  0.0860  0.0546 -0.1135
  427loPI   C6A 6828   9.821   6.933   8.132  0.1579 -0.0782  0.3597
  427loPI   C1B 6829   8.744   6.198   9.984 -0.0371  0.2934  0.1223
  427loPI   C2B 6830   8.864   6.159   9.573 -0.1283  0.1517 -0.2106
  427loPI   C3B 6831   8.820   6.071   9.164 -0.0200 -0.2343  0.0612
  427loPI   C4B 6832   8.847   6.052   8.777 -0.1442 -0.0787 -0.1310
  428loPI    C1 6833  14.736  13.110  10.967 -0.0019 -0.0062 -0.0636
  428loPI    C2 6834  14.438  13.112  11.234  0.2563 -0.2050  0.2340
  428loPI    C3 6835  14.698  13.415  11.223  0.0712 -0.0511  0.0013
  428loPI   PO4 6836  14.655  13.170  10.697 -0.2022 -0.0980  0.1866
  428loPI   GL1 6837  14.717  12.950  10.315 -0.1589 -0.3531 -0.0902
  428loPI   GL2 6838  14.864  12.727  10.233 -0.2059 -0.1841  0.1754
  428loPI   C1A 6839  14.695  13.111   9.942 -0.1479 -0.1806 -0.0837
  428loPI   C2A 6840  14.681  13.269   9.546 -0.0091 -0.0896 -0.1887
  428loPI   C3A 6841  14.505  13.279   9.127 -0.0260 -0.0597 -0.0591
  428loPI   C4A 6842  14.630  13.282   8.754  0.2077 -0.2014  0.4045
  428loPI   C5A 6843  14.724  13.303   8.288 -0.0682 -0.1557  0.1439
  428loPI   C6A 6844  14.998  13.568   7.918  0.1115  0.2363 -0.2883
  428loPI   C1B 6845  14.992  12.752   9.802  0.2489  0.0510  0.2008
  428loPI   C2B 6846  14.919  12.855   9.448  0.1899 -0.0569  0.0579
  428loPI   C3B 6847  14.935  12.844   9.004  0.1684 -0.3878 -0.0049
  428loPI   C4B 6848  14.852  12.891   8.547 -0.0302 -0.0070 -0.2796
  429loPI    C1 6849  16.401   2.838  11.104  0.1457  0.1256 -0.1674
  429loPI    C2 6850  16.784   2.942  11.150  0.2031 -0.1833  0.0918
  429loPI    C3 6851  16.537   2.947  11.464 -0.0059  0.0054 -0.0725
  429loPI   PO4 6852  16.432   2.597  10.938  0.2632 -0.0461  0.0786
  429loPI   GL1 6853  16.388   2.421  10.512  0.1398 -0.2508 -0.2382
  429loPI   GL2 6854  16.686   2.569  10.307 -0.0899  0.0939  0.0542
  429loPI   C1A 6855  16.181   2.559  10.152 -0.1181 -0.2181  0.0521
  429loPI   C2A 6856  16.279   2.499   9.795 -0.0716  0.1130  0.0974
  429loPI   C3A 6857  16.255   2.488   9.346 -0.1968 -0.0951 -0.1824
  429loPI   C4A 6858  16.292   2.454   8.863 -0.2469  0.1084 -0.0153
  429loPI   C5A 6859  16.192   2.375   8.437  0.3092 -0.3873 -0.1111
  429loPI   C6A 6860  16.234   2.517   8.071 -0.0400 -0.0550 -0.0902
  429loPI   C1B 6861  16.760   2.640   9.837 -0.2337  0.2496  0.1077
  429loPI   C2B 6862  16.830   2.644   9.407 -0.0761  0.0172 -0.2705
  429loPI   C3B 6863  16.788   2.545   8.992 -0.0218 -0.2879  0.1049
  429loPI   C4B 6864  16.643   2.617   8.540  0.1408  0.1803  0.0721
  430loPI    C1 6865  18.195   1.559  10.899 -0.0435  0.1513 -0.1506
  430loPI    C2 6866  17.801   1.625  10.914 -0.0165  0.2872 -0.0210
  430loPI    C3 6867  18.038   1.760  11.207  0.0782 -0.1322  0.1017
  430loPI   PO4 6868  18.188   1.605  10.640 -0.2898 -0.1694  0.0978
  430loPI   GL1 6869  18.208   1.693  10.108  0.0140  0.0406  0.1807
  430loPI   GL2 6870  18.371   1.335   9.941 -0.2341  0.0684 -0.0259
  430loPI   C1A 6871  17.876   1.902   9.884 -0.3405 -0.3527  0.0771
  430loPI   C2A 6872  17.899   1.910   9.445  0.0288  0.1191  0.0331
  430loPI   C3A 6873  17.925   1.943   8.995  0.0054  0.2306 -0.1579
  430loPI   C4A 6874  17.901   1.911   8.556 -0.2706  0.3698  0.2342
  430loPI   C5A 6875  18.033   1.848   8.108  0.2203 -0.0643  0.0367
  430loPI   C6A 6876  18.142   2.062   7.753 -0.2382  0.2511  0.3079
  430loPI   C1B 6877  18.230   1.511   9.544  0.0759  0.0430  0.0468
  430loPI   C2B 6878  18.258   1.538   9.144 -0.1085  0.0284  0.1904
  430loPI   C3B 6879  18.190   1.499   8.733 -0.1320  0.0081  0.0853
  430loPI   C4B 6880  18.403   1.436   8.380 -0.0615  0.0525  0.3082
  431loPI    C1 6881   6.102  17.159  11.246 -0.0702 -0.0314  0.0832
  431loPI    C2 6882   5.908  17.311  11.560  0.0637 -0.0438  0.1727
  431loPI    C3 6883   6.043  16.935  11.572 -0.2835 -0.1805 -0.0550
  431loPI   PO4 6884   5.985  17.313  10.995  0.3845  0.2014  0.3159
  431loPI   GL1 6885   6.067  17.353  10.524 -0.3772 -0.1246 -0.0266
  431loPI   GL2 6886   5.849  17.663  10.610 -0.0494 -0.3528 -0.1314
  431loPI   C1A 6887   6.247  17.239  10.119 -0.0497  0.1234 -0.0781
  431loPI   C2A 6888   6.347  17.173   9.666  0.0474  0.0084  0.1721
  431loPI   C3A 6889   6.377  17.142   9.253  0.0725  0.2061  0.1423
  431loPI   C4A 6890   6.477  17.207   8.821  0.0776  0.1690 -0.2532
  431loPI   C5A 6891   6.432  17.275   8.396  0.2284 -0.0877 -0.2763
  431loPI   C6A 6892   6.490  17.659   8.178  0.3631 -0.0465 -0.0643
  431loPI   C1B 6893   5.891  17.621  10.132  0.1105  0.1178  0.0277
  431loPI   C2B 6894   5.981  17.629   9.762  0.3608  0.2794  0.1103
  431loPI   C3B 6895   6.062  17.622   9.392 -0.4353 -0.0205 -0.0835
  431loPI   C4B 6896   6.073  17.613   8.949  0.2198  0.2450 -0.3348
  432loPI    C1 6897  11.770   4.283  10.934 -0.1931  0.0769  0.1739
  432loPI    C2 6898  11.869   3.970  11.162  0.0251  0.0011 -0.0210
  432loPI    C3 6899  12.021   4.332  11.241 -0.1316  0.0354  0.1304
  432loPI   PO4 6900  11.796   4.249  10.739 -0.0103  0.0920  0.1017
  432loPI   GL1 6901  11.899   3.992  10.417 -0.2209  0.3455 -0.0102
  432loPI   GL2 6902  11.967   3.733  10.403 -0.0990 -0.0024  0.1215
  432loPI   C1A 6903  12.045   4.224  10.053 -0.2618 -0.2403  0.0049
  432loPI   C2A 6904  12.018   4.169   9.561 -0.0092  0.2076  0.4607
  432loPI   C3A 6905  11.923   4.148   9.107  0.1485  0.0531 -0.1447
  432loPI   C4A 6906  11.944   4.164   8.721 -0.1906 -0.2552  0.1461
  432loPI   C5A 6907  11.797   4.058   8.320 -0.2008 -0.2042  0.3998
  432loPI   C6A 6908  11.648   3.797   7.947 -0.3228  0.4579 -0.2536
  432loPI   C1B 6909  11.872   3.751   9.939 -0.0257  0.0090  0.1035
  432loPI   C2B 6910  11.706   3.668   9.525 -0.3887  0.0524 -0.1676
  432loPI   C3B 6911  11.739   3.697   9.103  0.1173 -0.2094 -0.0071
  432loPI   C4B 6912  11.713   3.706   8.733  0.2092 -0.0642  0.2659
  433loPI    C1 6913   9.711   6.789  10.783  0.0408 -0.0145  0.1614
  433loPI    C2 6914   9.642   7.177  10.855  0.0399 -0.0085  0.1282
  433loPI    C3 6915   9.476   6.898  11.088 -0.1489  0.0039  0.0102
  433loPI   PO4 6916   9.832   6.878  10.480 -0.2040 -0.0090 -0.1926
  433loPI   GL1 6917  10.046   6.676  10.043  0.1335 -0.4339 -0.1419
  433loPI   GL2 6918   9.707   6.709  10.029 -0.2751 -0.2416  0.0205
  433loPI   C1A 6919   9.982   6.715   9.520 -0.1355  0.1975  0.0492
  433loPI   C2A 6920   9.930   6.778   9.047 -0.0972 -0.1369 -0.0034
  433loPI   C3A 6921  10.109   6.807   8.573 -0.2654 -0.0607 -0.2322
  433loPI   C4A 6922  10.338   7.133   8.389 -0.4131  0.0501 -0.2350
  433loPI   C5A 6923  10.461   7.533   8.406 -0.1917  0.0367 -0.2659
  433loPI   C6A 6924  10.450   8.026   8.303  0.0723 -0.0002 -0.1182
  433loPI   C1B 6925   9.672   7.077   9.759 -0.1797  0.1088  0.0576
  433loPI   C2B 6926   9.773   7.307   9.433 -0.2029 -0.2954  0.0896
  433loPI   C3B 6927   9.658   7.207   9.060  0.0612 -0.1848 -0.0496
  433loPI   C4B 6928   9.688   7.171   8.658  0.2151  0.2976 -0.1219
  434loPI    C1 6929  10.916  15.780  10.883 -0.3258 -0.1817  0.0496
  434loPI    C2 6930  11.126  15.923  11.192 -0.1809  0.0919 -0.1710
  434loPI    C3 6931  10.761  15.771  11.251 -0.0809 -0.0277  0.1596
  434loPI   PO4 6932  11.098  15.667  10.728 -0.0821  0.1049  0.2495
  434loPI   GL1 6933  11.132  15.575  10.342 -0.0520  0.1012 -0.0092
  434loPI   GL2 6934  11.230  15.320  10.294  0.0576 -0.0429 -0.1776
  434loPI   C1A 6935  11.016  15.553   9.933 -0.2847  0.0566  0.1062
  434loPI   C2A 6936  11.173  15.467   9.445  0.2445 -0.0882 -0.1836
  434loPI   C3A 6937  11.228  15.516   8.946 -0.0446 -0.1973  0.1071
  434loPI   C4A 6938  11.300  15.479   8.550  0.0294  0.2289  0.3200
  434loPI   C5A 6939  11.302  15.453   8.101  0.1631 -0.0079 -0.0854
  434loPI   C6A 6940  11.006  15.394   7.731  0.0478  0.2220  0.2963
  434loPI   C1B 6941  11.368  15.173   9.944 -0.2141 -0.0841 -0.1106
  434loPI   C2B 6942  11.481  15.096   9.587 -0.2274  0.1669 -0.3651
  434loPI   C3B 6943  11.418  15.000   9.213  0.0065 -0.1086  0.2104
  434loPI   C4B 6944  11.561  15.162   8.851  0.1395 -0.2678  0.3230
  435loPI    C1 6945  13.208  15.609  11.049 -0.1605  0.0548 -0.0193
  435loPI    C2 6946  13.106  15.888  11.317  0.1260 -0.0057  0.1571
  435loPI    C3 6947  13.021  15.503  11.386 -0.1204  0.0166 -0.0089
  435loPI   PO4 6948  13.069  15.837  10.766  0.0059 -0.3348  0.1893
  435loPI   GL1 6949  12.920  15.932  10.378  0.0789  0.2084  0.2407
  435loPI   GL2 6950  12.776  15.618  10.398 -0.0128  0.0567  0.1967
  435loPI   C1A 6951  12.888  16.285   9.950 -0.2062 -0.1263 -0.2940
  435loPI   C2A 6952  12.894  16.231   9.529 -0.0512 -0.1124 -0.2650
  435loPI   C3A 6953  12.803  16.199   9.175 -0.2047 -0.0824 -0.1736
  435loPI   C4A 6954  12.809  16.388   8.703 -0.2010 -0.2007  0.1579
  435loPI   C5A 6955  12.735  16.109   8.387 -0.1354 -0.0341  0.3753
  435loPI   C6A 6956  12.539  15.908   8.305  0.0348  0.0098  0.1022
  435loPI   C1B 6957  12.593  15.657  10.090 -0.3069 -0.1073  0.2905
  435loPI   C2B 6958  12.624  15.606   9.678 -0.2172 -0.3512  0.0681
  435loPI   C3B 6959  12.706  15.681   9.276  0.0011 -0.1434  0.1593
  435loPI   C4B 6960  12.653  15.797   8.844  0.2849 -0.0430 -0.0069
  436loPI    C1 6961   9.130   7.395  10.909  0.1471  0.0373  0.0931
  436loPI    C2 6962   9.183   7.770  11.038  0.0388  0.0102  0.2187
  436loPI    C3 6963   8.832   7.587  11.095 -0.0014 -0.0139 -0.0884
  436loPI   PO4 6964   9.295   7.449  10.595  0.1384  0.5161  0.0072
  436loPI   GL1 6965   9.013   7.253  10.175 -0.2382 -0.0147  0.1800
  436loPI   GL2 6966   8.816   7.478  10.066 -0.3473  0.0060  0.2450
  436loPI   C1A 6967   9.070   7.116   9.793  0.1218  0.3876  0.1956
  436loPI   C2A 6968   9.232   7.137   9.356  0.1023  0.0974 -0.0663
  436loPI   C3A 6969   9.211   7.028   8.904 -0.2469 -0.0503  0.0595
  436loPI   C4A 6970   9.203   7.088   8.433  0.2136  0.2884 -0.0618
  436loPI   C5A 6971   9.197   6.809   8.122  0.0142  0.0336 -0.0413
  436loPI   C6A 6972   9.018   6.375   7.913  0.1138 -0.3671 -0.0849
  436loPI   C1B 6973   8.783   7.502   9.661  0.0324  0.1006 -0.1202
  436loPI   C2B 6974   8.820   7.432   9.183  0.3798  0.2056  0.2583
  436loPI   C3B 6975   8.884   7.478   8.819  0.1222  0.2614 -0.1288
  436loPI   C4B 6976   8.781   7.400   8.408 -0.1742 -0.1466 -0.0510
  437loPI    C1 6977   8.263   0.273  11.299  0.1687  0.1588 -0.0682
  437loPI    C2 6978   8.076   0.574  11.484 -0.0153 -0.0654  0.1174
  437loPI    C3 6979   8.451   0.479  11.586  0.0713  0.1479  0.0038
  437loPI   PO4 6980   8.303   0.354  11.019  0.1260  0.1505 -0.2354
  437loPI   GL1 6981   8.300   0.127  10.628  0.0053  0.0441  0.2598
  437loPI   GL2 6982   7.981   0.124  10.540  0.1402 -0.1061  0.0751
  437loPI   C1A 6983   8.281  -0.026  10.182 -0.1530 -0.0564  0.0237
  437loPI   C2A 6984   8.261  -0.034   9.734 -0.1242 -0.0290 -0.0254
  437loPI   C3A 6985   8.296   0.135   9.315  0.2204 -0.4239  0.0176
  437loPI   C4A 6986   8.338   0.126   8.876  0.1153  0.0534  0.0351
  437loPI   C5A 6987   8.273   0.110   8.447 -0.0508 -0.0107  0.1164
  437loPI   C6A 6988   8.379  -0.058   8.121  0.0167 -0.0034 -0.2870
  437loPI   C1B 6989   8.003   0.399  10.039 -0.0818  0.2905 -0.3127
  437loPI   C2B 6990   8.038   0.445   9.574  0.1196  0.2180  0.0673
  437loPI   C3B 6991   8.025   0.479   9.071  0.1459  0.3019 -0.0594
  437loPI   C4B 6992   8.054   0.497   8.649 -0.0061 -0.1202  0.1742
  438loPI    C1 6993  13.837  13.266  10.755 -0.2114 -0.0055  0.1215
  438loPI    C2 6994  13.520  13.208  10.991 -0.2298 -0.4163  0.0034
  438loPI    C3 6995  13.887  13.219  11.149 -0.3003  0.1406  0.1512
  438loPI   PO4 6996  13.790  13.106  10.600  0.1802  0.0701  0.1078
  438loPI   GL1 6997  13.732  13.188  10.191  0.3480  0.0852  0.2829
  438loPI   GL2 6998  13.838  13.542  10.236 -0.2368 -0.1116  0.3994
  438loPI   C1A 6999  13.607  13.110   9.685  0.3162  0.3675  0.1604
  438loPI   C2A 7000  13.510  13.138   9.226  0.1233 -0.0915  0.1604
  438loPI   C3A 7001  13.605  13.034   8.839  0.0487 -0.0495 -0.0171
  438loPI   C4A 7002  13.655  13.176   8.491  0.0224 -0.6628 -0.0155
  438loPI   C5A 7003  13.940  13.335   8.220  0.1986  0.0518  0.1497
  438loPI   C6A 7004  14.190  13.096   7.838  0.2764 -0.0958 -0.0673
  438loPI   C1B 7005  13.843  13.588   9.797  0.0292 -0.0346  0.0644
  438loPI   C2B 7006  13.794  13.632   9.418  0.1476  0.2688 -0.6849
  438loPI   C3B 7007  13.778  13.591   8.956  0.0338 -0.2083  0.0410
  438loPI   C4B 7008  13.814  13.765   8.519  0.0374  0.0670 -0.3116
  439loPI    C1 7009   6.790   4.881  10.866  0.2247  0.0385 -0.1162
  439loPI    C2 7010   6.572   4.957  11.193  0.1251  0.0339 -0.1813
  439loPI    C3 7011   6.970   4.925  11.221  0.1244  0.1142 -0.0744
  439loPI   PO4 7012   6.612   5.077  10.573  0.0092 -0.2266 -0.0408
  439loPI   GL1 7013   6.848   5.314  10.388  0.2008  0.1578  0.0007
  439loPI   GL2 7014   6.853   5.063  10.155 -0.2197 -0.0070 -0.3468
  439loPI   C1A 7015   6.682   5.487   9.937  0.2003  0.0217  0.3104
  439loPI   C2A 7016   6.598   5.499   9.529 -0.1246  0.0279 -0.4263
  439loPI   C3A 7017   6.587   5.290   9.178 -0.2920  0.2304  0.1237
  439loPI   C4A 7018   6.528   5.233   8.814 -0.1227  0.0619 -0.0636
  439loPI   C5A 7019   6.561   5.305   8.434  0.1647  0.1359  0.0600
  439loPI   C6A 7020   6.562   5.348   7.976  0.3611  0.1455  0.1388
  439loPI   C1B 7021   6.929   4.881   9.747  0.1296 -0.2740  0.1239
  439loPI   C2B 7022   6.974   4.851   9.309  0.1778  0.2738 -0.0948
  439loPI   C3B 7023   6.838   4.879   8.948 -0.1120  0.1320 -0.1312
  439loPI   C4B 7024   6.904   4.863   8.419  0.0589  0.4140  0.0122
  440loPI    C1 7025  16.332  11.973  10.961 -0.0260 -0.0554 -0.2715
  440loPI    C2 7026  16.018  12.022  11.204 -0.1250  0.0628 -0.4212
  440loPI    C3 7027  16.331  12.269  11.230 -0.0580 -0.0339 -0.2952
  440loPI   PO4 7028  16.261  12.007  10.743  0.0948 -0.0995 -0.2837
  440loPI   GL1 7029  16.016  12.090  10.398  0.1766 -0.0969 -0.1041
  440loPI   GL2 7030  15.668  12.052  10.275  0.1386  0.0031  0.4711
  440loPI   C1A 7031  16.190  12.154  10.066  0.1616  0.1768 -0.3208
  440loPI   C2A 7032  16.180  12.033   9.685  0.3187 -0.1587  0.1119
  440loPI   C3A 7033  16.153  12.060   9.288  0.0007  0.1312  0.0789
  440loPI   C4A 7034  16.069  12.147   8.815  0.1005  0.1119  0.0511
  440loPI   C5A 7035  15.948  12.248   8.364  0.0660 -0.1132 -0.1231
  440loPI   C6A 7036  15.828  12.253   7.920 -0.0528  0.1157  0.2012
  440loPI   C1B 7037  15.483  12.013   9.780  0.1117  0.0683 -0.0317
  440loPI   C2B 7038  15.598  11.997   9.372  0.1699  0.0615 -0.0820
  440loPI   C3B 7039  15.501  12.012   9.004  0.1035  0.0820 -0.3475
  440loPI   C4B 7040  15.499  12.101   8.550 -0.0366 -0.3318  0.1363
  441loPI    C1 7041   1.977   6.620  10.669 -0.1505 -0.0111  0.1541
  441loPI    C2 7042   2.170   6.436  10.967 -0.3864 -0.1447  0.2274
  441loPI    C3 7043   1.774   6.393  10.928 -0.4015  0.1121  0.0694
  441loPI   PO4 7044   2.200   6.561  10.379 -0.1628  0.0662  0.0327
  441loPI   GL1 7045   2.212   6.499   9.905  0.2585  0.1172  0.0138
  441loPI   GL2 7046   2.054   6.788   9.624 -0.1482 -0.1599  0.5124
  441loPI   C1A 7047   2.439   6.311   9.623 -0.2107 -0.1010 -0.1306
  441loPI   C2A 7048   2.499   6.236   9.099 -0.1847  0.0878 -0.2002
  441loPI   C3A 7049   2.861   6.412   8.818 -0.0261 -0.0723 -0.1062
  441loPI   C4A 7050   3.127   6.406   8.386 -0.3104 -0.0899  0.0129
  441loPI   C5A 7051   3.302   6.661   8.174  0.2125  0.0636  0.0524
  441loPI   C6A 7052   3.290   7.031   7.891 -0.1299 -0.3910 -0.2633
  441loPI   C1B 7053   1.996   7.024   9.258  0.1831 -0.2448 -0.1343
  441loPI   C2B 7054   1.532   7.139   9.294 -0.3036  0.4744  0.2044
  441loPI   C3B 7055   1.379   7.054   8.860  0.0474  0.0633  0.0887
  441loPI   C4B 7056   1.593   6.952   8.436  0.2483 -0.1424 -0.3005
  442loPI    C1 7057   1.703   0.355  10.417  0.1199 -0.0128 -0.0753
  442loPI    C2 7058   1.414   0.260  10.677  0.2126 -0.3139 -0.0789
  442loPI    C3 7059   1.407   0.613  10.490 -0.0338 -0.2305  0.0842
  442loPI   PO4 7060   1.712   0.178  10.214 -0.1751  0.1623 -0.0861
  442loPI   GL1 7061   1.894   0.251   9.890 -0.4387  0.1418 -0.2264
  442loPI   GL2 7062   2.165   0.350   9.777 -0.0200  0.0370  0.0494
  442loPI   C1A 7063   1.559   0.257   9.511 -0.0982  0.2193  0.0152
  442loPI   C2A 7064   1.281   0.496   9.331 -0.3414  0.3616  0.0916
  442loPI   C3A 7065   1.076   0.535   9.051  0.2658  0.0869  0.3105
  442loPI   C4A 7066   1.109   0.688   8.633 -0.1519  0.2363 -0.0507
  442loPI   C5A 7067   1.224   0.612   8.220  0.0273  0.0244  0.0285
  442loPI   C6A 7068   1.451   0.579   7.794  0.1233 -0.2359  0.0139
  442loPI   C1B 7069   2.165   0.426   9.296 -0.1619 -0.1708  0.0465
  442loPI   C2B 7070   1.975   0.522   8.954  0.0081  0.2200 -0.1183
  442loPI   C3B 7071   1.899   0.252   8.556  0.2915 -0.1017  0.1891
  442loPI   C4B 7072   1.515   0.184   8.408  0.2620  0.1044  0.0533
  443loPI    C1 7073   1.455   6.297  10.550 -0.0405 -0.0163  0.0100
  443loPI    C2 7074   1.531   5.908  10.601  0.0447  0.0222  0.1846
  443loPI    C3 7075   1.357   6.118  10.893 -0.1616  0.0770  0.0246
  443loPI   PO4 7076   1.680   6.399  10.327 -0.4572 -0.1003 -0.0465
  443loPI   GL1 7077   1.908   6.089  10.122 -0.2821 -0.1350  0.5173
  443loPI   GL2 7078   1.544   6.039  10.009  0.0552  0.0411  0.0432
  443loPI   C1A 7079   1.924   6.131   9.649 -0.2632 -0.0375 -0.1203
  443loPI   C2A 7080   1.989   6.350   9.241  0.0503 -0.0666  0.0657
  443loPI   C3A 7081   2.058   6.212   8.831 -0.1390 -0.4949 -0.1769
  443loPI   C4A 7082   2.164   6.163   8.406 -0.0098 -0.2480 -0.0539
  443loPI   C5A 7083   1.898   6.345   8.091 -0.1906  0.0281 -0.1034
  443loPI   C6A 7084   1.519   6.498   8.116  0.5372  0.3180 -0.0020
  443loPI   C1B 7085   1.444   6.149   9.505  0.0864 -0.2427 -0.3483
  443loPI   C2B 7086   1.500   6.258   9.035  0.1565  0.2356 -0.0876
  443loPI   C3B 7087   1.395   6.192   8.587  0.0630 -0.2813 -0.2651
  443loPI   C4B 7088   1.189   6.151   8.183  0.2393 -0.1469 -0.1198
  444loPI    C1 7089  12.252  11.846  10.675 -0.3139 -0.2114  0.0201
  444loPI    C2 7090  12.207  11.957  11.057  0.0907  0.2934 -0.0679
  444loPI    C3 7091  12.547  11.783  10.937 -0.0925 -0.0002 -0.1735
  444loPI   PO4 7092  12.163  12.142  10.597  0.0374 -0.1878  0.3111
  444loPI   GL1 7093  12.075  12.287  10.208  0.2234 -0.1488  0.2262
  444loPI   GL2 7094  12.378  12.135  10.186 -0.0522  0.3214  0.1974
  444loPI   C1A 7095  11.856  12.330   9.819 -0.0012 -0.1305 -0.0293
  444loPI   C2A 7096  11.858  12.439   9.373  0.0115 -0.2145  0.0010
  444loPI   C3A 7097  11.852  12.456   8.907 -0.1688  0.5235 -0.2750
  444loPI   C4A 7098  11.745  12.440   8.521  0.2031  0.0267  0.1053
  444loPI   C5A 7099  11.469  12.435   8.233  0.2154  0.2500 -0.1701
  444loPI   C6A 7100  11.268  12.577   7.867  0.1443  0.2585 -0.2392
  444loPI   C1B 7101  12.274  11.980   9.641  0.0240 -0.2549 -0.0585
  444loPI   C2B 7102  12.148  12.082   9.086 -0.0076  0.1902 -0.0497
  444loPI   C3B 7103  12.199  12.149   8.746  0.0503  0.2682  0.1691
  444loPI   C4B 7104  12.076  12.072   8.356  0.0195 -0.0189 -0.3927
  445loPI    C1 7105  16.459  16.054  10.661 -0.0357  0.0307 -0.1103
  445loPI    C2 7106  16.447  15.661  10.732 -0.2656  0.0473 -0.0512
  445loPI    C3 7107  16.662  15.900  10.969 -0.0485 -0.0538 -0.1441
  445loPI   PO4 7108  16.311  16.031  10.354 -0.1709  0.1044 -0.1475
  445loPI   GL1 7109  16.261  16.259  10.022 -0.0268 -0.0594 -0.0258
  445loPI   GL2 7110  16.128  16.601  10.174  0.0866 -0.2452 -0.0739
  445loPI   C1A 7111  15.853  16.330   9.776 -0.1657 -0.0064  0.0837
  445loPI   C2A 7112  15.797  16.314   9.309 -0.1022 -0.2788  0.2932
  445loPI   C3A 7113  15.764  16.060   8.908 -0.0161  0.0957 -0.0648
  445loPI   C4A 7114  15.857  15.984   8.530  0.3656  0.0746 -0.1154
  445loPI   C5A 7115  15.643  15.943   8.174 -0.0446  0.2582 -0.2163
  445loPI   C6A 7116  15.372  15.644   8.005 -0.0967 -0.0563  0.2373
  445loPI   C1B 7117  16.177  16.805   9.767 -0.1676 -0.0487 -0.1618
  445loPI   C2B 7118  16.174  16.741   9.262 -0.1169 -0.1955 -0.2712
  445loPI   C3B 7119  16.178  16.619   8.854  0.1111 -0.1773 -0.2153
  445loPI   C4B 7120  15.805  16.552   8.681 -0.0261 -0.0612  0.0902
  446loPI    C1 7121  14.879   3.314  11.104  0.0415  0.1866  0.1035
  446loPI    C2 7122  14.658   3.225  11.425 -0.0338  0.0507  0.0149
  446loPI    C3 7123  14.878   3.559  11.420 -0.5170  0.3787 -0.0341
  446loPI   PO4 7124  14.803   3.262  10.886 -0.2134 -0.2862 -0.1669
  446loPI   GL1 7125  14.664   3.019  10.587  0.1992 -0.0500 -0.3827
  446loPI   GL2 7126  14.391   2.821  10.603  0.3328 -0.3239  0.0483
  446loPI   C1A 7127  14.558   3.111  10.203 -0.1382  0.0890  0.0250
  446loPI   C2A 7128  14.557   3.180   9.783 -0.0260  0.3706  0.2942
  446loPI   C3A 7129  14.542   3.174   9.282  0.2622 -0.1552  0.2612
  446loPI   C4A 7130  14.492   3.159   8.786  0.2529 -0.2761 -0.0166
  446loPI   C5A 7131  14.509   3.091   8.327  0.3238  0.3698 -0.1403
  446loPI   C6A 7132  14.174   3.305   8.155 -0.0207  0.3369 -0.3966
  446loPI   C1B 7133  14.312   2.578  10.200  0.0525 -0.2596 -0.1239
  446loPI   C2B 7134  14.334   2.604   9.782  0.0671  0.2895  0.0215
  446loPI   C3B 7135  14.312   2.710   9.289 -0.2228  0.0247 -0.0998
  446loPI   C4B 7136  14.278   2.680   8.871  0.1998  0.0660  0.1675
  447loPI    C1 7137  14.712  15.244  10.926  0.0014  0.2424 -0.1849
  447loPI    C2 7138  14.771  15.337  11.311  0.0358 -0.0462 -0.1181
  447loPI    C3 7139  15.053  15.420  11.039  0.0612  0.0507 -0.0628
  447loPI   PO4 7140  14.547  15.470  10.879 -0.1675  0.4579 -0.0451
  447loPI   GL1 7141  14.466  15.489  10.598  0.3474 -0.1897  0.3519
  447loPI   GL2 7142  14.702  15.332  10.424  0.3058 -0.2252  0.3556
  447loPI   C1A 7143  14.418  15.795  10.202 -0.1016  0.0197  0.0046
  447loPI   C2A 7144  14.266  15.938   9.778 -0.1303 -0.0219 -0.1005
  447loPI   C3A 7145  14.178  16.003   9.314  0.3170 -0.2278 -0.1723
  447loPI   C4A 7146  14.107  15.955   8.888 -0.3391 -0.1554  0.0463
  447loPI   C5A 7147  14.094  15.930   8.440 -0.2896 -0.1668 -0.0742
  447loPI   C6A 7148  14.020  16.080   8.032 -0.2700  0.0289 -0.2747
  447loPI   C1B 7149  14.599  15.438   9.950 -0.0182 -0.0327  0.0659
  447loPI   C2B 7150  14.485  15.514   9.514 -0.2289 -0.1619 -0.1184
  447loPI   C3B 7151  14.546  15.484   9.066 -0.0600  0.1769  0.0998
  447loPI   C4B 7152  14.494  15.579   8.618 -0.0113  0.1395  0.2568
  448loPI    C1 7153  10.265   4.410  11.039  0.2245  0.0151 -0.1858
  448loPI    C2 7154  10.536   4.607  11.257 -0.0171  0.1328  0.0117
  448loPI    C3 7155  10.183   4.777  11.176  0.0100  0.0268 -0.3412
  448loPI   PO4 7156  10.400   4.270  10.898 -0.1781 -0.0415 -0.1017
  448loPI   GL1 7157  10.336   4.114  10.535  0.0739 -0.0016  0.0332
  448loPI   GL2 7158  10.687   4.192  10.510 -0.1476 -0.1687  0.0180
  448loPI   C1A 7159  10.536   4.034  10.060 -0.2209 -0.1667  0.2182
  448loPI   C2A 7160  10.492   3.997   9.591 -0.1273  0.0657 -0.0998
  448loPI   C3A 7161  10.399   4.028   9.172 -0.1222 -0.0596 -0.1828
  448loPI   C4A 7162  10.418   3.958   8.727 -0.1197 -0.2236 -0.1987
  448loPI   C5A 7163  10.105   4.133   8.432  0.1599  0.2408 -0.0697
  448loPI   C6A 7164   9.710   4.215   8.244  0.3049  0.0042 -0.1990
  448loPI   C1B 7165  10.917   3.828  10.346 -0.2108 -0.0587 -0.0299
  448loPI   C2B 7166  10.815   3.667   9.910  0.2207  0.2275  0.0738
  448loPI   C3B 7167  10.709   3.588   9.510 -0.3037  0.2530 -0.0887
  448loPI   C4B 7168  10.702   3.523   9.157 -0.0682  0.0972  0.1420
  449loPI    C1 7169   3.643   4.231  10.721  0.1370 -0.2269 -0.0323
  449loPI    C2 7170   3.514   3.929  10.950 -0.1828 -0.1384 -0.0909
  449loPI    C3 7171   3.406   4.305  11.035  0.2976 -0.0242  0.0437
  449loPI   PO4 7172   3.631   4.203  10.532  0.0697  0.2671  0.2363
  449loPI   GL1 7173   3.534   4.192  10.149 -0.0234  0.1400 -0.3614
  449loPI   GL2 7174   3.700   4.427  10.043 -0.1442 -0.2884 -0.1634
  449loPI   C1A 7175   3.621   3.959   9.764 -0.3315  0.0844 -0.1006
  449loPI   C2A 7176   3.705   3.989   9.347  0.0940  0.2706  0.2559
  449loPI   C3A 7177   3.592   4.101   8.870  0.0874 -0.0445 -0.0261
  449loPI   C4A 7178   3.496   4.232   8.439  0.1647 -0.0511 -0.1129
  449loPI   C5A 7179   3.617   4.311   8.024  0.0117 -0.1941  0.0613
  449loPI   C6A 7180   3.618   4.739   7.855 -0.1763 -0.1406 -0.1399
  449loPI   C1B 7181   3.880   4.413   9.566  0.0270 -0.1907 -0.1992
  449loPI   C2B 7182   3.879   4.464   9.180 -0.3423 -0.0048 -0.1532
  449loPI   C3B 7183   3.709   4.566   8.827  0.0392  0.1654 -0.0947
  449loPI   C4B 7184   3.650   4.656   8.372  0.2351  0.1910  0.1222
  450loPI    C1 7185   9.578   5.895  11.127 -0.0657  0.0077  0.0254
  450loPI    C2 7186   9.960   5.781  11.100 -0.0734 -0.0670  0.2135
  450loPI    C3 7187   9.836   5.991  11.417 -0.1771  0.0025  0.1275
  450loPI   PO4 7188   9.497   5.884  10.872 -0.1834  0.0667 -0.0731
  450loPI   GL1 7189   9.428   5.841  10.410  0.0585 -0.1168  0.0213
  450loPI   GL2 7190   9.196   6.052  10.374 -0.1491  0.2525 -0.0507
  450loPI   C1A 7191   9.573   5.733  10.009  0.2250 -0.1474 -0.1473
  450loPI   C2A 7192   9.588   5.825   9.579 -0.2698  0.2461 -0.0952
  450loPI   C3A 7193   9.689   5.767   9.151  0.0643 -0.0111  0.4056
  450loPI   C4A 7194   9.742   5.754   8.725  0.2005  0.1956  0.1187
  450loPI   C5A 7195  10.156   5.753   8.468 -0.1582  0.0984 -0.1715
  450loPI   C6A 7196  10.469   5.964   8.190 -0.1975 -0.0259  0.1836
  450loPI   C1B 7197   9.461   6.252   9.987  0.2592  0.1445 -0.0190
  450loPI   C2B 7198   9.349   6.235   9.571 -0.1400  0.3722 -0.0440
  450loPI   C3B 7199   9.365   6.185   9.215  0.2904  0.0922 -0.0655
  450loPI   C4B 7200   9.377   6.086   8.807  0.2757 -0.0154 -0.0524
  451loPI    C1 7201   1.423   3.027  10.669 -0.0503 -0.0766 -0.2364
  451loPI    C2 7202   1.095   3.110  10.456  0.0361 -0.0014 -0.3407
  451loPI    C3 7203   1.093   2.805  10.715 -0.0928 -0.0472 -0.3948
  451loPI   PO4 7204   1.649   3.028  10.476  0.0724 -0.0967 -0.0539
  451loPI   GL1 7205   1.639   3.083  10.037 -0.2143  0.0018 -0.2079
  451loPI   GL2 7206   1.991   2.878  10.160  0.0108 -0.1391 -0.1958
  451loPI   C1A 7207   2.072   3.058   9.705 -0.1023 -0.0524  0.1509
  451loPI   C2A 7208   2.251   3.133   9.341 -0.0757 -0.2424  0.5353
  451loPI   C3A 7209   2.141   2.993   9.035  0.1507 -0.0216  0.1244
  451loPI   C4A 7210   2.217   2.952   8.563  0.3003  0.0419  0.0820
  451loPI   C5A 7211   2.366   2.768   8.204  0.2045  0.1534 -0.2322
  451loPI   C6A 7212   2.810   2.628   8.166 -0.0932  0.0371 -0.2157
  451loPI   C1B 7213   2.253   2.583   9.868  0.0184 -0.1358  0.0494
  451loPI   C2B 7214   2.282   2.664   9.469  0.1359 -0.0684 -0.0418
  451loPI   C3B 7215   2.238   2.516   8.999 -0.1072 -0.1135  0.2743
  451loPI   C4B 7216   2.535   2.504   8.593 -0.2450 -0.2351  0.0474
  452loPI    C1 7217  13.725  13.771  10.726  0.1518  0.0018 -0.0146
  452loPI    C2 7218  13.399  13.667  10.933  0.0564  0.2012 -0.0616
  452loPI    C3 7219  13.757  13.673  11.112  0.0746 -0.2497 -0.0701
  452loPI   PO4 7220  13.646  13.977  10.542 -0.0449 -0.2219  0.1026
  452loPI   GL1 7221  13.622  13.974  10.077  0.3490 -0.0187  0.1065
  452loPI   GL2 7222  13.988  14.094  10.099 -0.0105  0.0038  0.1392
  452loPI   C1A 7223  13.485  14.010   9.677 -0.0786 -0.0162  0.2452
  452loPI   C2A 7224  13.456  14.070   9.294 -0.1795  0.2690  0.0806
  452loPI   C3A 7225  13.401  14.041   8.782 -0.1339 -0.1106 -0.0814
  452loPI   C4A 7226  13.436  14.093   8.417 -0.2233  0.2367  0.0970
  452loPI   C5A 7227  13.501  14.049   8.005 -0.0817 -0.3034 -0.0286
  452loPI   C6A 7228  13.831  13.820   7.774 -0.0354  0.1346  0.6180
  452loPI   C1B 7229  14.023  14.106   9.708  0.1370  0.1428  0.1187
  452loPI   C2B 7230  13.960  14.128   9.243 -0.2284  0.1223  0.0113
  452loPI   C3B 7231  13.981  14.120   8.892 -0.1357  0.0921  0.2618
  452loPI   C4B 7232  13.909  14.349   8.558  0.1055 -0.2720 -0.0948
  453loPI    C1 7233  14.479  16.418  11.004  0.2290 -0.1532  0.0123
  453loPI    C2 7234  14.179  16.313  11.248 -0.2268  0.2863 -0.3380
  453loPI    C3 7235  14.558  16.294  11.376 -0.4147 -0.0356  0.2004
  453loPI   PO4 7236  14.315  16.465  10.771 -0.1092 -0.1537  0.1800
  453loPI   GL1 7237  14.074  16.349  10.423  0.4044  0.1817  0.2547
  453loPI   GL2 7238  14.287  16.385  10.175 -0.2208  0.0840 -0.2414
  453loPI   C1A 7239  13.805  16.324   9.969  0.1155 -0.3216  0.4245
  453loPI   C2A 7240  13.805  16.384   9.541  0.0032  0.1374 -0.0911
  453loPI   C3A 7241  13.854  16.399   9.057  0.1275 -0.2026  0.1727
  453loPI   C4A 7242  13.798  16.360   8.705  0.0575  0.0113 -0.0547
  453loPI   C5A 7243  13.682  16.286   8.390  0.0014  0.1043  0.1395
  453loPI   C6A 7244  13.450  16.093   7.978  0.0058 -0.0658 -0.0224
  453loPI   C1B 7245  14.490  16.397   9.767 -0.2829  0.0455 -0.1177
  453loPI   C2B 7246  14.383  16.420   9.390  0.1042  0.1217 -0.0027
  453loPI   C3B 7247  14.354  16.456   9.013  0.3053  0.0986 -0.1826
  453loPI   C4B 7248  14.276  16.423   8.556  0.0381 -0.2742 -0.0004
  454loPI    C1 7249  11.037  14.892  11.315  0.1861  0.0346 -0.0865
  454loPI    C2 7250  11.366  14.726  11.470  0.2920  0.2958 -0.0270
  454loPI    C3 7251  11.261  15.098  11.574 -0.1472  0.1349  0.1287
  454loPI   PO4 7252  11.031  14.811  10.989  0.0942  0.3016 -0.0402
  454loPI   GL1 7253  11.189  14.833  10.473 -0.0675 -0.2343 -0.2204
  454loPI   GL2 7254  11.406  14.829  10.381  0.2239 -0.0573 -0.2512
  454loPI   C1A 7255  10.872  15.023  10.110 -0.2275  0.1026  0.0431
  454loPI   C2A 7256  10.876  15.152   9.641 -0.3017  0.1663 -0.2601
  454loPI   C3A 7257  10.963  14.974   9.203  0.0564 -0.0390 -0.0959
  454loPI   C4A 7258  11.127  14.995   8.810 -0.1001 -0.1858  0.1746
  454loPI   C5A 7259  11.403  15.025   8.393  0.2032  0.0904 -0.1249
  454loPI   C6A 7260  11.673  15.028   7.953 -0.1053 -0.0282  0.1948
  454loPI   C1B 7261  11.200  14.663   9.971 -0.1100  0.1792 -0.0939
  454loPI   C2B 7262  11.173  14.622   9.566  0.0836 -0.1206  0.0228
  454loPI   C3B 7263  11.252  14.576   9.061 -0.3481  0.0333  0.1958
  454loPI   C4B 7264  11.233  14.534   8.572 -0.3215 -0.2674 -0.0406
  455loPI    C1 7265  13.122  12.433  10.862  0.1328 -0.1170  0.0481
  455loPI    C2 7266  13.373  12.744  10.865  0.0421 -0.0443  0.1645
  455loPI    C3 7267  13.255  12.579  11.210 -0.2311  0.0528  0.1198
  455loPI   PO4 7268  13.026  12.472  10.589  0.0004 -0.0433  0.3414
  455loPI   GL1 7269  13.021  12.316  10.229  0.0963 -0.0293  0.0350
  455loPI   GL2 7270  13.256  12.550  10.091 -0.2692  0.0913 -0.0424
  455loPI   C1A 7271  12.833  12.153   9.801 -0.0774 -0.0592  0.2504
  455loPI   C2A 7272  12.736  12.094   9.345 -0.2729  0.0107  0.2306
  455loPI   C3A 7273  12.660  12.103   8.916  0.1335  0.1088 -0.0989
  455loPI   C4A 7274  12.657  12.134   8.474  0.4107  0.0306  0.0812
  455loPI   C5A 7275  12.519  11.905   8.105 -0.0491  0.3539 -0.1271
  455loPI   C6A 7276  12.364  11.524   7.906 -0.0291  0.0760  0.0558
  455loPI   C1B 7277  13.281  12.423   9.741 -0.1050  0.1696  0.2211
  455loPI   C2B 7278  13.409  12.602   9.386 -0.1563 -0.1948  0.2340
  455loPI   C3B 7279  13.442  12.581   8.968  0.0920  0.0555 -0.1872
  455loPI   C4B 7280  13.462  12.634   8.491 -0.1321 -0.0609 -0.1140
  456loPI    C1 7281   7.500   7.031  10.830 -0.1214 -0.1575 -0.0700
  456loPI    C2 7282   7.761   6.737  10.902 -0.1273 -0.1495 -0.0158
  456loPI    C3 7283   7.543   6.889  11.201  0.1225  0.1453  0.0218
  456loPI   PO4 7284   7.605   7.026  10.543  0.2520  0.4803  0.2210
  456loPI   GL1 7285   7.668   6.811  10.066 -0.0184 -0.4178 -0.0618
  456loPI   GL2 7286   7.891   6.728  10.008 -0.1100 -0.3321 -0.2282
  456loPI   C1A 7287   7.598   6.984   9.672  0.4549 -0.0589 -0.0921
  456loPI   C2A 7288   7.589   6.896   9.304  0.0452  0.1827 -0.1479
  456loPI   C3A 7289   7.683   6.809   8.875  0.0483  0.0153  0.0107
  456loPI   C4A 7290   7.570   6.801   8.399  0.1576 -0.2228 -0.2890
  456loPI   C5A 7291   7.132   6.622   8.162 -0.0476 -0.0707  0.2337
  456loPI   C6A 7292   7.032   6.186   8.061  0.2097  0.5038 -0.0984
  456loPI   C1B 7293   7.935   6.622   9.504  0.0203 -0.0413 -0.1451
  456loPI   C2B 7294   7.989   6.437   9.108 -0.0342  0.1626  0.0306
  456loPI   C3B 7295   7.996   6.449   8.736  0.2172  0.1818  0.0739
  456loPI   C4B 7296   8.011   6.279   8.338 -0.0213  0.2978  0.1413
  457loPI    C1 7297  10.512  11.305  10.634  0.0216  0.0562 -0.0702
  457loPI    C2 7298  10.191  11.270  10.869 -0.0972  0.3728 -0.1788
  457loPI    C3 7299  10.541  11.112  10.983 -0.2605  0.1274 -0.0051
  457loPI   PO4 7300  10.447  11.162  10.343 -0.5343  0.0124 -0.0944
  457loPI   GL1 7301  10.475  11.030   9.903  0.2461 -0.0682 -0.2109
  457loPI   GL2 7302  10.198  11.060   9.701 -0.0045 -0.2676  0.1164
  457loPI   C1A 7303  10.673  10.880   9.492  0.1734 -0.2792  0.0486
  457loPI   C2A 7304  10.843  10.920   9.086  0.1865 -0.1826 -0.0426
  457loPI   C3A 7305  11.247  10.996   8.841  0.1262 -0.3447 -0.0206
  457loPI   C4A 7306  11.379  11.060   8.455 -0.0721  0.0261 -0.0729
  457loPI   C5A 7307  11.476  11.431   8.126  0.2465  0.2322  0.0745
  457loPI   C6A 7308  11.739  11.457   7.828  0.0302 -0.1183 -0.1399
  457loPI   C1B 7309   9.895  11.129   9.348 -0.0289 -0.0112  0.1413
  457loPI   C2B 7310   9.529  11.127   9.054 -0.3889  0.2242  0.3761
  457loPI   C3B 7311   9.439  11.151   8.577  0.3440  0.0031 -0.2207
  457loPI   C4B 7312   9.473  11.051   8.167 -0.0568  0.3861 -0.0581
  458loPI    C1 7313  13.187  17.846  11.091 -0.1910  0.1066 -0.0923
  458loPI    C2 7314  13.314  17.509  11.266 -0.0439  0.2525  0.0861
  458loPI    C3 7315  12.937  17.537  11.135  0.0160 -0.0751 -0.1690
  458loPI   PO4 7316  13.329  17.908  10.794  0.1178  0.1456  0.4080
  458loPI   GL1 7317  13.211  17.973  10.426  0.0858  0.0715  0.3750
  458loPI   GL2 7318  13.183  18.305  10.496 -0.0290  0.2060 -0.2018
  458loPI   C1A 7319  13.182  18.050   9.954  0.0826  0.5020 -0.1729
  458loPI   C2A 7320  13.125  18.043   9.508 -0.1610  0.0128  0.1121
  458loPI   C3A 7321  13.086  18.121   9.073  0.0254 -0.4183  0.3218
  458loPI   C4A 7322  13.156  18.045   8.655  0.1692  0.0773 -0.1484
  458loPI   C5A 7323  13.416  17.813   8.250  0.0361 -0.5811  0.2153
  458loPI   C6A 7324  13.687  17.610   8.058  0.2285  0.0771 -0.4979
  458loPI   C1B 7325  12.903  18.414  10.111  0.0955  0.3311 -0.1924
  458loPI   C2B 7326  12.852  18.449   9.645  0.1111 -0.1369  0.1034
  458loPI   C3B 7327  12.777  18.537   9.196  0.0437 -0.0518  0.1034
  458loPI   C4B 7328  12.801  18.391   8.767  0.1605  0.1730 -0.0208
  459loPI    C1 7329   2.461  17.964  10.671 -0.0629  0.2457  0.2226
  459loPI    C2 7330   2.366  17.628  10.867  0.0228  0.1225  0.0554
  459loPI    C3 7331   2.255  17.984  11.013 -0.0394  0.0238  0.2508
  459loPI   PO4 7332   2.481  17.873  10.419 -0.0745  0.0807  0.3824
  459loPI   GL1 7333   2.568  17.615  10.045  0.1549  0.2104 -0.1542
  459loPI   GL2 7334   2.313  17.512   9.977  0.0042  0.2544  0.1805
  459loPI   C1A 7335   2.926  17.508   9.869  0.0551  0.0357 -0.1761
  459loPI   C2A 7336   3.153  17.642   9.578  0.1523 -0.0019 -0.1894
  459loPI   C3A 7337   3.264  17.684   9.079  0.3197 -0.2239 -0.0409
  459loPI   C4A 7338   3.089  17.657   8.694 -0.3967 -0.0440 -0.0524
  459loPI   C5A 7339   3.257  17.737   8.246 -0.3856  0.1606 -0.4728
  459loPI   C6A 7340   3.425  17.492   7.945  0.0051 -0.0056 -0.1466
  459loPI   C1B 7341   2.334  17.662   9.562 -0.2330  0.0468 -0.0927
  459loPI   C2B 7342   2.320  17.926   9.189  0.0378  0.0335  0.0976
  459loPI   C3B 7343   2.151  18.075   8.722 -0.3002  0.0556  0.1045
  459loPI   C4B 7344   2.234  18.225   8.287  0.3063 -0.0850  0.0506
  460loPI    C1 7345   6.257  18.049  11.507 -0.1390  0.1411  0.0887
  460loPI    C2 7346   6.074  18.140  11.850  0.0798  0.0551  0.2301
  460loPI    C3 7347   6.472  18.094  11.841  0.0879  0.1640 -0.0577
  460loPI   PO4 7348   6.222  18.185  11.344 -0.1285 -0.2008 -0.1932
  460loPI   GL1 7349   6.426  18.242  10.973  0.0240 -0.0609  0.0567
  460loPI   GL2 7350   6.228  18.432  10.779  0.1539  0.1410 -0.1457
  460loPI   C1A 7351   6.729  18.169  10.594  0.1529 -0.1393  0.0500
  460loPI   C2A 7352   6.651  18.128  10.227  0.1241  0.0525  0.1347
  460loPI   C3A 7353   6.825  18.121   9.774  0.0420 -0.1707  0.0722
  460loPI   C4A 7354   6.856  18.192   9.380  0.5164 -0.0938  0.1864
  460loPI   C5A 7355   6.741  18.143   8.942 -0.2278 -0.1456 -0.4394
  460loPI   C6A 7356   6.611  18.047   8.486 -0.1699  0.0738  0.3245
  460loPI   C1B 7357   6.372  18.521  10.410 -0.2788  0.0870  0.1818
  460loPI   C2B 7358   6.349  18.495   9.932  0.0701  0.3193 -0.1886
  460loPI   C3B 7359   6.506  18.603   9.516  0.3395  0.1548  0.1116
  460loPI   C4B 7360   6.533  18.613   9.107  0.2084 -0.0004 -0.1325
  461loPI    C1 7361  10.863  11.934  10.813 -0.1083 -0.0190  0.0262
  461loPI    C2 7362  10.626  11.662  10.986 -0.0981 -0.1639 -0.1824
  461loPI    C3 7363  11.024  11.629  11.016 -0.0995  0.0277  0.0896
  461loPI   PO4 7364  10.709  12.025  10.650  0.4980 -0.1865  0.0605
  461loPI   GL1 7365  10.472  12.009  10.264  0.2866 -0.0979 -0.1000
  461loPI   GL2 7366  10.488  11.724  10.200  0.1622  0.0147 -0.1593
  461loPI   C1A 7367  10.399  12.151   9.847  0.0414 -0.1367  0.4677
  461loPI   C2A 7368  10.416  12.204   9.418  0.1573 -0.0043 -0.0118
  461loPI   C3A 7369  10.333  12.209   9.047 -0.1141  0.0232 -0.0366
  461loPI   C4A 7370  10.259  12.188   8.657  0.2029  0.0365 -0.0556
  461loPI   C5A 7371   9.899  12.364   8.349  0.2117  0.0537 -0.3079
  461loPI   C6A 7372   9.940  12.854   8.222  0.1485 -0.2140  0.0261
  461loPI   C1B 7373  10.659  11.678   9.829  0.0160 -0.0183 -0.2762
  461loPI   C2B 7374  10.558  11.407   9.419 -0.1931  0.1459  0.0957
  461loPI   C3B 7375  10.368  11.114   9.115 -0.1610  0.2565  0.1350
  461loPI   C4B 7376  10.020  10.926   8.927  0.3643  0.1152 -0.0593
  462loPI    C1 7377  10.275  16.443  11.126 -0.0331  0.1455 -0.1014
  462loPI    C2 7378  10.269  16.119  11.360  0.0091  0.2492  0.0446
  462loPI    C3 7379  10.617  16.298  11.275 -0.0121  0.2454 -0.0511
  462loPI   PO4 7380  10.071  16.373  10.853  0.0489 -0.0494 -0.2855
  462loPI   GL1 7381   9.988  16.402  10.403  0.3467 -0.3894 -0.0898
  462loPI   GL2 7382  10.169  16.703  10.398 -0.0925 -0.1246 -0.3157
  462loPI   C1A 7383   9.897  16.297  10.020  0.0076 -0.3025  0.0963
  462loPI   C2A 7384   9.887  16.320   9.561  0.0045  0.6339 -0.0988
  462loPI   C3A 7385  10.022  16.223   9.212  0.1022 -0.0023  0.0895
  462loPI   C4A 7386  10.021  16.302   8.759 -0.0428 -0.1769 -0.1992
  462loPI   C5A 7387  10.214  16.211   8.447  0.2108  0.2984  0.3690
  462loPI   C6A 7388  10.396  15.937   8.123  0.0521  0.1165  0.1796
  462loPI   C1B 7389  10.112  16.739   9.928 -0.3239  0.1107  0.0155
  462loPI   C2B 7390  10.121  16.711   9.485  0.2068  0.0512  0.1640
  462loPI   C3B 7391  10.272  16.610   9.055  0.1510 -0.0364 -0.4495
  462loPI   C4B 7392  10.253  16.720   8.592 -0.0535  0.4249 -0.1738
  463loPI    C1 7393   1.368  13.151  10.466 -0.1690 -0.0707 -0.0359
  463loPI    C2 7394   1.419  12.846  10.719  0.1216  0.0139  0.0116
  463loPI    C3 7395   1.271  13.193  10.852 -0.0902 -0.0639 -0.0166
  463loPI   PO4 7396   1.407  13.177  10.301  0.1864 -0.2021 -0.1852
  463loPI   GL1 7397   1.757  13.285  10.031 -0.1794 -0.3363 -0.0618
  463loPI   GL2 7398   1.708  12.951   9.924 -0.2868 -0.1753 -0.2803
  463loPI   C1A 7399   1.801  13.377   9.592 -0.0348 -0.2502 -0.4267
  463loPI   C2A 7400   1.916  13.439   9.070  0.1616  0.0069 -0.2150
  463loPI   C3A 7401   2.071  13.428   8.660 -0.1163  0.0292  0.0135
  463loPI   C4A 7402   2.223  13.457   8.270  0.0702  0.0721 -0.0077
  463loPI   C5A 7403   2.324  13.663   7.844 -0.2071 -0.1127  0.0918
  463loPI   C6A 7404   2.625  13.655   7.571  0.2794 -0.4015  0.1125
  463loPI   C1B 7405   1.666  12.902   9.510  0.2658 -0.0791 -0.4531
  463loPI   C2B 7406   1.682  12.976   9.133 -0.0824 -0.0920  0.1762
  463loPI   C3B 7407   1.687  12.918   8.636 -0.0164  0.0142 -0.1431
  463loPI   C4B 7408   1.496  12.992   8.276 -0.0428 -0.1133  0.0643
  464loPI    C1 7409  16.808   9.435  10.720 -0.1845  0.0550  0.1395
  464loPI    C2 7410  17.045   9.679  10.931 -0.1206  0.0722  0.0487
  464loPI    C3 7411  17.050   9.285  11.002  0.2177  0.0245 -0.2106
  464loPI   PO4 7412  16.809   9.607  10.500 -0.2129 -0.0309 -0.0396
  464loPI   GL1 7413  16.714   9.705  10.245  0.2132  0.0764  0.3662
  464loPI   GL2 7414  16.341   9.678  10.146 -0.1528  0.0957 -0.0763
  464loPI   C1A 7415  16.866   9.743   9.769  0.0319  0.2674 -0.1175
  464loPI   C2A 7416  16.750   9.747   9.409  0.0355  0.4297  0.3449
  464loPI   C3A 7417  16.617   9.866   9.069  0.5896 -0.3122  0.2552
  464loPI   C4A 7418  16.595   9.970   8.630 -0.2785  0.2428 -0.0477
  464loPI   C5A 7419  16.518  10.076   8.140  0.0345  0.1773  0.1381
  464loPI   C6A 7420  16.125   9.912   7.987  0.0059  0.1694 -0.1621
  464loPI   C1B 7421  16.233   9.737   9.747  0.2166  0.1704 -0.1123
  464loPI   C2B 7422  16.119   9.712   9.344  0.2594  0.2528 -0.4444
  464loPI   C3B 7423  16.111   9.931   8.938 -0.0373  0.0238  0.0902
  464loPI   C4B 7424  16.009   9.994   8.466 -0.1955  0.0906 -0.0642
  465loPI    C1 7425  11.567  14.733  10.871 -0.0245  0.0522 -0.1373
  465loPI    C2 7426  11.755  14.586  11.191 -0.1121  0.3101  0.0357
  465loPI    C3 7427  11.439  14.394  11.040 -0.0681  0.1852  0.1006
  465loPI   PO4 7428  11.792  14.878  10.744  0.0078 -0.0256 -0.2021
  465loPI   GL1 7429  11.971  14.900  10.391  0.2891 -0.3142 -0.0172
  465loPI   GL2 7430  12.260  14.839  10.395  0.1046 -0.1293  0.0683
  465loPI   C1A 7431  11.694  14.793   9.946  0.2145 -0.3502 -0.1884
  465loPI   C2A 7432  11.651  14.645   9.553 -0.0484  0.0559  0.1752
  465loPI   C3A 7433  11.805  14.663   9.176 -0.2054  0.0711 -0.1128
  465loPI   C4A 7434  11.776  14.755   8.762 -0.0995 -0.2557  0.0633
  465loPI   C5A 7435  11.862  14.918   8.446  0.1260  0.2139 -0.0810
  465loPI   C6A 7436  11.774  15.370   8.269 -0.1293  0.1289 -0.1964
  465loPI   C1B 7437  12.165  14.736   9.896 -0.0314  0.0216 -0.2684
  465loPI   C2B 7438  12.249  14.793   9.427  0.1553 -0.4673 -0.0120
  465loPI   C3B 7439  12.363  14.836   9.034 -0.1107  0.6150  0.3846
  465loPI   C4B 7440  12.373  14.874   8.678 -0.4496  0.1971  0.1004
  466loPI    C1 7441  11.960  11.416  10.602  0.0787 -0.0968 -0.1348
  466loPI    C2 7442  12.047  11.084  10.807 -0.0519 -0.1292 -0.1312
  466loPI    C3 7443  12.340  11.330  10.693  0.0205 -0.1010  0.1102
  466loPI   PO4 7444  11.802  11.322  10.340  0.1238 -0.0080  0.3456
  466loPI   GL1 7445  11.936  11.135   9.926 -0.0138  0.0348  0.0682
  466loPI   GL2 7446  11.976  11.430   9.814 -0.3288  0.3608  0.0792
  466loPI   C1A 7447  12.263  11.131   9.580  0.0146  0.0905 -0.0372
  466loPI   C2A 7448  12.198  11.231   9.132  0.0523 -0.3014 -0.1040
  466loPI   C3A 7449  12.296  11.191   8.732 -0.2829 -0.0957 -0.2598
  466loPI   C4A 7450  11.986  10.992   8.394  0.3380  0.1159  0.3160
  466loPI   C5A 7451  11.616  10.948   8.051 -0.0540  0.0707  0.2022
  466loPI   C6A 7452  11.314  11.015   7.852  0.2332 -0.0592  0.2673
  466loPI   C1B 7453  12.042  11.629   9.439  0.3267 -0.1059  0.0482
  466loPI   C2B 7454  11.976  11.644   8.985 -0.1454  0.0142  0.3934
  466loPI   C3B 7455  11.768  11.892   8.731 -0.0332 -0.0108  0.1438
  466loPI   C4B 7456  11.564  11.883   8.361 -0.0865 -0.1416 -0.7124
  467loPI    C1 7457   4.634   7.618  10.814 -0.2768 -0.1396  0.0536
  467loPI    C2 7458   4.698   7.393  11.138 -0.4623 -0.2297  0.0289
  467loPI    C3 7459   4.671   7.790  11.173  0.0174 -0.1939  0.0513
  467loPI   PO4 7460   4.862   7.467  10.573  0.3135  0.1221  0.3478
  467loPI   GL1 7461   5.194   7.341  10.128 -0.0848 -0.1422  0.3499
  467loPI   GL2 7462   4.955   7.136  10.203  0.1154 -0.1600  0.1479
  467loPI   C1A 7463   5.358   7.025   9.822 -0.0047 -0.0047 -0.0228
  467loPI   C2A 7464   5.388   7.011   9.421 -0.2565  0.2406  0.1176
  467loPI   C3A 7465   5.407   6.983   9.042  0.1267 -0.2064  0.1084
  467loPI   C4A 7466   5.447   6.901   8.599  0.2507  0.3662 -0.2133
  467loPI   C5A 7467   5.481   7.125   8.302  0.2264  0.1468 -0.0348
  467loPI   C6A 7468   5.788   7.186   7.984 -0.0865  0.1068  0.0593
  467loPI   C1B 7469   4.847   7.156   9.732 -0.1077  0.1607 -0.1670
  467loPI   C2B 7470   4.903   7.007   9.380  0.1377  0.1260 -0.0328
  467loPI   C3B 7471   4.911   7.062   8.870 -0.1442 -0.3897  0.0274
  467loPI   C4B 7472   5.106   7.300   8.552  0.0564  0.1273 -0.2286
  468loPI    C1 7473   4.019   7.191  10.295 -0.2848 -0.2892  0.0159
  468loPI    C2 7474   3.999   7.387  10.643  0.1493 -0.1980 -0.0056
  468loPI    C3 7475   4.025   6.988  10.639  0.2495 -0.1927  0.0719
  468loPI   PO4 7476   4.207   7.255  10.133 -0.0401 -0.0944  0.1312
  468loPI   GL1 7477   4.458   6.921   9.913  0.1226 -0.0991  0.2836
  468loPI   GL2 7478   4.245   6.555   9.829  0.2155 -0.2558 -0.1077
  468loPI   C1A 7479   4.468   6.874   9.477  0.0354  0.0183 -0.1385
  468loPI   C2A 7480   4.504   6.746   9.033 -0.1011  0.2818  0.2749
  468loPI   C3A 7481   4.620   6.363   8.748  0.1435  0.0047 -0.1036
  468loPI   C4A 7482   4.663   6.384   8.251  0.2067  0.0684  0.0679
  468loPI   C5A 7483   4.360   6.208   8.173  0.1662 -0.0816 -0.1070
  468loPI   C6A 7484   4.188   5.833   8.229 -0.0222  0.0641  0.2951
  468loPI   C1B 7485   4.150   6.506   9.397  0.0563  0.2645 -0.0451
  468loPI   C2B 7486   3.765   6.391   9.144  0.0461  0.2320 -0.2991
  468loPI   C3B 7487   3.709   6.150   8.897 -0.0552  0.4064  0.4540
  468loPI   C4B 7488   3.822   5.876   8.585 -0.0856 -0.0629  0.3216
  469loPI    C1 7489  15.338   3.738  11.243  0.1403  0.0610 -0.0787
  469loPI    C2 7490  15.692   3.916  11.184  0.2551 -0.0989  0.1123
  469loPI    C3 7491  15.641   3.671  11.496 -0.1065  0.1341  0.2427
  469loPI   PO4 7492  15.257   3.758  10.957  0.1903  0.0466  0.2628
  469loPI   GL1 7493  15.219   3.746  10.506  0.1800 -0.0084  0.0201
  469loPI   GL2 7494  15.160   3.392  10.529  0.1159  0.0847 -0.1330
  469loPI   C1A 7495  15.241   3.716  10.104 -0.1839  0.1991  0.0538
  469loPI   C2A 7496  15.147   3.586   9.615 -0.1180  0.0417  0.0327
  469loPI   C3A 7497  15.225   3.668   9.195 -0.2494  0.1064 -0.1635
  469loPI   C4A 7498  15.122   3.694   8.722  0.3638 -0.0028 -0.0089
  469loPI   C5A 7499  14.916   3.458   8.427  0.2394 -0.0066  0.0219
  469loPI   C6A 7500  15.050   3.016   8.345  0.0910  0.2073  0.1386
  469loPI   C1B 7501  15.047   3.104  10.257  0.0836 -0.0447  0.0752
  469loPI   C2B 7502  15.015   3.192   9.860 -0.1871  0.0810 -0.1761
  469loPI   C3B 7503  15.055   3.185   9.315 -0.2573  0.2378 -0.2377
  469loPI   C4B 7504  15.022   3.245   8.863 -0.1645 -0.0627  0.3559
  470loPI    C1 7505  15.283  10.540  10.928 -0.3994  0.3532 -0.1242
  470loPI    C2 7506  15.406  10.914  10.996 -0.0113  0.2388 -0.1720
  470loPI    C3 7507  15.197  10.719  11.275  0.1510  0.3444  0.0267
  470loPI   PO4 7508  15.254  10.564  10.697  0.0891 -0.0333 -0.3949
  470loPI   GL1 7509  15.309  10.497  10.273  0.0753  0.1229  0.0670
  470loPI   GL2 7510  15.319  10.073  10.171 -0.0290  0.4067  0.1070
  470loPI   C1A 7511  15.261  10.651   9.919  0.1985  0.1571  0.1454
  470loPI   C2A 7512  15.194  10.943   9.516  0.3032  0.2118 -0.2408
  470loPI   C3A 7513  15.134  11.018   9.188 -0.1428 -0.1113 -0.0575
  470loPI   C4A 7514  15.185  11.091   8.732  0.0709  0.2483  0.1156
  470loPI   C5A 7515  15.102  11.222   8.240 -0.0615 -0.0329  0.1252
  470loPI   C6A 7516  15.190  11.386   7.803 -0.0138 -0.2096 -0.1080
  470loPI   C1B 7517  15.314  10.080   9.761 -0.1566 -0.2952 -0.3493
  470loPI   C2B 7518  15.284  10.128   9.285 -0.0076  0.0034 -0.2738
  470loPI   C3B 7519  15.262  10.152   8.830 -0.1361  0.0627  0.0960
  470loPI   C4B 7520  15.409   9.923   8.496 -0.0515 -0.0578  0.0114
  471loPI    C1 7521   3.606   8.404  10.377  0.2562  0.1662 -0.0777
  471loPI    C2 7522   3.367   8.711  10.469  0.1800  0.0856 -0.0043
  471loPI    C3 7523   3.660   8.604  10.719  0.0204 -0.0863  0.1115
  471loPI   PO4 7524   3.729   8.382  10.084  0.0431 -0.0013 -0.0506
  471loPI   GL1 7525   3.862   8.548   9.821  0.0321 -0.0176 -0.0351
  471loPI   GL2 7526   3.593   8.450   9.612  0.3657  0.1717 -0.0963
  471loPI   C1A 7527   4.260   8.478   9.612  0.2786  0.1582  0.2461
  471loPI   C2A 7528   4.427   8.601   9.129 -0.0820 -0.0924  0.1280
  471loPI   C3A 7529   4.478   8.668   8.664 -0.0883  0.0379 -0.2159
  471loPI   C4A 7530   4.158   8.592   8.248 -0.0254  0.2171 -0.1072
  471loPI   C5A 7531   3.794   8.700   8.009  0.2804  0.0597 -0.1221
  471loPI   C6A 7532   3.409   8.875   8.039  0.2090  0.2322 -0.4415
  471loPI   C1B 7533   3.901   8.433   9.224 -0.1691 -0.1888  0.0413
  471loPI   C2B 7534   4.073   8.364   8.790  0.0757 -0.4211 -0.0831
  471loPI   C3B 7535   3.890   8.216   8.422 -0.2489 -0.0811  0.3351
  471loPI   C4B 7536   3.816   8.169   8.022 -0.0354 -0.1647  0.3067
  472loPI    C1 7537   8.782   7.193  10.636  0.0252 -0.1970 -0.1079
  472loPI    C2 7538   8.696   6.804  10.670  0.0809 -0.1841  0.2050
  472loPI    C3 7539   8.838   7.006  10.985  0.0044  0.1021  0.0590
  472loPI   PO4 7540   8.538   7.209  10.417  0.2966 -0.3937  0.2895
  472loPI   GL1 7541   8.612   6.992  10.103  0.1154  0.1032 -0.1074
  472loPI   GL2 7542   8.633   6.782  10.209  0.0481  0.1598  0.3335
  472loPI   C1A 7543   8.564   7.045   9.658  0.1541  0.2056  0.0735
  472loPI   C2A 7544   8.659   6.961   9.210  0.2009  0.1319 -0.1311
  472loPI   C3A 7545   8.706   6.953   8.730  0.2005  0.0892 -0.0118
  472loPI   C4A 7546   8.666   6.887   8.251  0.1089  0.5006 -0.1557
  472loPI   C5A 7547   8.660   6.905   7.821  0.3983 -0.0809  0.0273
  472loPI   C6A 7548   8.894   6.688   7.502  0.0686 -0.4477  0.2346
  472loPI   C1B 7549   8.864   6.617   9.825 -0.1480  0.1179 -0.1752
  472loPI   C2B 7550   8.965   6.692   9.420  0.0859  0.2811 -0.0009
  472loPI   C3B 7551   8.976   6.581   8.999 -0.1830  0.0429 -0.2342
  472loPI   C4B 7552   8.985   6.528   8.486  0.0674 -0.1542  0.1343
  473loPI    C1 7553   2.934   5.047  10.692  0.0589 -0.0265  0.0023
  473loPI    C2 7554   3.048   5.290  10.988 -0.1618  0.1486 -0.0537
  473loPI    C3 7555   2.737   5.043  11.040 -0.0797  0.0399 -0.0746
  473loPI   PO4 7556   2.921   5.095  10.535  0.2375 -0.1243  0.1366
  473loPI   GL1 7557   3.040   5.153  10.148 -0.1495 -0.0930  0.0153
  473loPI   GL2 7558   2.855   5.405   9.899 -0.0025 -0.1155 -0.2069
  473loPI   C1A 7559   3.076   4.960   9.683  0.2350 -0.0454  0.3524
  473loPI   C2A 7560   2.980   4.907   9.214  0.1170  0.1135 -0.3150
  473loPI   C3A 7561   2.881   4.979   8.776  0.1177 -0.0506  0.0327
  473loPI   C4A 7562   2.623   4.920   8.295 -0.2691 -0.2841  0.2799
  473loPI   C5A 7563   2.392   4.724   8.002 -0.2477  0.1476  0.1479
  473loPI   C6A 7564   1.989   4.731   7.976  0.0041  0.1631  0.1705
  473loPI   C1B 7565   2.595   5.398   9.513  0.2409 -0.0718 -0.0602
  473loPI   C2B 7566   2.622   5.362   9.046  0.1129 -0.0573  0.2058
  473loPI   C3B 7567   2.572   5.308   8.611  0.0415 -0.2002 -0.0911
  473loPI   C4B 7568   2.562   5.361   8.133 -0.0767 -0.2967  0.3156
  474loPI    C1 7569   9.786  12.162  10.986 -0.1817 -0.1513 -0.2862
  474loPI    C2 7570   9.859  11.772  11.037  0.3790 -0.0385 -0.1532
  474loPI    C3 7571  10.039  12.041  11.271 -0.3896  0.2871  0.0969
  474loPI   PO4 7572   9.866  12.198  10.685  0.0814 -0.1093  0.1184
  474loPI   GL1 7573   9.700  12.490  10.357  0.1408  0.0642 -0.0025
  474loPI   GL2 7574   9.961  12.671  10.432  0.3818 -0.0232 -0.0454
  474loPI   C1A 7575   9.781  12.527   9.932 -0.2332 -0.0567  0.0677
  474loPI   C2A 7576   9.879  12.583   9.497 -0.1187 -0.1119 -0.0667
  474loPI   C3A 7577   9.952  12.511   9.062  0.1391  0.0121  0.0640
  474loPI   C4A 7578   9.989  12.655   8.752  0.0744 -0.0818  0.0367
  474loPI   C5A 7579  10.339  12.593   8.397  0.5119  0.0708 -0.0720
  474loPI   C6A 7580  10.649  12.821   8.209 -0.1184  0.0330  0.1846
  474loPI   C1B 7581  10.235  12.652  10.071 -0.0760 -0.0697 -0.2370
  474loPI   C2B 7582  10.409  12.645   9.716  0.3185  0.0033  0.1245
  474loPI   C3B 7583  10.436  12.650   9.319  0.3727 -0.0252  0.0007
  474loPI   C4B 7584  10.498  12.652   8.847  0.0927  0.2754 -0.2155
  475loPI    C1 7585  15.715  16.092  10.893 -0.2105 -0.0576 -0.0717
  475loPI    C2 7586  15.922  15.947  10.583  0.0171 -0.3636  0.2155
  475loPI    C3 7587  16.096  15.980  10.942 -0.1587  0.2424  0.2565
  475loPI   PO4 7588  15.574  16.295  10.847  0.1541 -0.2035 -0.1022
  475loPI   GL1 7589  15.634  16.402  10.435  0.0166  0.0493  0.1347
  475loPI   GL2 7590  15.692  16.788  10.430  0.0505 -0.1041  0.2347
  475loPI   C1A 7591  15.352  16.392  10.043  0.1094 -0.0336 -0.1740
  475loPI   C2A 7592  15.399  16.430   9.670 -0.1583 -0.0872  0.1735
  475loPI   C3A 7593  15.316  16.426   9.248 -0.1319 -0.1978  0.1515
  475loPI   C4A 7594  15.331  16.423   8.795  0.1937  0.2627 -0.1384
  475loPI   C5A 7595  15.293  16.354   8.330 -0.0059 -0.3499  0.1182
  475loPI   C6A 7596  15.322  16.225   7.907 -0.2470 -0.1126  0.3326
  475loPI   C1B 7597  15.722  16.779  10.001 -0.1421 -0.1498  0.1796
  475loPI   C2B 7598  15.706  16.838   9.482 -0.3674 -0.0168 -0.0798
  475loPI   C3B 7599  15.697  16.805   9.062  0.2867 -0.1382 -0.0832
  475loPI   C4B 7600  15.616  16.993   8.630  0.0965  0.0120 -0.0832
  476loPI    C1 7601   4.194   5.817  10.576 -0.2244 -0.1838  0.2659
  476loPI    C2 7602   4.325   6.058  10.867  0.2136  0.0154 -0.0839
  476loPI    C3 7603   4.498   5.703  10.809  0.1887  0.0153 -0.1586
  476loPI   PO4 7604   4.172   5.987  10.278 -0.2373  0.0226  0.1145
  476loPI   GL1 7605   4.191   5.920   9.867  0.6068 -0.1653  0.0905
  476loPI   GL2 7606   4.249   5.563   9.816 -0.3617 -0.0595  0.0247
  476loPI   C1A 7607   4.414   6.011   9.478 -0.0021 -0.1964 -0.1283
  476loPI   C2A 7608   4.444   6.189   9.146 -0.0247 -0.0244  0.2597
  476loPI   C3A 7609   4.321   5.996   8.710  0.0033  0.0261 -0.0371
  476loPI   C4A 7610   4.118   6.345   8.560  0.2234  0.0744 -0.2714
  476loPI   C5A 7611   4.389   6.697   8.503  0.2580 -0.1283  0.3814
  476loPI   C6A 7612   4.613   7.104   8.530 -0.4818  0.0973 -0.0770
  476loPI   C1B 7613   4.365   5.490   9.467  0.0799  0.1641 -0.2261
  476loPI   C2B 7614   4.598   5.660   8.986 -0.0853  0.0963 -0.1491
  476loPI   C3B 7615   4.624   5.458   8.596 -0.0125  0.2218  0.4467
  476loPI   C4B 7616   4.798   5.645   8.211 -0.0407  0.0917 -0.1899
  477loPI    C1 7617   2.443  11.297  10.235  0.1307  0.2046 -0.1201
  477loPI    C2 7618   2.432  11.611  10.483 -0.0821 -0.0354  0.1835
  477loPI    C3 7619   2.291  11.257  10.603  0.1986 -0.2627 -0.1370
  477loPI   PO4 7620   2.565  11.408  10.055 -0.1171  0.1892  0.1153
  477loPI   GL1 7621   2.492  11.698   9.684 -0.0643  0.2008  0.2125
  477loPI   GL2 7622   2.151  11.637   9.829 -0.1317 -0.1689 -0.0838
  477loPI   C1A 7623   2.421  11.603   9.244 -0.2639  0.2707  0.2582
  477loPI   C2A 7624   2.620  11.547   8.900  0.1280 -0.0798  0.1908
  477loPI   C3A 7625   2.770  11.504   8.537 -0.1101  0.0912 -0.1400
  477loPI   C4A 7626   2.773  11.515   8.061  0.2361 -0.0319  0.1810
  477loPI   C5A 7627   3.017  11.775   7.747 -0.1283 -0.0517  0.0959
  477loPI   C6A 7628   2.981  12.072   7.509 -0.2218 -0.2718 -0.0761
  477loPI   C1B 7629   1.934  11.622   9.539  0.1238  0.4652 -0.1326
  477loPI   C2B 7630   1.939  11.357   9.146  0.2790 -0.1324 -0.0771
  477loPI   C3B 7631   1.961  11.211   8.760 -0.1012 -0.2634 -0.1586
  477loPI   C4B 7632   1.946  11.150   8.312  0.2156 -0.0755  0.2740
  478loPI    C1 7633   9.061  13.432  11.028 -0.0199 -0.1894  0.0470
  478loPI    C2 7634   9.144  13.755  11.248  0.1684 -0.2120  0.0109
  478loPI    C3 7635   8.888  13.480  11.385  0.0291 -0.0625  0.0541
  478loPI   PO4 7636   9.090  13.598  10.760  0.0550 -0.0278  0.1290
  478loPI   GL1 7637   9.466  13.706  10.421  0.0650 -0.1291 -0.1879
  478loPI   GL2 7638   9.682  13.397  10.438 -0.0390  0.0475 -0.0374
  478loPI   C1A 7639   9.366  13.977  10.068 -0.2630 -0.2457  0.0934
  478loPI   C2A 7640   9.393  13.973   9.643 -0.1149 -0.1050  0.0106
  478loPI   C3A 7641   9.477  13.874   9.210 -0.0667 -0.0055 -0.0065
  478loPI   C4A 7642   9.449  13.940   8.846  0.1913  0.0617  0.0057
  478loPI   C5A 7643   9.471  13.795   8.363 -0.2070  0.0234 -0.3011
  478loPI   C6A 7644   9.674  13.624   8.132 -0.0122 -0.2411  0.0866
  478loPI   C1B 7645   9.630  13.442  10.014  0.0693 -0.3300 -0.0312
  478loPI   C2B 7646   9.719  13.326   9.587 -0.1696  0.2214 -0.1480
  478loPI   C3B 7647   9.820  13.444   9.210  0.1974 -0.1140  0.2278
  478loPI   C4B 7648   9.712  13.527   8.695 -0.2459 -0.0651  0.1473
  479loPI    C1 7649  11.204   5.989  10.917 -0.0926  0.0190  0.1926
  479loPI    C2 7650  10.862   5.893  11.101 -0.0181 -0.0838  0.2789
  479loPI    C3 7651  11.168   6.042  11.312 -0.0591  0.1469  0.1789
  479loPI   PO4 7652  11.293   5.815  10.819  0.0985  0.1030 -0.2630
  479loPI   GL1 7653  11.424   5.488  10.573  0.3110  0.0856 -0.1560
  479loPI   GL2 7654  11.267   5.204  10.633  0.0767 -0.0374 -0.2903
  479loPI   C1A 7655  11.543   5.483  10.243 -0.1877 -0.0786  0.4462
  479loPI   C2A 7656  11.515   5.475   9.863  0.2295 -0.0827 -0.1808
  479loPI   C3A 7657  11.474   5.517   9.443 -0.0642 -0.3884 -0.1017
  479loPI   C4A 7658  11.581   5.420   9.018  0.2081  0.1486 -0.0315
  479loPI   C5A 7659  11.603   5.410   8.605 -0.1283 -0.0261 -0.0610
  479loPI   C6A 7660  11.951   5.490   8.286 -0.0233 -0.0766 -0.2176
  479loPI   C1B 7661  11.309   5.060  10.228  0.2543  0.0671 -0.2279
  479loPI   C2B 7662  11.353   5.028   9.749 -0.1140 -0.3073 -0.0973
  479loPI   C3B 7663  11.326   5.060   9.291  0.1073  0.4421 -0.0404
  479loPI   C4B 7664  11.331   5.015   8.841 -0.0470  0.1664 -0.3079
  480loPI    C1 7665  10.593   7.278  11.177 -0.1166 -0.1474  0.2068
  480loPI    C2 7666  10.971   7.150  11.208  0.0564  0.2175 -0.2721
  480loPI    C3 7667  10.803   7.350  11.510  0.2122 -0.0236 -0.0214
  480loPI   PO4 7668  10.649   7.352  10.880  0.0297  0.0949 -0.0526
  480loPI   GL1 7669  10.580   7.573  10.471 -0.1856 -0.0433  0.0579
  480loPI   GL2 7670  10.342   7.689  10.257  0.0433 -0.0869  0.0847
  480loPI   C1A 7671  10.724   7.331  10.059 -0.1501  0.0282 -0.1603
  480loPI   C2A 7672  10.818   7.234   9.634  0.1584 -0.1417  0.1011
  480loPI   C3A 7673  10.724   7.237   9.225  0.3709 -0.1391  0.1820
  480loPI   C4A 7674  10.815   7.253   8.813  0.3061  0.0453 -0.0248
  480loPI   C5A 7675  10.935   7.440   8.427 -0.1573  0.1851 -0.0850
  480loPI   C6A 7676  11.029   7.542   8.067 -0.0729 -0.0642 -0.1754
  480loPI   C1B 7677  10.192   8.021   9.977 -0.1851 -0.2720  0.0430
  480loPI   C2B 7678   9.968   7.784   9.580 -0.1335 -0.2899  0.0367
  480loPI   C3B 7679   9.803   7.712   9.117 -0.0889 -0.0758 -0.2147
  480loPI   C4B 7680   9.716   7.934   8.784 -0.0999  0.1637 -0.1163
  481loPI    C1 7681  17.182  17.036  10.611 -0.1106 -0.0727  0.0006
  481loPI    C2 7682  17.157  17.385  10.416  0.1317 -0.1706 -0.2125
  481loPI    C3 7683  17.431  17.335  10.703 -0.0095 -0.1342 -0.0698
  481loPI   PO4 7684  16.954  16.887  10.493 -0.0895 -0.1141  0.0951
  481loPI   GL1 7685  17.130  16.786  10.142  0.1977  0.1642 -0.1306
  481loPI   GL2 7686  17.096  16.504  10.177 -0.0654  0.3771 -0.2588
  481loPI   C1A 7687  17.204  16.631   9.749 -0.0284  0.0697  0.2266
  481loPI   C2A 7688  16.890  16.402   9.535 -0.4034 -0.0344 -0.3741
  481loPI   C3A 7689  16.769  16.016   9.363 -0.0391  0.1173 -0.0493
  481loPI   C4A 7690  16.641  15.840   8.970  0.1730  0.3191  0.0973
  481loPI   C5A 7691  16.344  15.747   8.595  0.4583  0.1271  0.1347
  481loPI   C6A 7692  16.142  15.549   8.381  0.2062 -0.0639 -0.0397
  481loPI   C1B 7693  16.887  16.234  10.009  0.3333 -0.0957  0.2306
  481loPI   C2B 7694  16.595  16.002   9.808  0.1416  0.1565 -0.1311
  481loPI   C3B 7695  16.275  15.722   9.701 -0.1183  0.1271 -0.0569
  481loPI   C4B 7696  16.089  15.430   9.383  0.2133 -0.3405 -0.1616
  482loPI    C1 7697  14.242  13.782  11.137 -0.0592 -0.1174  0.0171
  482loPI    C2 7698  14.216  13.610  11.497  0.0916 -0.1330  0.0210
  482loPI    C3 7699  14.052  13.970  11.435  0.0056 -0.1607  0.0856
  482loPI   PO4 7700  14.220  13.484  10.917 -0.3281 -0.1243  0.0339
  482loPI   GL1 7701  14.277  13.430  10.459  0.0358 -0.0540  0.1061
  482loPI   GL2 7702  14.219  13.132  10.347  0.2374  0.0552 -0.1494
  482loPI   C1A 7703  14.433  13.513  10.033 -0.2129 -0.0429 -0.0913
  482loPI   C2A 7704  14.330  13.652   9.656  0.0016 -0.4358  0.2034
  482loPI   C3A 7705  14.333  13.745   9.234  0.3759 -0.1002  0.2557
  482loPI   C4A 7706  14.252  13.665   8.855 -0.2565 -0.1948 -0.0945
  482loPI   C5A 7707  14.321  13.565   8.329  0.1714 -0.3552  0.2444
  482loPI   C6A 7708  14.266  13.632   7.905 -0.1466  0.0258  0.0073
  482loPI   C1B 7709  14.146  13.104   9.868 -0.3405  0.0557  0.0110
  482loPI   C2B 7710  14.145  13.250   9.480 -0.3086 -0.0055 -0.2479
  482loPI   C3B 7711  14.009  13.133   9.056 -0.3487 -0.1759 -0.1429
  482loPI   C4B 7712  14.128  13.215   8.671  0.1244  0.1349  0.2954
  483loPI    C1 7713  13.701   5.140  11.154  0.0876 -0.1329 -0.1336
  483loPI    C2 7714  13.362   4.929  11.172 -0.0046  0.0240 -0.0107
  483loPI    C3 7715  13.676   4.821  11.394  0.0174 -0.1041 -0.1028
  483loPI   PO4 7716  13.682   5.308  10.893  0.2560 -0.0608 -0.2306
  483loPI   GL1 7717  13.732   5.324  10.388 -0.2718 -0.1572  0.0017
  483loPI   GL2 7718  13.567   5.246  10.289 -0.3165 -0.3367  0.2911
  483loPI   C1A 7719  14.042   5.318  10.105 -0.1416  0.1614 -0.0048
  483loPI   C2A 7720  14.005   5.277   9.728  0.2176  0.0207  0.0456
  483loPI   C3A 7721  13.913   5.340   9.253  0.1323  0.2188  0.0778
  483loPI   C4A 7722  13.816   5.316   8.860  0.0830  0.2006 -0.0790
  483loPI   C5A 7723  13.764   5.388   8.436 -0.2104 -0.1465 -0.0662
  483loPI   C6A 7724  13.668   5.300   7.958  0.2008  0.1469  0.1281
  483loPI   C1B 7725  13.522   5.130   9.899 -0.0049  0.0281  0.0843
  483loPI   C2B 7726  13.456   5.261   9.498 -0.1975 -0.0647 -0.1514
  483loPI   C3B 7727  13.308   5.240   9.152 -0.3054  0.3129  0.0356
  483loPI   C4B 7728  13.300   5.266   8.762  0.2331  0.0080 -0.1364
  484loPI    C1 7729   0.563  16.498  10.231  0.0681  0.2524  0.1003
  484loPI    C2 7730   0.963  16.507  10.253  0.0754 -0.0391  0.1276
  484loPI    C3 7731   0.746  16.428  10.580  0.0053 -0.1161  0.0629
  484loPI   PO4 7732   0.477  16.436   9.954  0.0174 -0.0461  0.0135
  484loPI   GL1 7733   0.612  16.450   9.578  0.1996 -0.1073  0.1527
  484loPI   GL2 7734   0.852  16.262   9.504 -0.0960  0.1022  0.0170
  484loPI   C1A 7735   0.659  16.762   9.243  0.1154  0.0946  0.0064
  484loPI   C2A 7736   0.676  17.108   8.987  0.1470 -0.0133  0.4004
  484loPI   C3A 7737   0.747  17.145   8.546  0.1625 -0.0535 -0.0484
  484loPI   C4A 7738   0.673  16.861   8.245 -0.0517 -0.1573  0.1974
  484loPI   C5A 7739   0.658  16.430   8.161 -0.0415  0.0120  0.1781
  484loPI   C6A 7740   0.550  15.980   8.063  0.0020 -0.1689  0.0354
  484loPI   C1B 7741   1.242  16.362   9.239  0.1001 -0.3047 -0.3435
  484loPI   C2B 7742   1.394  16.306   8.778  0.0746 -0.1229  0.2138
  484loPI   C3B 7743   1.482  16.310   8.360 -0.0487 -0.0495  0.0002
  484loPI   C4B 7744   1.899  16.171   8.064  0.3437  0.0375 -0.0317
  485loPI    C1 7745   6.053   0.652  11.177 -0.0848 -0.1454  0.0842
  485loPI    C2 7746   5.880   0.935  11.401  0.0203 -0.0141  0.0010
  485loPI    C3 7747   6.158   0.696  11.561  0.1944  0.1692 -0.0228
  485loPI   PO4 7748   6.133   0.722  10.986 -0.4522  0.2334 -0.0489
  485loPI   GL1 7749   6.107   0.661  10.554  0.2624 -0.0685  0.0568
  485loPI   GL2 7750   5.819   0.769  10.622 -0.0003 -0.0388 -0.1495
  485loPI   C1A 7751   6.079   0.690  10.187 -0.0552 -0.0178  0.0590
  485loPI   C2A 7752   6.070   0.624   9.751 -0.0550 -0.2960  0.0071
  485loPI   C3A 7753   6.106   0.747   9.352 -0.2307  0.5058 -0.2583
  485loPI   C4A 7754   6.202   0.678   8.849  0.0961  0.0242 -0.2248
  485loPI   C5A 7755   5.990   0.623   8.413  0.3081  0.2040 -0.1642
  485loPI   C6A 7756   5.566   0.489   8.384  0.1712 -0.1858 -0.0705
  485loPI   C1B 7757   5.568   0.647  10.312 -0.1886  0.0195 -0.0980
  485loPI   C2B 7758   5.601   0.650   9.927 -0.3362 -0.1345  0.0418
  485loPI   C3B 7759   5.581   0.569   9.489  0.0024 -0.0512  0.3336
  485loPI   C4B 7760   5.650   0.577   9.183  0.0698 -0.2737  0.3181
  486loPI    C1 7761   7.230   0.458  11.257  0.1410 -0.3349 -0.0974
  486loPI    C2 7762   7.592   0.518  11.417  0.0066  0.0172  0.0868
  486loPI    C3 7763   7.348   0.242  11.572 -0.0431  0.2138  0.3659
  486loPI   PO4 7764   7.328   0.375  10.962  0.2437  0.1675  0.0325
  486loPI   GL1 7765   7.517   0.632  10.649 -0.2857  0.1344  0.0151
  486loPI   GL2 7766   7.525   0.311  10.420 -0.2319  0.0299  0.1978
  486loPI   C1A 7767   7.626   0.734  10.152  0.1095  0.0735 -0.1110
  486loPI   C2A 7768   7.749   0.893   9.816 -0.2085  0.2419  0.1048
  486loPI   C3A 7769   7.760   0.913   9.324  0.0308  0.0565  0.1965
  486loPI   C4A 7770   7.816   0.975   8.882  0.1796  0.1873  0.0684
  486loPI   C5A 7771   7.813   1.111   8.465  0.2206  0.0879  0.2247
  486loPI   C6A 7772   7.759   1.218   8.009 -0.2095 -0.1761  0.1191
  486loPI   C1B 7773   7.384   0.326  10.046  0.5929  0.0522 -0.3773
  486loPI   C2B 7774   7.543   0.417   9.609 -0.1972  0.1836  0.1004
  486loPI   C3B 7775   7.491   0.474   9.142  0.1500  0.0702  0.0090
  486loPI   C4B 7776   7.096   0.550   8.874  0.0945 -0.1815 -0.2325
  487loPI    C1 7777   5.688  11.665  10.867  0.0886 -0.2978  0.0356
  487loPI    C2 7778   6.056  11.518  10.922  0.2303  0.1521  0.3468
  487loPI    C3 7779   5.838  11.635  11.236 -0.1184  0.0419  0.1521
  487loPI   PO4 7780   5.756  11.817  10.604  0.0598 -0.0711 -0.1108
  487loPI   GL1 7781   5.757  11.661  10.258 -0.2234  0.1771  0.1824
  487loPI   GL2 7782   5.758  11.366  10.134  0.1639  0.2591  0.0239
  487loPI   C1A 7783   5.502  11.846   9.998 -0.4260  0.0894 -0.0676
  487loPI   C2A 7784   5.302  11.876   9.652  0.1623 -0.1011 -0.0668
  487loPI   C3A 7785   5.321  11.965   9.254 -0.3280  0.0149  0.3198
  487loPI   C4A 7786   5.344  12.005   8.781  0.1728  0.1115  0.0812
  487loPI   C5A 7787   5.214  11.965   8.418 -0.0038 -0.1768 -0.1557
  487loPI   C6A 7788   5.258  11.782   8.037  0.1674  0.1728  0.2491
  487loPI   C1B 7789   5.890  11.571   9.770 -0.1634 -0.0822 -0.3741
  487loPI   C2B 7790   5.810  11.895   9.620 -0.0488  0.2955 -0.1092
  487loPI   C3B 7791   5.870  12.037   9.231  0.1778 -0.0292 -0.0400
  487loPI   C4B 7792   5.851  12.061   8.804 -0.0862 -0.0203 -0.2123
  488loPI    C1 7793   3.817  10.748  10.609 -0.1178  0.2326  0.0415
  488loPI    C2 7794   3.928  10.903  10.961  0.2516 -0.0220  0.0438
  488loPI    C3 7795   3.745  10.547  10.947  0.0493  0.0824 -0.0100
  488loPI   PO4 7796   3.911  10.905  10.377 -0.2283  0.1571  0.0048
  488loPI   GL1 7797   3.831  10.825  10.008 -0.0090  0.0032 -0.2857
  488loPI   GL2 7798   3.702  10.580   9.780 -0.0230  0.3320  0.1242
  488loPI   C1A 7799   4.109  10.924   9.722  0.0023 -0.1990  0.2422
  488loPI   C2A 7800   4.204  10.974   9.341  0.2127  0.0467 -0.0455
  488loPI   C3A 7801   4.231  10.958   8.977 -0.0644  0.1104  0.0777
  488loPI   C4A 7802   4.362  10.966   8.514  0.1236 -0.0840 -0.0930
  488loPI   C5A 7803   4.557  11.240   8.164 -0.3054 -0.1616  0.6552
  488loPI   C6A 7804   4.793  11.539   7.797 -0.2592 -0.1359 -0.1809
  488loPI   C1B 7805   3.817  10.641   9.433 -0.2398  0.2207 -0.2067
  488loPI   C2B 7806   3.812  10.544   9.045  0.2871 -0.2477 -0.1989
  488loPI   C3B 7807   3.683  10.370   8.602  0.1284 -0.0863  0.0506
  488loPI   C4B 7808   3.872  10.145   8.310 -0.2360 -0.2939  0.1455
  489loPI    C1 7809   7.980   5.893  10.776  0.1850 -0.0657 -0.0419
  489loPI    C2 7810   7.931   6.263  10.920 -0.1001 -0.1134 -0.0105
  489loPI    C3 7811   8.219   6.027  11.067  0.0495  0.0765  0.0052
  489loPI   PO4 7812   7.958   5.950  10.495  0.0420 -0.0609 -0.0175
  489loPI   GL1 7813   8.044   5.753  10.249  0.5621 -0.3261 -0.2063
  489loPI   GL2 7814   8.075   5.477  10.184 -0.2682  0.0869 -0.1594
  489loPI   C1A 7815   8.121   5.737   9.778 -0.0294  0.0884 -0.2356
  489loPI   C2A 7816   8.105   5.517   9.404  0.2498 -0.0735 -0.1146
  489loPI   C3A 7817   8.117   5.539   8.905 -0.0866  0.2639 -0.1310
  489loPI   C4A 7818   8.193   5.401   8.549  0.1664 -0.1376  0.1588
  489loPI   C5A 7819   8.488   5.191   8.258 -0.3350 -0.1333  0.1805
  489loPI   C6A 7820   8.629   4.812   8.422  0.3451  0.0358 -0.1662
  489loPI   C1B 7821   8.305   5.253   9.958 -0.1605 -0.0103  0.1404
  489loPI   C2B 7822   8.418   5.139   9.599  0.1350 -0.1737 -0.0010
  489loPI   C3B 7823   8.437   5.101   9.218 -0.1343 -0.0590  0.3267
  489loPI   C4B 7824   8.459   5.109   8.839  0.0812  0.2110  0.2237
  490loPI    C1 7825  10.107   7.035  10.988  0.1012  0.2539  0.0549
  490loPI    C2 7826   9.992   7.405  11.087 -0.0331  0.2129  0.0550
  490loPI    C3 7827   9.876   7.093  11.309  0.0916  0.1715  0.0632
  490loPI   PO4 7828  10.235   7.062  10.795 -0.0937  0.0843 -0.2488
  490loPI   GL1 7829  10.328   7.137  10.353  0.2081  0.0029 -0.1480
  490loPI   GL2 7830  10.669   7.077  10.461  0.0320  0.0479 -0.0734
  490loPI   C1A 7831  10.258   7.157   9.892 -0.0374  0.1579 -0.0838
  490loPI   C2A 7832  10.265   7.161   9.488 -0.0643 -0.0411 -0.0505
  490loPI   C3A 7833  10.293   7.138   8.959 -0.0529 -0.1488 -0.1407
  490loPI   C4A 7834  10.092   7.403   8.768  0.1453  0.1794 -0.0835
  490loPI   C5A 7835   9.957   7.633   8.411 -0.2332 -0.4970  0.2012
  490loPI   C6A 7836   9.914   7.444   8.041  0.4023 -0.1979  0.2889
  490loPI   C1B 7837  10.563   6.821  10.054 -0.1124  0.0571 -0.4275
  490loPI   C2B 7838  10.484   6.667   9.684 -0.0009 -0.5849  0.0772
  490loPI   C3B 7839  10.477   6.784   9.224 -0.0180  0.0556  0.3170
  490loPI   C4B 7840  10.608   6.760   8.744 -0.0550  0.3696 -0.1220
  491loPI    C1 7841   7.179   6.458  10.775 -0.2270  0.0701  0.0464
  491loPI    C2 7842   7.213   6.206  11.084  0.2631  0.1019  0.0256
  491loPI    C3 7843   7.183   6.600  11.149  0.1269  0.0897  0.0385
  491loPI   PO4 7844   7.399   6.532  10.634  0.2320  0.0564  0.2000
  491loPI   GL1 7845   7.435   6.467  10.222 -0.2370 -0.1601  0.0487
  491loPI   GL2 7846   7.622   6.196  10.153 -0.2479  0.0649  0.0738
  491loPI   C1A 7847   7.374   6.479   9.797  0.0414 -0.2128  0.0583
  491loPI   C2A 7848   7.444   6.350   9.445  0.0745  0.0696 -0.0304
  491loPI   C3A 7849   7.482   6.285   9.007  0.0238 -0.2084  0.1730
  491loPI   C4A 7850   7.524   6.203   8.506 -0.1867  0.3953  0.1306
  491loPI   C5A 7851   7.511   6.184   8.070 -0.2097  0.4117 -0.0044
  491loPI   C6A 7852   7.304   6.158   7.695 -0.2602  0.1625  0.1419
  491loPI   C1B 7853   7.813   6.252   9.824  0.0330  0.0057 -0.2105
  491loPI   C2B 7854   7.890   6.073   9.506 -0.2831 -0.1702 -0.2725
  491loPI   C3B 7855   7.841   5.897   9.133 -0.3007 -0.2295 -0.1544
  491loPI   C4B 7856   7.838   5.877   8.720  0.0503 -0.0477  0.1290
  492loPI    C1 7857  13.345   2.200  10.954 -0.1196 -0.4294 -0.1473
  492loPI    C2 7858  13.226   2.308  11.320  0.0028  0.0525 -0.2425
  492loPI    C3 7859  13.528   2.049  11.276  0.1356  0.1628 -0.0016
  492loPI   PO4 7860  13.493   2.442  10.889  0.0584 -0.1843  0.1988
  492loPI   GL1 7861  13.820   2.459  10.559 -0.2259 -0.0347  0.2863
  492loPI   GL2 7862  14.049   2.205  10.373  0.0197 -0.1985 -0.2399
  492loPI   C1A 7863  13.728   2.531  10.069 -0.1202  0.2136  0.1376
  492loPI   C2A 7864  13.817   2.460   9.581  0.0578  0.0288  0.1559
  492loPI   C3A 7865  13.773   2.639   9.181  0.1969  0.2313  0.0560
  492loPI   C4A 7866  13.802   2.648   8.730 -0.1290 -0.1044 -0.1869
  492loPI   C5A 7867  13.958   2.705   8.361 -0.0392  0.2278  0.2199
  492loPI   C6A 7868  14.273   2.583   8.024  0.1806 -0.1851  0.0265
  492loPI   C1B 7869  14.082   2.131   9.883  0.1973 -0.0526  0.0781
  492loPI   C2B 7870  14.190   2.134   9.474  0.1996  0.1336  0.2388
  492loPI   C3B 7871  14.110   2.217   9.034  0.3361 -0.4118  0.0012
  492loPI   C4B 7872  14.100   2.231   8.541  0.1195 -0.0710  0.0107
  493loPI    C1 7873  14.050   2.703  11.052 -0.4985 -0.0809 -0.0982
  493loPI    C2 7874  13.759   2.743  11.323 -0.4284 -0.3330  0.0170
  493loPI    C3 7875  13.866   2.379  11.197  0.0680 -0.2687  0.2320
  493loPI   PO4 7876  13.948   2.832  10.852 -0.0627  0.3435 -0.1921
  493loPI   GL1 7877  13.890   2.899  10.415  0.1774 -0.3226 -0.1534
  493loPI   GL2 7878  13.536   2.865  10.542  0.0670 -0.1961  0.1018
  493loPI   C1A 7879  13.988   3.007  10.015  0.2535  0.0157 -0.0997
  493loPI   C2A 7880  14.080   3.007   9.577 -0.1621  0.2409  0.0534
  493loPI   C3A 7881  13.992   3.063   9.103 -0.1665 -0.0263  0.1029
  493loPI   C4A 7882  14.034   3.143   8.628 -0.1362 -0.0221  0.1884
  493loPI   C5A 7883  13.709   3.187   8.303 -0.0343  0.1448 -0.1729
  493loPI   C6A 7884  13.489   3.032   7.986 -0.2530 -0.0442 -0.0668
  493loPI   C1B 7885  13.457   3.014  10.043  0.2744 -0.2431 -0.0546
  493loPI   C2B 7886  13.601   2.939   9.708 -0.2323  0.0121 -0.1148
  493loPI   C3B 7887  13.456   3.042   9.385 -0.2080  0.2138  0.1641
  493loPI   C4B 7888  13.419   2.996   8.971  0.0317 -0.0365  0.1221
  494loPI    C1 7889   3.923   8.808  10.277 -0.0881 -0.1266 -0.0147
  494loPI    C2 7890   4.217   8.929  10.035 -0.0010  0.1802  0.2369
  494loPI    C3 7891   4.195   8.546  10.146  0.2179  0.1260  0.1006
  494loPI   PO4 7892   3.748   8.948  10.157 -0.0736 -0.0956  0.1377
  494loPI   GL1 7893   3.728   9.084   9.803  0.1040  0.1850  0.2833
  494loPI   GL2 7894   3.814   9.280   9.705 -0.0299 -0.0539 -0.0175
  494loPI   C1A 7895   3.631   8.944   9.402 -0.2164 -0.1219 -0.0706
  494loPI   C2A 7896   3.227   9.002   9.253  0.0177  0.2099  0.0827
  494loPI   C3A 7897   3.019   8.725   9.132 -0.1727  0.1116  0.3233
  494loPI   C4A 7898   3.162   8.355   9.085 -0.3917 -0.2344 -0.0276
  494loPI   C5A 7899   3.518   8.114   9.185 -0.0929 -0.1025 -0.0997
  494loPI   C6A 7900   3.913   7.915   8.998 -0.1495  0.1862  0.3935
  494loPI   C1B 7901   3.944   9.356   9.345  0.0477 -0.1170 -0.0678
  494loPI   C2B 7902   4.073   9.631   9.062  0.2776  0.3484 -0.0129
  494loPI   C3B 7903   4.301   9.780   8.719 -0.0829  0.0979 -0.0880
  494loPI   C4B 7904   4.363   9.906   8.294  0.0824 -0.0843  0.1484
  495loPI    C1 7905  13.937  10.215  11.129  0.1523 -0.0476  0.0213
  495loPI    C2 7906  13.699  10.456  11.340 -0.3227 -0.0396 -0.4988
  495loPI    C3 7907  13.844  10.123  11.507 -0.4130  0.1317 -0.0638
  495loPI   PO4 7908  13.829  10.173  10.862 -0.0931  0.1480 -0.2695
  495loPI   GL1 7909  14.019  10.148  10.399  0.1273  0.2683  0.0349
  495loPI   GL2 7910  13.844  10.223  10.106  0.0300  0.0239  0.5365
  495loPI   C1A 7911  14.214   9.921   9.939  0.0513 -0.2574  0.3439
  495loPI   C2A 7912  14.229   9.941   9.595 -0.0312 -0.0707  0.4320
  495loPI   C3A 7913  14.285   9.995   9.100  0.0346 -0.0401 -0.1254
  495loPI   C4A 7914  14.197  10.037   8.721 -0.1259 -0.0967  0.1199
  495loPI   C5A 7915  14.325  10.215   8.353 -0.0991  0.2129  0.1119
  495loPI   C6A 7916  14.622  10.390   8.147 -0.1397 -0.1369 -0.0771
  495loPI   C1B 7917  13.978  10.367   9.755  0.1809  0.1312 -0.0444
  495loPI   C2B 7918  13.956  10.379   9.341  0.1517 -0.0907 -0.2848
  495loPI   C3B 7919  13.911  10.443   8.963 -0.4176  0.1172  0.1622
  495loPI   C4B 7920  13.938  10.469   8.576 -0.3036 -0.1313  0.0815
  496loPI    C1 7921   0.457   7.725  10.533 -0.2040  0.1304 -0.2171
  496loPI    C2 7922   0.386   7.733  10.926 -0.0380  0.1591 -0.1869
  496loPI    C3 7923   0.409   8.075  10.720  0.2404  0.1633 -0.1531
  496loPI   PO4 7924   0.263   7.534  10.444 -0.3495  0.0937  0.0528
  496loPI   GL1 7925   0.198   7.347  10.101 -0.0464  0.3264  0.0061
  496loPI   GL2 7926   0.286   7.672   9.970 -0.0047  0.2048 -0.1398
  496loPI   C1A 7927   0.247   7.287   9.702  0.0189  0.1993  0.1068
  496loPI   C2A 7928   0.119   7.399   9.332 -0.1086 -0.0179  0.1047
  496loPI   C3A 7929  -0.066   7.254   8.905  0.3263 -0.5774  0.1440
  496loPI   C4A 7930  -0.175   7.314   8.446  0.2399  0.2444 -0.3497
  496loPI   C5A 7931  -0.349   7.331   8.104  0.0172  0.1726  0.2334
  496loPI   C6A 7932  -0.368   7.212   7.649 -0.0924 -0.1190  0.0236
  496loPI   C1B 7933   0.055   7.800   9.615 -0.1719 -0.1102 -0.0523
  496loPI   C2B 7934   0.208   7.883   9.273 -0.0143  0.2566 -0.0947
  496loPI   C3B 7935   0.208   7.792   8.951  0.0553  0.1811  0.1332
  496loPI   C4B 7936  -0.036   7.857   8.550 -0.1382  0.0692  0.2313
  497loPI    C1 7937  11.697  16.441  10.874 -0.0907  0.0251  0.1278
  497loPI    C2 7938  11.987  16.512  11.139 -0.0947  0.2958  0.0630
  497loPI    C3 7939  11.712  16.232  11.214  0.3649 -0.1945 -0.0185
  497loPI   PO4 7940  11.852  16.384  10.640 -0.0977  0.3319 -0.0745
  497loPI   GL1 7941  11.655  16.124  10.359  0.2526 -0.0190 -0.0267
  497loPI   GL2 7942  11.260  16.058  10.236  0.1792 -0.0789  0.0757
  497loPI   C1A 7943  11.857  16.114   9.921  0.0849  0.1427  0.1347
  497loPI   C2A 7944  11.862  16.057   9.524 -0.0898  0.0623 -0.0338
  497loPI   C3A 7945  11.703  16.084   9.148 -0.2959 -0.2127 -0.1456
  497loPI   C4A 7946  11.755  16.152   8.709  0.2093  0.0055  0.2378
  497loPI   C5A 7947  11.521  15.951   8.468 -0.0971  0.0299 -0.1241
  497loPI   C6A 7948  11.725  15.916   8.059 -0.2042 -0.1128 -0.2830
  497loPI   C1B 7949  11.364  15.961   9.776  0.2485  0.1682  0.1722
  497loPI   C2B 7950  11.252  15.943   9.310  0.0650  0.0108  0.0139
  497loPI   C3B 7951  11.215  16.194   8.895  0.1351  0.2460 -0.2806
  497loPI   C4B 7952  11.360  16.460   8.631  0.0759  0.1814  0.0346
  498loPI    C1 7953  17.600  14.715  10.595 -0.0051  0.0779  0.0477
  498loPI    C2 7954  17.577  14.382  10.815  0.1660  0.1938  0.2446
  498loPI    C3 7955  17.921  14.585  10.795  0.0811  0.3232  0.0721
  498loPI   PO4 7956  17.546  14.709  10.427 -0.0276 -0.0249 -0.0765
  498loPI   GL1 7957  17.347  14.680  10.015  0.0888  0.2673 -0.0832
  498loPI   GL2 7958  17.097  14.895   9.899 -0.1942  0.1380 -0.0062
  498loPI   C1A 7959  17.529  14.721   9.615 -0.1829 -0.0691 -0.1931
  498loPI   C2A 7960  17.476  14.973   9.230 -0.0598 -0.0450 -0.0450
  498loPI   C3A 7961  17.219  14.940   8.848  0.1622 -0.0524 -0.1062
  498loPI   C4A 7962  16.995  14.910   8.441 -0.0755 -0.1730  0.0182
  498loPI   C5A 7963  16.971  14.747   8.058 -0.3209  0.0152 -0.1705
  498loPI   C6A 7964  16.675  14.523   7.942  0.5513  0.0025 -0.2022
  498loPI   C1B 7965  17.206  15.144   9.606 -0.0169 -0.5036  0.1767
  498loPI   C2B 7966  17.058  15.328   9.206  0.0166 -0.1660 -0.1373
  498loPI   C3B 7967  16.855  15.311   8.772 -0.0653  0.1310  0.1543
  498loPI   C4B 7968  16.590  15.243   8.527  0.1923  0.0559 -0.1372
  499loPI    C1 7969  14.814  10.814  10.734 -0.2923  0.1558 -0.0006
  499loPI    C2 7970  14.475  10.748  10.934 -0.2393 -0.3017 -0.0514
  499loPI    C3 7971  14.765  10.472  10.935  0.0479 -0.0069 -0.1840
  499loPI   PO4 7972  14.786  10.782  10.434  0.2434 -0.0761  0.2830
  499loPI   GL1 7973  14.804  10.739  10.116  0.0365 -0.0870 -0.0869
  499loPI   GL2 7974  14.834  10.464  10.018 -0.1544  0.2523  0.0335
  499loPI   C1A 7975  14.649  10.895   9.785 -0.0114 -0.1736  0.1663
  499loPI   C2A 7976  14.621  10.940   9.394 -0.0253  0.0243  0.0698
  499loPI   C3A 7977  14.704  11.030   8.975 -0.2256 -0.4681 -0.2621
  499loPI   C4A 7978  14.712  11.001   8.483  0.1131 -0.0424  0.1502
  499loPI   C5A 7979  14.408  11.053   8.153 -0.2274 -0.3685  0.2414
  499loPI   C6A 7980  14.256  11.058   7.732  0.0671 -0.1384  0.0805
  499loPI   C1B 7981  14.955  10.519   9.523 -0.1673  0.0447  0.1602
  499loPI   C2B 7982  14.964  10.488   9.062 -0.3174 -0.0333  0.1035
  499loPI   C3B 7983  14.926  10.557   8.574  0.2531  0.1700  0.0166
  499loPI   C4B 7984  15.185  10.379   8.260  0.2535  0.1332  0.2444
  500loPI    C1 7985  10.297   5.446  10.714 -0.2817  0.1913 -0.0129
  500loPI    C2 7986  10.439   5.639  11.034 -0.0632  0.4441 -0.2567
  500loPI    C3 7987  10.218   5.309  11.081 -0.2597  0.6278  0.1608
  500loPI   PO4 7988  10.458   5.323  10.542 -0.1211  0.1796 -0.1997
  500loPI   GL1 7989  10.490   5.514  10.159  0.0661 -0.0192  0.4490
  500loPI   GL2 7990  10.619   5.778  10.065 -0.2579  0.0894  0.1293
  500loPI   C1A 7991  10.434   5.286   9.860 -0.0628  0.2091 -0.0236
  500loPI   C2A 7992  10.410   5.347   9.399 -0.0963  0.1850 -0.0798
  500loPI   C3A 7993  10.517   5.399   8.961  0.2193 -0.1204  0.0859
  500loPI   C4A 7994  10.557   5.419   8.533 -0.2883  0.0958  0.1092
  500loPI   C5A 7995  10.413   5.375   8.133  0.0226 -0.1628 -0.2111
  500loPI   C6A 7996  10.540   5.528   7.675 -0.2109 -0.3170 -0.1025
  500loPI   C1B 7997  10.704   5.772   9.660  0.0952 -0.3024 -0.1207
  500loPI   C2B 7998  10.667   5.732   9.245 -0.0321 -0.2427  0.0770
  500loPI   C3B 7999  10.772   5.846   8.887  0.0557 -0.0193 -0.1494
  500loPI   C4B 8000  10.628   5.996   8.653  0.2869  0.1206  0.1517
  501loPI    C1 8001   1.604  16.845  10.421 -0.0292  0.2866 -0.0885
  501loPI    C2 8002   1.909  17.036  10.247  0.1165 -0.2183 -0.4087
  501loPI    C3 8003   1.944  16.649  10.343 -0.2959 -0.1863 -0.1026
  501loPI   PO4 8004   1.447  16.815  10.200 -0.2057  0.0568 -0.1247
  501loPI   GL1 8005   1.244  17.119   9.747 -0.3448 -0.1998  0.0806
  501loPI   GL2 8006   0.983  16.996   9.573 -0.0648  0.0949 -0.0385
  501loPI   C1A 8007   1.480  17.222   9.456  0.2236 -0.2704 -0.2508
  501loPI   C2A 8008   1.590  17.301   8.968 -0.1163 -0.0836 -0.2348
  501loPI   C3A 8009   1.656  17.477   8.514  0.3138  0.2226 -0.2093
  501loPI   C4A 8010   1.389  17.647   8.196  0.3483 -0.2472 -0.1771
  501loPI   C5A 8011   1.280  17.965   8.008 -0.2807  0.0809  0.3517
  501loPI   C6A 8012   1.351  18.385   7.751 -0.1066  0.1630  0.2477
  501loPI   C1B 8013   1.168  16.947   9.209 -0.2418 -0.0321 -0.0797
  501loPI   C2B 8014   1.148  16.793   8.861 -0.1013  0.0997 -0.2206
  501loPI   C3B 8015   1.094  16.648   8.440  0.0758  0.0857  0.0611
  501loPI   C4B 8016   1.138  16.592   8.007 -0.0187  0.0193  0.2828
  502loPI    C1 8017   4.155   0.545  11.332 -0.0972 -0.1243  0.2070
  502loPI    C2 8018   4.499   0.353  11.397 -0.0247 -0.0944 -0.0727
  502loPI    C3 8019   4.483   0.751  11.428 -0.0730 -0.1085  0.0927
  502loPI   PO4 8020   3.984   0.439  11.189 -0.3377  0.3030  0.1360
  502loPI   GL1 8021   4.022   0.381  10.713 -0.2036  0.0606  0.1935
  502loPI   GL2 8022   3.960   0.691  10.685  0.0525 -0.1182  0.0441
  502loPI   C1A 8023   4.446   0.460  10.485  0.2495 -0.2780  0.2026
  502loPI   C2A 8024   4.606   0.486  10.079  0.1564  0.0399  0.0472
  502loPI   C3A 8025   4.593   0.462   9.603 -0.0856 -0.2004  0.1505
  502loPI   C4A 8026   4.646   0.428   9.136  0.1046  0.2592 -0.0427
  502loPI   C5A 8027   4.654   0.483   8.754  0.0510  0.4014  0.3476
  502loPI   C6A 8028   4.389   0.339   8.337 -0.0606  0.0435 -0.1086
  502loPI   C1B 8029   4.163   0.797  10.335  0.2529  0.6667 -0.0189
  502loPI   C2B 8030   4.310   0.816   9.922 -0.0337 -0.0231 -0.0801
  502loPI   C3B 8031   4.310   0.896   9.439  0.1633  0.1241  0.2271
  502loPI   C4B 8032   4.210   0.929   9.053 -0.1745  0.1644 -0.1452
  503loPI    C1 8033   4.403  10.257  10.210  0.1752  0.0268  0.2080
  503loPI    C2 8034   4.619  10.068  10.488 -0.0545 -0.3216  0.1558
  503loPI    C3 8035   4.270   9.914  10.367 -0.1191  0.0023 -0.0830
  503loPI   PO4 8036   4.623  10.291  10.040  0.1396 -0.1743 -0.2085
  503loPI   GL1 8037   4.614  10.661   9.767 -0.1507 -0.0687  0.3053
  503loPI   GL2 8038   4.928  10.443   9.696 -0.2045  0.3062  0.3649
  503loPI   C1A 8039   4.596  10.547   9.341  0.1360  0.2201  0.2671
  503loPI   C2A 8040   4.695  10.634   9.020 -0.2976 -0.2873 -0.1175
  503loPI   C3A 8041   4.869  10.523   8.702 -0.0578  0.0498 -0.0157
  503loPI   C4A 8042   5.024  10.671   8.347 -0.1296  0.0187 -0.2569
  503loPI   C5A 8043   4.821  10.793   8.038  0.1288 -0.1578 -0.0077
  503loPI   C6A 8044   4.489  10.896   7.798  0.1854 -0.6702 -0.0555
  503loPI   C1B 8045   5.168  10.545   9.304  0.0358  0.2885  0.0191
  503loPI   C2B 8046   5.277  10.677   8.962  0.0048  0.1299 -0.0269
  503loPI   C3B 8047   5.634  10.744   8.702  0.0162 -0.2771  0.0128
  503loPI   C4B 8048   5.777  10.509   8.286 -0.2434  0.0520 -0.0191
  504loPI    C1 8049   0.605   9.038  10.133  0.0163 -0.0289 -0.0182
  504loPI    C2 8050   0.726   9.360  10.336  0.0464 -0.1305  0.1263
  504loPI    C3 8051   0.843   8.995  10.451 -0.2235 -0.2150  0.1401
  504loPI   PO4 8052   0.669   9.057   9.931 -0.0027  0.1680 -0.0640
  504loPI   GL1 8053   0.664   9.172   9.573 -0.2794  0.2309 -0.2249
  504loPI   GL2 8054   0.927   9.348   9.446 -0.1137  0.0138 -0.1773
  504loPI   C1A 8055   0.524   9.599   9.455  0.1544 -0.0014 -0.1845
  504loPI   C2A 8056   0.296   9.697   9.068  0.3747 -0.1074 -0.2491
  504loPI   C3A 8057   0.411   9.528   8.651 -0.0488 -0.2744 -0.1045
  504loPI   C4A 8058   0.479   9.449   8.253  0.0160  0.0978 -0.2521
  504loPI   C5A 8059   0.768   9.155   8.049 -0.0020  0.2777 -0.2278
  504loPI   C6A 8060   1.006   8.829   8.039 -0.1372 -0.0600  0.0293
  504loPI   C1B 8061   0.638   9.250   9.063  0.2885 -0.0016  0.1398
  504loPI   C2B 8062   0.719   9.158   8.610 -0.0873 -0.0702 -0.4345
  504loPI   C3B 8063   1.134   9.248   8.458  0.0517  0.2736 -0.2693
  504loPI   C4B 8064   1.507   9.186   8.765  0.0911  0.2222 -0.1774
  505loPI    C1 8065  12.375   1.907  10.993  0.0938  0.1010 -0.0588
  505loPI    C2 8066  12.537   1.709  11.300  0.1529  0.2837  0.0289
  505loPI    C3 8067  12.196   1.913  11.350 -0.1306 -0.1296 -0.1639
  505loPI   PO4 8068  12.570   2.030  10.819  0.0972  0.1548  0.1644
  505loPI   GL1 8069  12.633   1.869  10.369  0.0634 -0.0146 -0.1072
  505loPI   GL2 8070  12.953   1.644  10.407  0.3386 -0.0134  0.1378
  505loPI   C1A 8071  12.589   2.032   9.989  0.1279 -0.1282 -0.2727
  505loPI   C2A 8072  12.532   1.992   9.598  0.1760  0.3079  0.0032
  505loPI   C3A 8073  12.539   2.038   9.058  0.0350  0.0648  0.1507
  505loPI   C4A 8074  12.482   2.112   8.510 -0.0094  0.0609  0.3641
  505loPI   C5A 8075  12.721   1.851   8.250  0.2393  0.1948  0.0989
  505loPI   C6A 8076  13.148   1.916   8.080  0.1042 -0.0403 -0.0017
  505loPI   C1B 8077  12.899   1.657   9.903 -0.0724  0.2330 -0.2916
  505loPI   C2B 8078  12.847   1.547   9.410 -0.2617  0.0788  0.0061
  505loPI   C3B 8079  12.870   1.614   8.941 -0.2060 -0.2116 -0.1369
  505loPI   C4B 8080  12.864   1.429   8.494  0.1971 -0.0870 -0.1339
  506loPI    C1 8081  16.996  10.657  10.691  0.0445 -0.1645  0.0753
  506loPI    C2 8082  16.625  10.608  10.550  0.0069  0.0348  0.1016
  506loPI    C3 8083  16.745  10.406  10.874 -0.1049  0.0298  0.1404
  506loPI   PO4 8084  17.222  10.578  10.537 -0.0159 -0.0134 -0.0073
  506loPI   GL1 8085  17.197  10.615  10.033  0.0410 -0.1861 -0.0782
  506loPI   GL2 8086  16.927  10.734  10.169  0.0570  0.0953  0.0886
  506loPI   C1A 8087  17.116  10.831   9.661  0.4983  0.2625  0.0821
  506loPI   C2A 8088  17.047  10.799   9.193 -0.2764 -0.0171  0.5864
  506loPI   C3A 8089  16.942  10.919   8.811 -0.0464  0.2124  0.0902
  506loPI   C4A 8090  16.894  10.919   8.453  0.1080  0.1581 -0.3021
  506loPI   C5A 8091  16.574  10.761   8.219  0.0425 -0.1541  0.1915
  506loPI   C6A 8092  16.155  10.459   8.327 -0.2348  0.1045  0.0524
  506loPI   C1B 8093  16.700  10.577   9.886  0.0265 -0.1239  0.2682
  506loPI   C2B 8094  16.588  10.705   9.481  0.0918 -0.0829 -0.4022
  506loPI   C3B 8095  16.521  10.778   9.025  0.0719  0.1049  0.1451
  506loPI   C4B 8096  16.418  10.916   8.657 -0.2132  0.1709  0.0114
  507loPI    C1 8097  12.997   0.021  10.984  0.1783 -0.1774 -0.1431
  507loPI    C2 8098  12.818   0.258  11.253  0.2048 -0.0738 -0.2160
  507loPI    C3 8099  13.093  -0.008  11.371  0.2176 -0.0275 -0.1409
  507loPI   PO4 8100  12.807  -0.001  10.813  0.0344 -0.0820 -0.1687
  507loPI   GL1 8101  12.562   0.248  10.480 -0.1238 -0.0718  0.1748
  507loPI   GL2 8102  12.563   0.590  10.373  0.2027  0.3133 -0.0351
  507loPI   C1A 8103  12.346   0.223  10.038 -0.1781  0.0790  0.0004
  507loPI   C2A 8104  12.334   0.134   9.613  0.2005 -0.0757  0.1368
  507loPI   C3A 8105  12.277   0.092   9.160  0.2292 -0.0784  0.0200
  507loPI   C4A 8106  12.321   0.166   8.794  0.0240 -0.0047 -0.1694
  507loPI   C5A 8107  12.314   0.296   8.366 -0.0350 -0.0434  0.0615
  507loPI   C6A 8108  12.211   0.522   8.157  0.0426  0.0133  0.2307
  507loPI   C1B 8109  12.490   0.648   9.837  0.2160 -0.0216  0.0899
  507loPI   C2B 8110  12.481   0.651   9.451  0.3590 -0.0033 -0.1236
  507loPI   C3B 8111  12.510   0.613   9.038  0.1486  0.1335  0.2510
  507loPI   C4B 8112  12.520   0.639   8.630  0.2404  0.3181 -0.1737
  508loPI    C1 8113  15.466  12.637  11.222 -0.0128 -0.0107  0.1198
  508loPI    C2 8114  15.586  12.255  11.222  0.0370  0.0046  0.0013
  508loPI    C3 8115  15.355  12.392  11.518 -0.0440 -0.1372  0.0045
  508loPI   PO4 8116  15.446  12.707  10.874  0.0838 -0.2392 -0.0272
  508loPI   GL1 8117  15.356  12.613  10.362  0.1382  0.0860  0.2806
  508loPI   GL2 8118  15.703  12.557  10.455  0.3948 -0.0939 -0.0341
  508loPI   C1A 8119  15.482  12.779  10.047  0.1567 -0.0886 -0.0351
  508loPI   C2A 8120  15.520  12.804   9.751  0.1286 -0.4263 -0.0889
  508loPI   C3A 8121  15.465  12.875   9.390  0.1902  0.1069 -0.2166
  508loPI   C4A 8122  15.438  12.852   8.911 -0.0202  0.2103 -0.1394
  508loPI   C5A 8123  15.440  12.942   8.514  0.2917  0.1715 -0.1404
  508loPI   C6A 8124  15.633  13.115   8.116 -0.0904  0.2673  0.0977
  508loPI   C1B 8125  15.791  12.370   9.960 -0.1570  0.1327  0.1676
  508loPI   C2B 8126  15.838  12.404   9.555  0.1781 -0.0796  0.1088
  508loPI   C3B 8127  15.805  12.543   9.170  0.1879  0.1388 -0.0300
  508loPI   C4B 8128  15.738  12.466   8.775 -0.1457  0.1029 -0.2517
  509loPI    C1 8129  17.572   3.879  11.028  0.1136  0.2009  0.0325
  509loPI    C2 8130  17.264   3.704  10.843  0.3717 -0.1948 -0.0369
  509loPI    C3 8131  17.199   3.997  11.108 -0.0589 -0.2581 -0.0657
  509loPI   PO4 8132  17.707   3.954  10.759  0.0402  0.0751 -0.1424
  509loPI   GL1 8133  17.422   3.811  10.342  0.2934 -0.1238  0.1351
  509loPI   GL2 8134  17.537   3.476  10.164 -0.0835  0.1016 -0.4192
  509loPI   C1A 8135  17.420   4.080  10.085  0.2139  0.1533  0.1893
  509loPI   C2A 8136  17.417   4.015   9.747  0.0091 -0.1947  0.1136
  509loPI   C3A 8137  17.282   4.035   9.281  0.1607 -0.0864 -0.0992
  509loPI   C4A 8138  17.204   4.037   8.855 -0.1625 -0.3953 -0.3858
  509loPI   C5A 8139  17.294   4.009   8.419  0.2493  0.2898 -0.2988
  509loPI   C6A 8140  16.989   4.105   8.026  0.1301 -0.4692  0.0714
  509loPI   C1B 8141  17.505   3.206   9.796 -0.2218 -0.2304  0.0287
  509loPI   C2B 8142  17.528   3.228   9.347 -0.1779  0.2606  0.0492
  509loPI   C3B 8143  17.480   3.208   8.936 -0.3183  0.0130 -0.1235
  509loPI   C4B 8144  17.380   3.128   8.506 -0.1745  0.1633  0.2573
  510loPI    C1 8145   7.807  14.106  11.279 -0.0639 -0.0207 -0.1076
  510loPI    C2 8146   7.914  14.382  11.548  0.1448 -0.1038 -0.1030
  510loPI    C3 8147   7.860  14.002  11.661 -0.0103 -0.0917 -0.1342
  510loPI   PO4 8148   7.928  14.270  11.021  0.0446 -0.0274 -0.0372
  510loPI   GL1 8149   8.019  14.336  10.562  0.0850 -0.1297 -0.0722
  510loPI   GL2 8150   8.320  14.229  10.429 -0.2013 -0.3626 -0.1190
  510loPI   C1A 8151   7.680  14.464  10.184 -0.0730  0.2738 -0.1685
  510loPI   C2A 8152   7.812  14.578   9.718 -0.6641 -0.3994 -0.0564
  510loPI   C3A 8153   7.725  14.566   9.249 -0.0711 -0.0116 -0.0118
  510loPI   C4A 8154   7.789  14.576   8.896 -0.1341  0.0117 -0.1919
  510loPI   C5A 8155   8.043  14.732   8.560 -0.0051  0.0204 -0.1235
  510loPI   C6A 8156   8.381  14.851   8.408 -0.0053 -0.0727 -0.2528
  510loPI   C1B 8157   8.059  14.225   9.952 -0.4158 -0.1015 -0.2432
  510loPI   C2B 8158   8.048  14.240   9.476 -0.1914 -0.0165 -0.0927
  510loPI   C3B 8159   8.102  14.147   9.118  0.0568  0.1502 -0.0965
  510loPI   C4B 8160   8.177  14.293   8.717  0.1597  0.2229  0.0156
  511loPI    C1 8161  15.643   9.345  10.784 -0.2438  0.0144 -0.1405
  511loPI    C2 8162  15.454   9.643  10.973 -0.0547  0.0361  0.0172
  511loPI    C3 8163  15.548   9.308  11.171  0.0782  0.0286 -0.0572
  511loPI   PO4 8164  15.933   9.389  10.697  0.1346 -0.1376 -0.1147
  511loPI   GL1 8165  15.898   9.298  10.271  0.0530  0.0744  0.0099
  511loPI   GL2 8166  15.700   9.013  10.341  0.0382 -0.0883 -0.3879
  511loPI   C1A 8167  16.017   9.344   9.892  0.1281  0.1952  0.0463
  511loPI   C2A 8168  15.972   9.213   9.450 -0.0209 -0.0892  0.0413
  511loPI   C3A 8169  15.882   9.344   9.016  0.0455  0.1029 -0.0183
  511loPI   C4A 8170  15.978   9.121   8.629 -0.0113 -0.2089  0.0778
  511loPI   C5A 8171  15.921   8.890   8.195 -0.4212  0.0011  0.1549
  511loPI   C6A 8172  15.631   8.601   8.100 -0.0930  0.0545 -0.1591
  511loPI   C1B 8173  15.731   8.767  10.022  0.1014 -0.0131 -0.1432
  511loPI   C2B 8174  15.793   8.671   9.619  0.0402  0.0331 -0.1900
  511loPI   C3B 8175  15.738   8.799   9.115  0.3321  0.0138 -0.3764
  511loPI   C4B 8176  15.671   8.705   8.731  0.1413  0.1176  0.1347
  512loPI    C1 8177   4.921  13.412  10.945  0.1241  0.1863 -0.0936
  512loPI    C2 8178   4.532  13.499  10.984  0.0547 -0.0360 -0.2709
  512loPI    C3 8179   4.782  13.562  11.289 -0.0994  0.2131 -0.1936
  512loPI   PO4 8180   4.978  13.232  10.756 -0.1232  0.0546 -0.0496
  512loPI   GL1 8181   5.095  13.452  10.462  0.0383  0.1778 -0.0122
  512loPI   GL2 8182   4.752  13.440  10.333 -0.1966 -0.0254  0.3590
  512loPI   C1A 8183   5.275  13.361  10.094  0.1781  0.2684  0.1484
  512loPI   C2A 8184   5.252  13.310   9.692 -0.0165 -0.1857  0.1002
  512loPI   C3A 8185   5.286  13.444   9.264 -0.2245 -0.0083  0.0687
  512loPI   C4A 8186   5.386  13.383   8.820 -0.2319  0.1866  0.0456
  512loPI   C5A 8187   5.290  13.424   8.349  0.1739 -0.2040 -0.0485
  512loPI   C6A 8188   4.850  13.292   8.163 -0.2022  0.0198 -0.1811
  512loPI   C1B 8189   4.907  13.691   9.992 -0.1639  0.1016 -0.1020
  512loPI   C2B 8190   5.002  13.731   9.603  0.0283  0.0787 -0.0862
  512loPI   C3B 8191   4.952  13.807   9.125 -0.0315 -0.1850 -0.1849
  512loPI   C4B 8192   5.118  13.772   8.728  0.0056  0.1061  0.0519
  513loPI    C1 8193   0.235   9.475  10.375 -0.3096 -0.2439 -0.0363
  513loPI    C2 8194   0.453   9.515  10.708 -0.0868  0.2400 -0.2312
  513loPI    C3 8195   0.055   9.550  10.724 -0.1453 -0.4210  0.0887
  513loPI   PO4 8196   0.253   9.305  10.307 -0.0125  0.1173 -0.0300
  513loPI   GL1 8197   0.263   9.357   9.888  0.1117 -0.0837 -0.1815
  513loPI   GL2 8198   0.233   9.729   9.885  0.2277  0.0084 -0.0975
  513loPI   C1A 8199  -0.074   9.473   9.479  0.1267  0.1244 -0.1531
  513loPI   C2A 8200  -0.176   9.536   8.981 -0.1506  0.0636  0.3975
  513loPI   C3A 8201  -0.117   9.613   8.547  0.1388  0.4516 -0.1020
  513loPI   C4A 8202  -0.048   9.564   8.191  0.1617  0.3951  0.1507
  513loPI   C5A 8203  -0.278   9.416   7.803 -0.3961 -0.3398 -0.2033
  513loPI   C6A 8204  -0.512   9.185   7.459  0.0904 -0.1276  0.0312
  513loPI   C1B 8205   0.100   9.942   9.513 -0.1788 -0.1310  0.0656
  513loPI   C2B 8206  -0.049  10.047   9.117  0.2605 -0.1953  0.1134
  513loPI   C3B 8207  -0.185  10.051   8.695  0.1410 -0.2156  0.0903
  513loPI   C4B 8208  -0.275  10.130   8.388 -0.0971 -0.0593  0.0051
  514loPI    C1 8209   9.566   2.913  10.739 -0.0439 -0.1211 -0.0717
  514loPI    C2 8210   9.587   2.762  11.109 -0.2686  0.1835  0.0704
  514loPI    C3 8211   9.399   3.109  11.046 -0.0844  0.2195 -0.3062
  514loPI   PO4 8212   9.483   2.741  10.598 -0.0830 -0.0121 -0.5234
  514loPI   GL1 8213   9.317   2.629  10.217  0.0604  0.0298  0.1684
  514loPI   GL2 8214   9.437   2.358  10.271 -0.1296 -0.1681  0.0509
  514loPI   C1A 8215   9.118   2.845   9.898 -0.1833  0.0301 -0.0278
  514loPI   C2A 8216   9.139   2.908   9.492 -0.1869 -0.0271  0.1913
  514loPI   C3A 8217   9.045   2.914   9.083 -0.0999 -0.1841 -0.1957
  514loPI   C4A 8218   9.066   2.924   8.764 -0.2084  0.2413 -0.2541
  514loPI   C5A 8219   8.936   3.045   8.413  0.1885 -0.2406 -0.2566
  514loPI   C6A 8220   8.695   2.955   8.074  0.3995  0.4270 -0.2372
  514loPI   C1B 8221   9.365   2.419   9.726  0.1580 -0.1194  0.0810
  514loPI   C2B 8222   9.403   2.521   9.229  0.0772  0.1372 -0.2394
  514loPI   C3B 8223   9.367   2.502   8.718  0.2028  0.0230  0.3215
  514loPI   C4B 8224   9.395   2.753   8.311  0.2124 -0.0119  0.5300
  515loPI    C1 8225  17.143   0.614  10.641  0.3772  0.1293 -0.0668
  515loPI    C2 8226  16.840   0.589  10.901  0.4205  0.2667 -0.0020
  515loPI    C3 8227  17.212   0.501  11.018  0.3913 -0.0142 -0.1119
  515loPI   PO4 8228  17.148   0.460  10.412 -0.1407 -0.0838 -0.0177
  515loPI   GL1 8229  17.119   0.597  10.075  0.1611  0.2376  0.2255
  515loPI   GL2 8230  17.037   0.979  10.153 -0.0459  0.1930  0.1502
  515loPI   C1A 8231  17.287   0.489   9.674 -0.1874  0.3503  0.2059
  515loPI   C2A 8232  17.252   0.470   9.212 -0.1717  0.1755  0.1280
  515loPI   C3A 8233  17.176   0.348   8.739  0.1658  0.1369 -0.1071
  515loPI   C4A 8234  17.084   0.341   8.309 -0.2439 -0.0379  0.0481
  515loPI   C5A 8235  17.241   0.591   7.949 -0.0433 -0.2618  0.0331
  515loPI   C6A 8236  17.429   0.794   7.646 -0.0899 -0.0701 -0.0630
  515loPI   C1B 8237  16.932   0.851   9.692  0.0882 -0.1049 -0.0216
  515loPI   C2B 8238  16.852   0.851   9.237 -0.2355  0.1444 -0.2976
  515loPI   C3B 8239  17.025   0.813   8.803 -0.0999  0.0195 -0.0933
  515loPI   C4B 8240  16.803   0.690   8.486  0.0011  0.1075  0.0117
  516loPI    C1 8241   6.435  17.568  11.386 -0.0985 -0.0683  0.1174
  516loPI    C2 8242   6.657  17.847  11.205 -0.0189 -0.1612  0.0709
  516loPI    C3 8243   6.750  17.725  11.575  0.0318 -0.2285  0.0365
  516loPI   PO4 8244   6.165  17.702  11.196  0.0397 -0.0108 -0.2936
  516loPI   GL1 8245   6.285  17.728  10.829  0.2396 -0.4354  0.4358
  516loPI   GL2 8246   6.552  17.724  10.540 -0.0180  0.0648 -0.2883
  516loPI   C1A 8247   6.175  18.034  10.447 -0.4320  0.0987  0.0876
  516loPI   C2A 8248   6.180  18.078  10.003 -0.1375  0.0786 -0.0594
  516loPI   C3A 8249   6.290  18.143   9.626  0.1947 -0.0418 -0.1754
  516loPI   C4A 8250   6.272  18.086   9.185  0.2877  0.2408 -0.0062
  516loPI   C5A 8251   6.154  18.045   8.689 -0.0476  0.0344  0.2033
  516loPI   C6A 8252   6.056  17.779   8.432  0.3054  0.0498  0.2004
  516loPI   C1B 8253   6.475  17.689  10.090 -0.1615  0.1638  0.0076
  516loPI   C2B 8254   6.589  17.681   9.678  0.1967  0.1386 -0.0600
  516loPI   C3B 8255   6.591  17.721   9.265  0.2241 -0.0069  0.2594
  516loPI   C4B 8256   6.545  17.707   8.838  0.3979 -0.1314  0.1767
  517loPI    C1 8257   1.269   1.488  10.410 -0.0635  0.0937 -0.0716
  517loPI    C2 8258   1.593   1.683  10.541 -0.0343  0.0338 -0.0547
  517loPI    C3 8259   1.255   1.689  10.755 -0.0535  0.1214 -0.0875
  517loPI   PO4 8260   1.115   1.490  10.162  0.0662  0.0050 -0.2863
  517loPI   GL1 8261   1.251   1.443   9.721  0.2474 -0.1809  0.1271
  517loPI   GL2 8262   1.448   1.751   9.840 -0.0948 -0.1160  0.1308
  517loPI   C1A 8263   1.407   1.374   9.271  0.0484  0.1638 -0.0997
  517loPI   C2A 8264   1.510   1.518   8.992  0.4319 -0.1768 -0.2323
  517loPI   C3A 8265   1.464   1.689   8.574 -0.0533  0.3480 -0.2155
  517loPI   C4A 8266   1.205   1.910   8.271  0.1909 -0.2160 -0.3008
  517loPI   C5A 8267   1.122   2.255   8.083 -0.0626 -0.0469  0.1577
  517loPI   C6A 8268   1.391   2.605   7.980 -0.3447 -0.1278 -0.1036
  517loPI   C1B 8269   1.781   2.066   9.697 -0.1612 -0.0573  0.0096
  517loPI   C2B 8270   1.927   2.299   9.278  0.1458 -0.3434 -0.1200
  517loPI   C3B 8271   1.790   2.522   8.811  0.3644 -0.1245  0.4794
  517loPI   C4B 8272   1.886   2.680   8.278 -0.1672 -0.0245 -0.2164
  518loPI    C1 8273   0.013   2.309  10.757 -0.1587 -0.0120  0.0400
  518loPI    C2 8274   0.239   2.396  11.076 -0.2121 -0.0284  0.0827
  518loPI    C3 8275   0.151   2.015  10.992 -0.0123 -0.0405 -0.0803
  518loPI   PO4 8276   0.181   2.407  10.495 -0.3075 -0.0849 -0.1841
  518loPI   GL1 8277   0.414   2.400  10.054  0.0724 -0.0118 -0.0565
  518loPI   GL2 8278   0.152   2.183   9.992 -0.2442 -0.0790  0.0408
  518loPI   C1A 8279   0.473   2.347   9.622 -0.1113 -0.0676 -0.1307
  518loPI   C2A 8280   0.643   2.008   9.332 -0.2242 -0.0350 -0.3044
  518loPI   C3A 8281   0.478   1.843   9.100 -0.2103  0.1985  0.1462
  518loPI   C4A 8282   0.272   1.898   8.834  0.3246  0.1547 -0.3263
  518loPI   C5A 8283   0.148   2.087   8.421  0.1596 -0.2588 -0.3073
  518loPI   C6A 8284   0.250   2.324   8.069 -0.2906  0.4262  0.1278
  518loPI   C1B 8285  -0.050   2.424   9.679 -0.1009  0.1567 -0.0965
  518loPI   C2B 8286  -0.186   2.349   9.236  0.0437 -0.1289  0.0559
  518loPI   C3B 8287  -0.136   2.355   8.781 -0.0984  0.1500 -0.1566
  518loPI   C4B 8288  -0.227   2.348   8.392  0.0871 -0.1036  0.3702
  519loPI    C1 8289   0.177   6.698  10.654  0.1793  0.0274  0.1342
  519loPI    C2 8290   0.550   6.812  10.741  0.2097  0.1219 -0.1116
  519loPI    C3 8291   0.457   6.423  10.731  0.2320  0.1049  0.2213
  519loPI   PO4 8292   0.134   6.885  10.416 -0.3214 -0.2076  0.3109
  519loPI   GL1 8293  -0.042   6.908  10.037  0.0519 -0.1618  0.0411
  519loPI   GL2 8294   0.301   6.891   9.942  0.0780 -0.1777 -0.0573
  519loPI   C1A 8295  -0.144   6.968   9.630  0.0789 -0.1582  0.1323
  519loPI   C2A 8296  -0.310   6.887   9.201  0.1795  0.0709  0.2207
  519loPI   C3A 8297  -0.348   6.831   8.768  0.2213 -0.0007  0.2119
  519loPI   C4A 8298  -0.312   6.848   8.301  0.1500  0.1978  0.0443
  519loPI   C5A 8299  -0.485   6.849   7.935 -0.2308 -0.0485  0.0296
  519loPI   C6A 8300  -0.638   6.594   7.591 -0.1060  0.2485  0.0224
  519loPI   C1B 8301   0.288   6.675   9.603 -0.0503  0.2285 -0.0553
  519loPI   C2B 8302   0.009   6.460   9.367 -0.0403  0.0141 -0.0043
  519loPI   C3B 8303   0.075   6.535   9.006 -0.2152 -0.3167 -0.1538
  519loPI   C4B 8304  -0.003   6.428   8.656  0.0748 -0.1517 -0.1317
  520loPI    C1 8305  15.936   8.758  10.774 -0.0692 -0.1137 -0.1463
  520loPI    C2 8306  15.923   8.406  10.584  0.0962 -0.1268 -0.1347
  520loPI    C3 8307  15.978   8.418  10.981  0.1780 -0.0856 -0.1471
  520loPI   PO4 8308  16.090   8.925  10.606  0.1535  0.0274 -0.3181
  520loPI   GL1 8309  16.236   8.727  10.240 -0.3188 -0.0675  0.0741
  520loPI   GL2 8310  16.135   8.490  10.077 -0.0628 -0.0070 -0.2265
  520loPI   C1A 8311  16.284   8.883   9.862  0.0708  0.1167  0.1601
  520loPI   C2A 8312  16.276   8.821   9.370 -0.3480  0.0687  0.2445
  520loPI   C3A 8313  16.361   8.907   8.912 -0.0713  0.2941 -0.2102
  520loPI   C4A 8314  16.499   9.063   8.470  0.0338  0.1789  0.2306
  520loPI   C5A 8315  16.522   8.941   8.083 -0.2441 -0.3817  0.0007
  520loPI   C6A 8316  16.757   8.769   7.751 -0.2488 -0.1971 -0.0821
  520loPI   C1B 8317  16.122   8.299   9.638 -0.0635  0.2958 -0.0010
  520loPI   C2B 8318  16.126   8.291   9.225  0.1567 -0.1632 -0.2219
  520loPI   C3B 8319  16.085   8.358   8.885 -0.2371 -0.0198  0.0288
  520loPI   C4B 8320  16.195   8.541   8.444  0.1747 -0.0281 -0.1224
  521loPI    C1 8321   6.966  16.009  11.278 -0.2609 -0.0698 -0.1168
  521loPI    C2 8322   6.757  16.194  11.565 -0.1363  0.1485 -0.1639
  521loPI    C3 8323   7.096  16.356  11.430  0.0261 -0.1646 -0.1412
  521loPI   PO4 8324   6.782  16.043  11.069  0.1336  0.0895  0.0846
  521loPI   GL1 8325   6.745  16.391  10.718 -0.0161  0.2238  0.0463
  521loPI   GL2 8326   7.008  16.313  10.547  0.1318  0.0507 -0.3143
  521loPI   C1A 8327   6.547  16.194  10.330  0.0503  0.0871  0.2321
  521loPI   C2A 8328   6.423  16.279   9.925  0.1547 -0.0833  0.2129
  521loPI   C3A 8329   6.480  16.242   9.576 -0.0671  0.0834  0.0063
  521loPI   C4A 8330   6.590  16.241   9.202 -0.0042  0.1238  0.1514
  521loPI   C5A 8331   6.564  16.302   8.738  0.1537 -0.1130  0.2098
  521loPI   C6A 8332   6.644  15.971   8.458 -0.2831 -0.0232 -0.0791
  521loPI   C1B 8333   6.958  16.318  10.062  0.1325  0.0960 -0.2858
  521loPI   C2B 8334   6.992  16.296   9.549 -0.1080  0.1434 -0.0308
  521loPI   C3B 8335   7.053  16.334   9.036 -0.1377 -0.3300 -0.0433
  521loPI   C4B 8336   7.092  16.327   8.572 -0.1676  0.2094 -0.0307
  522loPI    C1 8337   0.908   0.480  10.383 -0.2303 -0.0845 -0.0469
  522loPI    C2 8338   0.617   0.313  10.601  0.0338 -0.2995  0.1481
  522loPI    C3 8339   0.965   0.410  10.773  0.0185  0.1177 -0.0445
  522loPI   PO4 8340   0.791   0.735  10.219 -0.0415 -0.1841 -0.0589
  522loPI   GL1 8341   0.825   1.086   9.929 -0.1801 -0.4449  0.0039
  522loPI   GL2 8342   0.667   1.357   9.921  0.2275 -0.3131 -0.1652
  522loPI   C1A 8343   0.794   1.002   9.565 -0.2342  0.0776  0.0320
  522loPI   C2A 8344   0.653   0.795   9.210 -0.0221 -0.2263 -0.3283
  522loPI   C3A 8345   0.670   0.833   8.905  0.0558  0.1246  0.1857
  522loPI   C4A 8346   0.632   0.550   8.558  0.0976  0.2731  0.3020
  522loPI   C5A 8347   0.545   0.276   8.294 -0.6074  0.1246  0.2319
  522loPI   C6A 8348   0.664  -0.206   8.400  0.0093 -0.1193  0.2277
  522loPI   C1B 8349   0.723   1.559   9.505  0.1262  0.3587  0.1272
  522loPI   C2B 8350   0.976   1.585   9.126 -0.0550  0.2522  0.0022
  522loPI   C3B 8351   1.023   1.494   8.727 -0.0025  0.2176 -0.0207
  522loPI   C4B 8352   0.843   1.060   8.475  0.2811 -0.0552 -0.1333
  523loPI    C1 8353  18.170   2.774  10.821 -0.0463 -0.0297 -0.1165
  523loPI    C2 8354  18.083   3.095  11.044  0.1121  0.0051 -0.1034
  523loPI    C3 8355  18.151   2.742  11.219  0.1944  0.0228 -0.0995
  523loPI   PO4 8356  18.346   2.928  10.655 -0.1804  0.2085 -0.2524
  523loPI   GL1 8357  18.272   3.132  10.240 -0.2100 -0.2936 -0.2033
  523loPI   GL2 8358  18.297   2.751  10.190  0.1396  0.0289 -0.1280
  523loPI   C1A 8359  18.067   3.312   9.969 -0.2840 -0.2872 -0.1580
  523loPI   C2A 8360  17.995   3.282   9.608  0.1939  0.2510 -0.1288
  523loPI   C3A 8361  18.004   3.349   9.199 -0.5155 -0.0882  0.1675
  523loPI   C4A 8362  17.935   3.216   8.857 -0.2322 -0.1183 -0.0817
  523loPI   C5A 8363  17.901   3.218   8.395 -0.0893 -0.0205 -0.1646
  523loPI   C6A 8364  18.064   3.285   7.986  0.1780  0.0637 -0.1578
  523loPI   C1B 8365  18.314   2.904   9.783 -0.1199  0.1781 -0.0059
  523loPI   C2B 8366  18.301   2.842   9.392 -0.0565  0.1167 -0.0254
  523loPI   C3B 8367  18.287   2.839   9.007  0.2351  0.2826 -0.1716
  523loPI   C4B 8368  18.220   2.878   8.572 -0.0753  0.0678  0.0170
  524loPI    C1 8369  14.302   8.500  10.790  0.0089  0.1554 -0.1230
  524loPI    C2 8370  14.258   8.167  11.006 -0.0079  0.0356 -0.3087
  524loPI    C3 8371  14.489   8.464  11.142 -0.3110  0.1170  0.0458
  524loPI   PO4 8372  14.269   8.295  10.503  0.6161  0.0549 -0.0228
  524loPI   GL1 8373  14.177   8.326  10.099  0.0582 -0.3304 -0.2860
  524loPI   GL2 8374  14.088   7.993   9.951 -0.0273  0.0241 -0.0390
  524loPI   C1A 8375  14.259   8.582   9.837  0.1075  0.3298 -0.2447
  524loPI   C2A 8376  14.288   8.563   9.462  0.2924  0.0881  0.0814
  524loPI   C3A 8377  14.276   8.571   8.989  0.3447  0.0789 -0.0830
  524loPI   C4A 8378  14.181   8.560   8.589  0.0546 -0.2541 -0.1915
  524loPI   C5A 8379  14.024   8.571   8.157  0.0179  0.0139  0.0540
  524loPI   C6A 8380  14.325   8.339   8.022 -0.0578 -0.1496  0.0637
  524loPI   C1B 8381  14.080   8.106   9.531  0.0103 -0.1229 -0.4335
  524loPI   C2B 8382  14.026   8.156   9.115 -0.1576  0.2935 -0.0159
  524loPI   C3B 8383  13.970   8.100   8.690  0.2338 -0.2544 -0.1387
  524loPI   C4B 8384  14.009   7.950   8.249 -0.0866 -0.1832 -0.2391
  525loPI    C1 8385   6.807   1.871  11.158 -0.0415  0.0208  0.1634
  525loPI    C2 8386   6.821   1.649  11.490  0.2196 -0.0315  0.1195
  525loPI    C3 8387   7.040   1.983  11.463 -0.0131  0.1220  0.1051
  525loPI   PO4 8388   6.788   1.705  10.973  0.0986 -0.0113 -0.0127
  525loPI   GL1 8389   6.651   1.249  10.739  0.2171 -0.3213  0.0575
  525loPI   GL2 8390   6.418   1.025  10.711 -0.0654  0.0792 -0.0707
  525loPI   C1A 8391   6.705   1.288  10.264  0.1438  0.0415  0.2536
  525loPI   C2A 8392   6.742   1.205   9.881 -0.1208 -0.2545 -0.1348
  525loPI   C3A 8393   6.882   1.161   9.435  0.0752  0.0235 -0.0146
  525loPI   C4A 8394   7.075   1.143   9.069 -0.3407  0.0130  0.0606
  525loPI   C5A 8395   7.261   0.976   8.718  0.1942 -0.1103  0.2071
  525loPI   C6A 8396   7.525   0.671   8.562  0.4499 -0.0236  0.1783
  525loPI   C1B 8397   6.271   1.083  10.339 -0.3508 -0.2409 -0.1793
  525loPI   C2B 8398   6.190   1.205   9.905  0.1036 -0.0025  0.0499
  525loPI   C3B 8399   6.378   1.156   9.546  0.2620  0.4126  0.2293
  525loPI   C4B 8400   6.250   1.242   9.077  0.2394 -0.1211 -0.0963
  526loPI    C1 8401   5.092   2.215  11.021 -0.0211 -0.0780  0.0555
  526loPI    C2 8402   4.729   2.260  11.183 -0.0649  0.0173 -0.0674
  526loPI    C3 8403   5.055   2.368  11.388 -0.0920 -0.2466  0.1194
  526loPI   PO4 8404   5.061   2.229  10.721 -0.0332  0.0425 -0.0057
  526loPI   GL1 8405   5.000   1.946  10.382 -0.3310 -0.0450 -0.3280
  526loPI   GL2 8406   4.719   1.923  10.299  0.1568  0.0111 -0.2094
  526loPI   C1A 8407   5.212   1.902   9.941  0.2648  0.1790  0.1170
  526loPI   C2A 8408   5.352   1.889   9.488 -0.1767  0.1194 -0.2282
  526loPI   C3A 8409   5.233   1.970   9.069 -0.0241 -0.0278  0.0643
  526loPI   C4A 8410   5.292   1.768   8.658 -0.0236 -0.1103 -0.3976
  526loPI   C5A 8411   5.031   1.842   8.246 -0.2359 -0.1426  0.0632
  526loPI   C6A 8412   4.786   2.002   7.915 -0.1556  0.0935  0.2266
  526loPI   C1B 8413   4.700   1.815   9.826  0.0378 -0.1081 -0.1463
  526loPI   C2B 8414   4.620   1.777   9.357 -0.1680 -0.0641 -0.1341
  526loPI   C3B 8415   4.621   1.890   8.923 -0.0819  0.3030 -0.3508
  526loPI   C4B 8416   4.615   1.777   8.515  0.3331 -0.0096 -0.3115
  527loPI    C1 8417  13.639  17.191  11.147 -0.0758 -0.1806  0.1144
  527loPI    C2 8418  13.806  17.035  11.475  0.0728  0.0229  0.1376
  527loPI    C3 8419  13.834  17.428  11.404 -0.2370  0.0309  0.0451
  527loPI   PO4 8420  13.644  16.960  10.984 -0.1945  0.0077 -0.2421
  527loPI   GL1 8421  13.851  16.859  10.534  0.5545  0.1971 -0.1188
  527loPI   GL2 8422  13.522  17.009  10.525  0.4097  0.0809 -0.1935
  527loPI   C1A 8423  14.066  16.799  10.179 -0.1395 -0.3345 -0.0877
  527loPI   C2A 8424  14.161  16.802   9.728 -0.5033  0.1971 -0.0561
  527loPI   C3A 8425  14.041  16.819   9.383 -0.1697  0.2393 -0.2649
  527loPI   C4A 8426  14.030  16.865   8.937 -0.1336  0.2764 -0.0879
  527loPI   C5A 8427  13.884  16.840   8.468 -0.0925 -0.1907 -0.0841
  527loPI   C6A 8428  13.787  17.015   8.057  0.0286 -0.0339 -0.1114
  527loPI   C1B 8429  13.362  17.125  10.138  0.0935 -0.4867 -0.0229
  527loPI   C2B 8430  13.300  17.233   9.672 -0.1789 -0.2474  0.4005
  527loPI   C3B 8431  13.294  17.262   9.182 -0.3022  0.1609  0.0716
  527loPI   C4B 8432  13.248  17.204   8.735 -0.0526  0.1248  0.3050
  528loPI    C1 8433   5.588   1.381  11.296 -0.0620  0.2845 -0.1293
  528loPI    C2 8434   5.240   1.355  11.492  0.0371  0.2728  0.0475
  528loPI    C3 8435   5.584   1.289  11.685  0.1358  0.2405 -0.1365
  528loPI   PO4 8436   5.566   1.487  11.134 -0.2574 -0.1048 -0.0687
  528loPI   GL1 8437   5.525   1.381  10.793 -0.0444  0.1086  0.1549
  528loPI   GL2 8438   5.748   1.262  10.534 -0.0793  0.1388 -0.0119
  528loPI   C1A 8439   5.490   1.637  10.318  0.0559 -0.0208 -0.2140
  528loPI   C2A 8440   5.521   1.455   9.865  0.2771 -0.2579 -0.1813
  528loPI   C3A 8441   5.566   1.467   9.522  0.1918 -0.2561 -0.3193
  528loPI   C4A 8442   5.482   1.517   9.009 -0.1489 -0.0982  0.1064
  528loPI   C5A 8443   5.479   1.278   8.628  0.2421 -0.0700 -0.1532
  528loPI   C6A 8444   5.803   1.121   8.339 -0.0820  0.2383 -0.1541
  528loPI   C1B 8445   5.758   1.078  10.128  0.1256 -0.0318 -0.1504
  528loPI   C2B 8446   5.784   1.045   9.626  0.1269 -0.3083 -0.1440
  528loPI   C3B 8447   5.788   1.062   9.158 -0.3151  0.1401 -0.1714
  528loPI   C4B 8448   5.617   0.791   8.732  0.0467 -0.3009 -0.1207
  529loPI    C1 8449  16.920   2.710  10.711  0.1610  0.0062 -0.1128
  529loPI    C2 8450  17.093   2.539  11.028  0.0263 -0.0396 -0.0634
  529loPI    C3 8451  17.032   2.327  10.694  0.0576 -0.0260 -0.0777
  529loPI   PO4 8452  17.030   2.903  10.638 -0.1784  0.1594  0.2005
  529loPI   GL1 8453  16.920   3.039  10.221 -0.1923 -0.0356 -0.1055
  529loPI   GL2 8454  17.056   3.288  10.052  0.1141 -0.0274  0.0069
  529loPI   C1A 8455  16.519   3.026   9.877 -0.0152  0.2067  0.0776
  529loPI   C2A 8456  16.347   2.977   9.586 -0.0625  0.0693 -0.1491
  529loPI   C3A 8457  16.424   2.894   9.160 -0.0899 -0.2034 -0.1121
  529loPI   C4A 8458  16.397   2.966   8.714  0.0908  0.0568 -0.0510
  529loPI   C5A 8459  16.409   3.010   8.275 -0.0367  0.1467  0.0998
  529loPI   C6A 8460  16.520   2.868   7.971 -0.0273  0.0878  0.1770
  529loPI   C1B 8461  16.976   3.122   9.656 -0.0842 -0.0398 -0.1536
  529loPI   C2B 8462  16.983   3.073   9.250  0.0864  0.2978  0.0708
  529loPI   C3B 8463  16.872   3.127   8.820 -0.3390  0.2737  0.1720
  529loPI   C4B 8464  16.886   3.083   8.354 -0.0006 -0.0454 -0.1227
  530loPI    C1 8465   5.022   0.711  11.353 -0.1413  0.1174 -0.0584
  530loPI    C2 8466   5.373   0.898  11.392  0.0269 -0.2044  0.0122
  530loPI    C3 8467   5.117   0.888  11.699 -0.0657  0.0662 -0.0527
  530loPI   PO4 8468   4.893   0.635  11.106  0.0184 -0.0322  0.3160
  530loPI   GL1 8469   4.944   0.607  10.569  0.2511  0.0377 -0.0389
  530loPI   GL2 8470   4.803   0.905  10.418 -0.2785  0.2677 -0.0281
  530loPI   C1A 8471   5.102   0.512  10.226  0.1935  0.0151  0.2456
  530loPI   C2A 8472   5.030   0.564   9.779  0.0934 -0.2658  0.2651
  530loPI   C3A 8473   5.113   0.547   9.320 -0.2304 -0.2081  0.2375
  530loPI   C4A 8474   5.195   0.500   8.916 -0.3478 -0.1532 -0.0637
  530loPI   C5A 8475   5.121   0.408   8.488 -0.1558 -0.0342  0.3316
  530loPI   C6A 8476   4.867   0.594   8.173  0.0537 -0.3852 -0.1269
  530loPI   C1B 8477   4.869   0.999   9.908 -0.0426 -0.3480  0.0154
  530loPI   C2B 8478   4.824   0.919   9.493  0.0876  0.4508 -0.0118
  530loPI   C3B 8479   4.691   0.914   9.078  0.0310  0.1228  0.0872
  530loPI   C4B 8480   4.907   0.837   8.655 -0.3351 -0.2174  0.3318
  531loPI    C1 8481   2.137   7.821  10.120 -0.0804  0.0010 -0.0777
  531loPI    C2 8482   1.839   7.654  10.328 -0.2646  0.2051 -0.1734
  531loPI    C3 8483   2.110   7.881  10.515 -0.1203 -0.0460 -0.0731
  531loPI   PO4 8484   2.336   7.631   9.942  0.3001 -0.2065  0.1896
  531loPI   GL1 8485   2.561   7.575   9.543 -0.3132  0.0588  0.0938
  531loPI   GL2 8486   2.636   7.802   9.435 -0.0740  0.2276  0.2496
  531loPI   C1A 8487   2.487   7.196   9.232  0.0094 -0.0878  0.0592
  531loPI   C2A 8488   2.584   7.045   8.794  0.1053  0.0364  0.0471
  531loPI   C3A 8489   2.565   7.197   8.379  0.2567  0.0699  0.0519
  531loPI   C4A 8490   2.287   7.366   7.955  0.0339  0.0021  0.0585
  531loPI   C5A 8491   2.016   7.199   7.718 -0.0192 -0.1905  0.1022
  531loPI   C6A 8492   1.706   6.916   7.741 -0.1316 -0.0837  0.3293
  531loPI   C1B 8493   2.502   7.625   8.984  0.0298  0.0194 -0.0716
  531loPI   C2B 8494   2.289   7.521   8.637  0.1696  0.1913  0.1091
  531loPI   C3B 8495   1.984   7.497   8.356 -0.1543 -0.1300  0.0600
  531loPI   C4B 8496   1.791   7.322   8.127  0.1372 -0.0785 -0.0077
  532loPI    C1 8497   8.297   6.556  10.778 -0.3073 -0.0682 -0.0422
  532loPI    C2 8498   8.557   6.365  11.015 -0.2416 -0.0607 -0.1079
  532loPI    C3 8499   8.260   6.579  11.176 -0.2676 -0.1521 -0.0332
  532loPI   PO4 8500   8.314   6.417  10.578  0.1563  0.1747 -0.0369
  532loPI   GL1 8501   8.293   6.400  10.209 -0.3350  0.2494 -0.0267
  532loPI   GL2 8502   8.250   6.142  10.056  0.1642 -0.0060 -0.1944
  532loPI   C1A 8503   8.342   6.545   9.778 -0.0880  0.0796  0.0948
  532loPI   C2A 8504   8.508   6.549   9.449 -0.3290  0.1210  0.2335
  532loPI   C3A 8505   8.532   6.450   9.004 -0.0352  0.1381  0.1258
  532loPI   C4A 8506   8.522   6.392   8.561 -0.0059 -0.3865 -0.0508
  532loPI   C5A 8507   8.578   6.400   8.188 -0.1144  0.3664  0.1368
  532loPI   C6A 8508   8.283   6.152   7.828 -0.0078  0.3298  0.1053
  532loPI   C1B 8509   8.377   6.101   9.608 -0.1036 -0.2664  0.0505
  532loPI   C2B 8510   8.321   6.016   9.160 -0.1122 -0.1499  0.0177
  532loPI   C3B 8511   8.315   5.993   8.779 -0.3110  0.1258 -0.0212
  532loPI   C4B 8512   8.315   5.881   8.388 -0.0307  0.0320  0.6056
  533loPI    C1 8513  16.630  13.926  10.688  0.0547 -0.1054 -0.1346
  533loPI    C2 8514  16.401  14.214  10.844 -0.1429 -0.2067 -0.2344
  533loPI    C3 8515  16.623  13.984  11.084 -0.1440 -0.1070 -0.1369
  533loPI   PO4 8516  16.448  13.770  10.539 -0.3064 -0.1437  0.1620
  533loPI   GL1 8517  16.290  13.732  10.222 -0.1852 -0.0188 -0.0076
  533loPI   GL2 8518  16.551  13.881  10.024 -0.1888  0.1444 -0.0563
  533loPI   C1A 8519  16.246  13.380   9.914  0.0344  0.0110  0.1507
  533loPI   C2A 8520  16.097  13.425   9.527  0.1583  0.4326  0.3122
  533loPI   C3A 8521  16.107  13.430   9.104  0.2434  0.0966 -0.1425
  533loPI   C4A 8522  16.141  13.418   8.727 -0.1724 -0.2299 -0.1934
  533loPI   C5A 8523  16.128  13.474   8.240 -0.0983  0.2540  0.1888
  533loPI   C6A 8524  16.465  13.642   7.985 -0.3130 -0.1360  0.0124
  533loPI   C1B 8525  16.359  13.938   9.676  0.1922  0.2479  0.0809
  533loPI   C2B 8526  16.352  13.824   9.332  0.0536  0.0407  0.2945
  533loPI   C3B 8527  16.456  13.875   8.901  0.1142 -0.0122 -0.1320
  533loPI   C4B 8528  16.410  13.799   8.544  0.1732  0.1883 -0.1045
  534loPI    C1 8529  10.763  13.381  11.043  0.0138 -0.2261 -0.0148
  534loPI    C2 8530  10.899  13.412  11.418 -0.0087  0.1638 -0.0349
  534loPI    C3 8531  10.506  13.408  11.348 -0.0044  0.1281 -0.0569
  534loPI   PO4 8532  10.839  13.574  10.867 -0.0161  0.1286 -0.0676
  534loPI   GL1 8533  10.827  13.567  10.459  0.1628 -0.0233 -0.2538
  534loPI   GL2 8534  11.069  13.461  10.204  0.1059  0.3045  0.0417
  534loPI   C1A 8535  10.424  13.660  10.284 -0.1930 -0.5571 -0.0066
  534loPI   C2A 8536  10.153  13.572   9.977  0.1593  0.3050  0.2129
  534loPI   C3A 8537  10.228  13.465   9.541 -0.0673 -0.0170  0.0348
  534loPI   C4A 8538  10.305  13.534   9.146 -0.2162 -0.4561  0.0067
  534loPI   C5A 8539  10.195  13.476   8.733  0.1856  0.2338  0.2541
  534loPI   C6A 8540  10.035  13.366   8.330 -0.1965 -0.1222  0.1351
  534loPI   C1B 8541  10.749  13.653   9.857  0.2617  0.0434 -0.4803
  534loPI   C2B 8542  10.807  13.659   9.420 -0.0987  0.3730 -0.0991
  534loPI   C3B 8543  10.774  13.663   8.961  0.2137  0.1894  0.1125
  534loPI   C4B 8544  10.831  13.728   8.552 -0.1558  0.2463 -0.1187
  535loPI    C1 8545  13.406   8.932  10.511 -0.2398  0.1630  0.0228
  535loPI    C2 8546  13.406   9.126  10.861  0.4815  0.1999  0.0175
  535loPI    C3 8547  13.272   8.750  10.840  0.1269  0.3079  0.2589
  535loPI   PO4 8548  13.612   9.016  10.457 -0.5291  0.1650 -0.1584
  535loPI   GL1 8549  13.799   9.166  10.171  0.0929  0.1207 -0.0294
  535loPI   GL2 8550  13.934   8.930   9.946 -0.2491  0.2103  0.2106
  535loPI   C1A 8551  13.984   9.418   9.878  0.2036 -0.2362  0.2307
  535loPI   C2A 8552  14.142   9.364   9.469  0.0716 -0.1552 -0.2997
  535loPI   C3A 8553  14.078   9.568   9.073  0.0443 -0.0366  0.3294
  535loPI   C4A 8554  13.995   9.550   8.627  0.1269  0.0456 -0.2164
  535loPI   C5A 8555  14.090   9.759   8.237 -0.0057  0.2943 -0.0776
  535loPI   C6A 8556  13.974  10.170   7.947 -0.2315  0.1206  0.0831
  535loPI   C1B 8557  13.875   8.955   9.503 -0.0307 -0.2288  0.0861
  535loPI   C2B 8558  13.942   9.027   9.137 -0.5164 -0.1597 -0.1822
  535loPI   C3B 8559  13.933   9.112   8.808 -0.1938  0.2264  0.3841
  535loPI   C4B 8560  13.970   9.072   8.401  0.0480  0.2926  0.0400
  536loPI    C1 8561   2.617   9.978  10.450  0.1946 -0.0260 -0.2146
  536loPI    C2 8562   2.555   9.788  10.796 -0.2239 -0.0571 -0.3007
  536loPI    C3 8563   2.532  10.187  10.780 -0.1412 -0.0514 -0.2810
  536loPI   PO4 8564   2.500   9.873  10.202 -0.1024  0.0709  0.0610
  536loPI   GL1 8565   2.422   9.946   9.757 -0.0014  0.3486  0.4030
  536loPI   GL2 8566   2.557  10.121   9.647 -0.0034  0.0116 -0.0834
  536loPI   C1A 8567   2.213   9.757   9.290 -0.3449 -0.3887 -0.0263
  536loPI   C2A 8568   2.155   9.875   8.791  0.1227  0.2357  0.0507
  536loPI   C3A 8569   2.054   9.698   8.405 -0.1687  0.2321  0.1016
  536loPI   C4A 8570   1.934   9.832   8.067 -0.1361 -0.1773  0.1359
  536loPI   C5A 8571   2.264   9.981   7.709  0.2836  0.5892 -0.0753
  536loPI   C6A 8572   2.603  10.087   7.365 -0.1735 -0.1065 -0.1281
  536loPI   C1B 8573   2.710  10.045   9.353 -0.0474 -0.1042 -0.1399
  536loPI   C2B 8574   2.644   9.861   8.986  0.2300 -0.1539 -0.1574
  536loPI   C3B 8575   2.683   9.753   8.613 -0.2451  0.1395  0.0513
  536loPI   C4B 8576   2.964   9.726   8.351  0.0292  0.3599  0.0997
  537loPI    C1 8577  16.624   4.329  10.673  0.5233 -0.1334  0.1311
  537loPI    C2 8578  16.434   4.554  10.944 -0.1182 -0.0428 -0.3714
  537loPI    C3 8579  16.476   4.161  11.005  0.0474  0.0297  0.0090
  537loPI   PO4 8580  16.641   4.488  10.363  0.0031  0.0719 -0.3921
  537loPI   GL1 8581  16.448   4.602   9.985  0.1011 -0.1043 -0.2198
  537loPI   GL2 8582  16.199   4.790  10.028 -0.2915 -0.1389 -0.1026
  537loPI   C1A 8583  16.365   4.504   9.624 -0.1944 -0.1401  0.2552
  537loPI   C2A 8584  16.140   4.699   9.402 -0.0702  0.3015 -0.0035
  537loPI   C3A 8585  16.146   4.786   8.993 -0.2728  0.0475  0.1546
  537loPI   C4A 8586  16.131   4.786   8.583 -0.2573  0.1684  0.0523
  537loPI   C5A 8587  15.853   4.788   8.249 -0.0685  0.0567  0.0322
  537loPI   C6A 8588  15.713   4.694   7.849 -0.1487  0.2531  0.0059
  537loPI   C1B 8589  15.907   4.995   9.850 -0.0671  0.0234  0.3061
  537loPI   C2B 8590  15.844   5.090   9.447 -0.0606 -0.3535 -0.0232
  537loPI   C3B 8591  15.787   5.149   9.061 -0.0769  0.2990 -0.2496
  537loPI   C4B 8592  15.744   5.143   8.721  0.0130  0.0505 -0.1023
  538loPI    C1 8593   4.835  10.622  10.369  0.1175  0.2285  0.1688
  538loPI    C2 8594   5.071  10.303  10.419 -0.3060 -0.1252 -0.0266
  538loPI    C3 8595   4.985  10.538  10.731  0.3207  0.0326  0.0417
  538loPI   PO4 8596   4.977  10.768  10.224  0.0248 -0.4265 -0.0553
  538loPI   GL1 8597   5.084  10.944   9.847 -0.1665  0.1352 -0.0111
  538loPI   GL2 8598   5.409  10.878   9.769 -0.1108 -0.1091 -0.1022
  538loPI   C1A 8599   4.922  10.976   9.495 -0.0267  0.0080 -0.0107
  538loPI   C2A 8600   4.860  11.077   9.049 -0.0784  0.0424 -0.4649
  538loPI   C3A 8601   5.135  11.048   8.643 -0.0740 -0.0358  0.0748
  538loPI   C4A 8602   5.462  11.135   8.408  0.2946  0.1000 -0.0586
  538loPI   C5A 8603   5.485  11.331   7.989  0.1087 -0.4381  0.0556
  538loPI   C6A 8604   5.336  11.416   7.671 -0.1435  0.1541 -0.3654
  538loPI   C1B 8605   5.349  11.019   9.292 -0.3755  0.2251  0.1984
  538loPI   C2B 8606   5.511  11.166   8.966  0.1193 -0.1949  0.1439
  538loPI   C3B 8607   5.923  11.329   8.726  0.0426  0.0156  0.0233
  538loPI   C4B 8608   5.922  11.356   8.321  0.0217  0.0479 -0.0372
  539loPI    C1 8609  14.698  12.147  11.094 -0.0261 -0.0817  0.0092
  539loPI    C2 8610  15.024  12.097  11.320 -0.1325 -0.0231  0.1774
  539loPI    C3 8611  14.662  12.107  11.490 -0.2149  0.0090  0.0023
  539loPI   PO4 8612  14.870  12.142  10.813 -0.1285  0.1014 -0.1192
  539loPI   GL1 8613  15.041  12.152  10.388 -0.0315  0.2596 -0.1061
  539loPI   GL2 8614  14.770  12.257  10.313 -0.0265 -0.1924 -0.2093
  539loPI   C1A 8615  15.245  12.318  10.013  0.0636 -0.2272 -0.1715
  539loPI   C2A 8616  15.230  12.427   9.539  0.2287 -0.1553  0.4107
  539loPI   C3A 8617  15.212  12.449   9.120 -0.4758 -0.3698  0.2726
  539loPI   C4A 8618  15.178  12.519   8.703  0.1283  0.3161 -0.0954
  539loPI   C5A 8619  15.530  12.490   8.299 -0.0329  0.1766 -0.0323
  539loPI   C6A 8620  15.467  12.696   7.882  0.1587  0.0569  0.1035
  539loPI   C1B 8621  14.754  12.340   9.852 -0.1118 -0.2858  0.0087
  539loPI   C2B 8622  14.720  12.418   9.289 -0.1356 -0.4661 -0.2043
  539loPI   C3B 8623  14.726  12.392   8.837 -0.2996 -0.0751 -0.3302
  539loPI   C4B 8624  14.510  12.480   8.413  0.2359 -0.0192 -0.2991
  540loPI    C1 8625   3.514  13.770  10.763 -0.2104  0.0137 -0.1015
  540loPI    C2 8626   3.355  13.410  10.832 -0.2433  0.0518  0.0261
  540loPI    C3 8627   3.413  13.663  11.135 -0.1163  0.1117 -0.0473
  540loPI   PO4 8628   3.628  13.703  10.551 -0.2663  0.1379  0.1100
  540loPI   GL1 8629   3.531  13.934  10.236 -0.0942 -0.0046  0.4006
  540loPI   GL2 8630   3.399  14.296  10.090  0.4166 -0.2685  0.0120
  540loPI   C1A 8631   3.575  13.926   9.776  0.0939  0.1092 -0.0754
  540loPI   C2A 8632   3.504  14.032   9.325 -0.2942 -0.0512 -0.1811
  540loPI   C3A 8633   3.545  14.165   8.913 -0.1910  0.0408 -0.0244
  540loPI   C4A 8634   3.710  14.182   8.493  0.0297  0.1792 -0.0534
  540loPI   C5A 8635   3.742  14.543   8.150 -0.3564 -0.0919 -0.2323
  540loPI   C6A 8636   3.798  14.522   7.801  0.2635  0.0263 -0.0008
  540loPI   C1B 8637   3.316  14.306   9.674  0.0632  0.0956 -0.2020
  540loPI   C2B 8638   3.250  14.466   9.272  0.2093  0.0121  0.0965
  540loPI   C3B 8639   3.281  14.558   8.864  0.0477 -0.0946 -0.1391
  540loPI   C4B 8640   3.311  14.478   8.423 -0.0933  0.0110  0.1001
  541loPI    C1 8641  12.761  16.672  11.306 -0.0561  0.0413 -0.0128
  541loPI    C2 8642  12.911  16.338  11.467 -0.3317 -0.0948 -0.0334
  541loPI    C3 8643  12.677  16.577  11.685 -0.1793  0.0582 -0.0358
  541loPI   PO4 8644  12.582  16.640  11.076  0.0616  0.0706 -0.1849
  541loPI   GL1 8645  12.749  16.637  10.632  0.4585  0.1077  0.1731
  541loPI   GL2 8646  13.006  16.777  10.748 -0.0372  0.0319 -0.0366
  541loPI   C1A 8647  12.638  16.638  10.223  0.0948  0.2590  0.1661
  541loPI   C2A 8648  12.504  16.582   9.725  0.1414  0.2991 -0.0952
  541loPI   C3A 8649  12.545  16.641   9.316 -0.0252  0.0949 -0.0953
  541loPI   C4A 8650  12.426  16.677   8.837  0.1734 -0.1085  0.1929
  541loPI   C5A 8651  12.288  16.688   8.375  0.0767 -0.1315 -0.3464
  541loPI   C6A 8652  12.020  16.734   8.060 -0.2050  0.0247  0.0744
  541loPI   C1B 8653  13.113  16.738  10.293 -0.1575 -0.0676 -0.0356
  541loPI   C2B 8654  13.069  16.705   9.780  0.0930 -0.2957 -0.0935
  541loPI   C3B 8655  13.065  16.800   9.352 -0.1146 -0.0814 -0.1549
  541loPI   C4B 8656  13.089  16.742   8.991 -0.1488  0.0819 -0.0250
  542loPI    C1 8657   4.345  17.668  11.243 -0.1532 -0.0302  0.1383
  542loPI    C2 8658   4.462  18.026  11.378 -0.3213  0.0652  0.0359
  542loPI    C3 8659   4.735  17.754  11.269 -0.1921  0.1484  0.1478
  542loPI   PO4 8660   4.255  17.716  10.970  0.0772  0.0947  0.1155
  542loPI   GL1 8661   4.245  17.701  10.528 -0.0317  0.1312  0.1112
  542loPI   GL2 8662   4.335  17.431  10.357  0.1360  0.0061 -0.1237
  542loPI   C1A 8663   4.550  17.821  10.181  0.0859 -0.0126 -0.2137
  542loPI   C2A 8664   4.625  17.844   9.752  0.0838 -0.2280 -0.1123
  542loPI   C3A 8665   4.717  17.840   9.341  0.2180 -0.1622  0.2168
  542loPI   C4A 8666   4.687  17.822   8.836 -0.4152 -0.1924  0.1275
  542loPI   C5A 8667   4.944  17.840   8.372  0.0327 -0.2971  0.1550
  542loPI   C6A 8668   5.307  17.688   8.328 -0.3571 -0.0311 -0.1804
  542loPI   C1B 8669   4.419  17.442   9.898 -0.2458  0.0905 -0.3265
  542loPI   C2B 8670   4.542  17.409   9.538 -0.0616 -0.3496  0.1451
  542loPI   C3B 8671   4.509  17.374   9.111 -0.0121 -0.5044  0.4219
  542loPI   C4B 8672   4.540  17.357   8.656 -0.1402  0.0323  0.1083
  543loPI    C1 8673   8.321  13.922  10.874 -0.0423  0.1801  0.1293
  543loPI    C2 8674   8.660  13.890  10.665 -0.0238 -0.0772  0.1949
  543loPI    C3 8675   8.673  13.946  11.061 -0.0587 -0.0021  0.1857
  543loPI   PO4 8676   8.178  13.787  10.579  0.4231  0.0489 -0.0604
  543loPI   GL1 8677   8.326  13.776  10.166 -0.1244 -0.0119 -0.2440
  543loPI   GL2 8678   8.259  13.395  10.174  0.3077 -0.1287  0.1918
  543loPI   C1A 8679   8.389  13.790   9.745  0.1921 -0.4480 -0.2706
  543loPI   C2A 8680   8.433  13.852   9.324 -0.0797 -0.2488 -0.0174
  543loPI   C3A 8681   8.490  13.911   8.836  0.1140  0.0268  0.0678
  543loPI   C4A 8682   8.462  14.037   8.406 -0.0407 -0.0497  0.0815
  543loPI   C5A 8683   8.244  14.396   8.207  0.0306 -0.0234  0.1521
  543loPI   C6A 8684   8.225  14.565   7.923 -0.1130 -0.0229 -0.0765
  543loPI   C1B 8685   8.261  13.318   9.690  0.2638 -0.0937  0.1176
  543loPI   C2B 8686   8.265  13.261   9.294  0.1381 -0.0406  0.1174
  543loPI   C3B 8687   8.214  13.241   8.890 -0.3703  0.1181  0.2568
  543loPI   C4B 8688   8.190  12.878   8.703  0.1702  0.4078 -0.2213
  544loPI    C1 8689   4.937   6.686  10.698  0.1435  0.0668  0.1086
  544loPI    C2 8690   5.141   7.017  10.607  0.3467 -0.0849  0.0054
  544loPI    C3 8691   5.032   6.947  10.986  0.0546  0.2369 -0.0150
  544loPI   PO4 8692   4.827   6.706  10.294  0.2019  0.2741  0.2966
  544loPI   GL1 8693   4.886   6.714   9.877  0.0863  0.1572 -0.2452
  544loPI   GL2 8694   5.170   6.518   9.577 -0.1256 -0.1018  0.1808
  544loPI   C1A 8695   4.715   6.476   9.478 -0.1339  0.0189  0.0115
  544loPI   C2A 8696   4.871   6.079   9.289  0.2456 -0.1638 -0.2457
  544loPI   C3A 8697   4.907   5.968   8.873 -0.4338 -0.3308 -0.0428
  544loPI   C4A 8698   4.977   6.019   8.453 -0.0366  0.1505  0.1840
  544loPI   C5A 8699   5.179   6.388   8.278 -0.1227  0.0760  0.0413
  544loPI   C6A 8700   5.388   6.657   8.051  0.1085  0.3050 -0.1063
  544loPI   C1B 8701   5.050   6.544   9.129  0.2588 -0.0322  0.2195
  544loPI   C2B 8702   5.042   6.600   8.720 -0.2982  0.2293  0.0109
  544loPI   C3B 8703   5.015   6.823   8.309 -0.0158 -0.1162  0.1037
  544loPI   C4B 8704   4.656   6.907   8.049 -0.4677 -0.1726 -0.3699
  545loPI    C1 8705  12.612  17.093  10.911  0.1368 -0.5597 -0.0139
  545loPI    C2 8706  12.672  17.169  11.299 -0.0136  0.2668 -0.1349
  545loPI    C3 8707  12.310  17.056  11.171  0.0517 -0.0673 -0.0331
  545loPI   PO4 8708  12.762  17.246  10.802 -0.0535  0.1531 -0.0292
  545loPI   GL1 8709  12.802  17.379  10.502  0.0821  0.3158  0.1250
  545loPI   GL2 8710  13.049  17.453  10.374  0.0564 -0.0522 -0.2652
  545loPI   C1A 8711  12.517  17.443  10.219 -0.0923 -0.2515 -0.3825
  545loPI   C2A 8712  12.514  17.517   9.780  0.0696  0.1410 -0.2797
  545loPI   C3A 8713  12.386  17.531   9.466 -0.0237  0.3498 -0.1652
  545loPI   C4A 8714  12.503  17.514   9.079 -0.3234  0.1364 -0.1077
  545loPI   C5A 8715  12.498  17.439   8.728 -0.2340  0.2724  0.0035
  545loPI   C6A 8716  12.658  17.325   8.273  0.0502 -0.1726 -0.3229
  545loPI   C1B 8717  13.014  17.558   9.908 -0.1546 -0.1181  0.0282
  545loPI   C2B 8718  12.906  17.604   9.396 -0.2603 -0.1509  0.0520
  545loPI   C3B 8719  12.987  17.606   8.990 -0.1456  0.1826  0.1454
  545loPI   C4B 8720  12.962  17.635   8.500 -0.0062 -0.0676 -0.1522
  546loPI    C1 8721  16.131   0.392  10.771  0.0440 -0.1077  0.0492
  546loPI    C2 8722  16.436   0.315  11.017  0.0241  0.0315  0.1189
  546loPI    C3 8723  16.090   0.451  11.164 -0.0725 -0.1261  0.0404
  546loPI   PO4 8724  16.151   0.297  10.589  0.4066  0.0703  0.0534
  546loPI   GL1 8725  16.190   0.228  10.173 -0.0076 -0.3597  0.2888
  546loPI   GL2 8726  15.885   0.142  10.114  0.0409  0.1371 -0.2933
  546loPI   C1A 8727  16.003   0.591   9.928  0.0200 -0.1987 -0.1282
  546loPI   C2A 8728  15.908   0.717   9.499  0.0089  0.0203 -0.1294
  546loPI   C3A 8729  15.872   0.602   9.174  0.2210  0.2812 -0.3126
  546loPI   C4A 8730  15.834   0.602   8.747 -0.1403 -0.0867 -0.2766
  546loPI   C5A 8731  15.838   0.739   8.339  0.3164  0.4736 -0.0136
  546loPI   C6A 8732  15.831   0.688   7.907 -0.1216  0.1523  0.2905
  546loPI   C1B 8733  15.778   0.192   9.732 -0.1007  0.0201 -0.1011
  546loPI   C2B 8734  15.660   0.080   9.271  0.1255 -0.1615 -0.0946
  546loPI   C3B 8735  15.654   0.122   8.836 -0.1330  0.0899  0.1124
  546loPI   C4B 8736  15.708   0.258   8.334  0.1255 -0.0274  0.0916
  547loPI    C1 8737  15.669  13.591  11.221  0.3059 -0.0826 -0.0516
  547loPI    C2 8738  15.272  13.594  11.269  0.3125  0.2360  0.0062
  547loPI    C3 8739  15.506  13.420  11.543  0.2013 -0.1742 -0.1524
  547loPI   PO4 8740  15.706  13.405  10.905  0.1730  0.3664  0.0076
  547loPI   GL1 8741  15.892  13.525  10.426  0.2080 -0.3967 -0.1160
  547loPI   GL2 8742  15.817  13.253  10.201 -0.0007 -0.1094  0.1147
  547loPI   C1A 8743  15.816  13.744  10.051  0.2211  0.1256 -0.1676
  547loPI   C2A 8744  15.899  13.862   9.651  0.1035 -0.3098  0.5106
  547loPI   C3A 8745  15.813  13.838   9.239  0.0245  0.1258  0.0651
  547loPI   C4A 8746  15.808  13.781   8.775 -0.1643 -0.2546 -0.0651
  547loPI   C5A 8747  15.770  13.796   8.402 -0.4122  0.1122 -0.3161
  547loPI   C6A 8748  15.673  13.592   7.954  0.2460 -0.0718  0.1349
  547loPI   C1B 8749  15.627  13.373   9.764  0.2514 -0.1039 -0.0744
  547loPI   C2B 8750  15.565  13.470   9.442  0.0717  0.2375 -0.0610
  547loPI   C3B 8751  15.606  13.328   9.094  0.3690  0.0537 -0.1405
  547loPI   C4B 8752  15.650  13.387   8.618  0.2477  0.1063 -0.0574
  548loPI    C1 8753  15.914  12.882  10.985  0.0976 -0.0140  0.0196
  548loPI    C2 8754  15.985  12.638  11.295  0.0963 -0.1225 -0.0649
  548loPI    C3 8755  15.815  12.995  11.356  0.1636 -0.1127  0.0678
  548loPI   PO4 8756  16.107  12.830  10.738 -0.0344  0.0080  0.0551
  548loPI   GL1 8757  16.227  12.596  10.338  0.0228  0.0792 -0.0614
  548loPI   GL2 8758  16.474  12.611  10.287  0.1757  0.1209 -0.3070
  548loPI   C1A 8759  16.090  12.812  10.069  0.4084  0.2203  0.3581
  548loPI   C2A 8760  16.062  12.912   9.692  0.1141 -0.5478 -0.2071
  548loPI   C3A 8761  16.067  12.992   9.234 -0.1257  0.2252  0.2692
  548loPI   C4A 8762  15.969  13.016   8.902  0.0179 -0.2683  0.0688
  548loPI   C5A 8763  15.935  12.969   8.476 -0.2165  0.1105 -0.3532
  548loPI   C6A 8764  15.952  12.708   8.125 -0.2641  0.2493  0.1548
  548loPI   C1B 8765  16.481  12.503   9.778 -0.1661  0.0525 -0.2284
  548loPI   C2B 8766  16.379  12.580   9.405 -0.1689  0.1905 -0.2194
  548loPI   C3B 8767  16.291  12.564   8.974  0.3175  0.2416 -0.0211
  548loPI   C4B 8768  16.284  12.600   8.630  0.1102 -0.1567  0.0362
  549loPI    C1 8769   3.802   7.670  10.260 -0.1100  0.0892 -0.0575
  549loPI    C2 8770   3.874   8.014  10.449 -0.2015  0.2647 -0.3364
  549loPI    C3 8771   3.497   7.897  10.384 -0.1755 -0.0510  0.0420
  549loPI   PO4 8772   3.873   7.625  10.027  0.0683 -0.3075  0.1488
  549loPI   GL1 8773   4.153   7.651   9.700  0.0354  0.2601 -0.7304
  549loPI   GL2 8774   4.427   7.371   9.568 -0.0219 -0.0697  0.2886
  549loPI   C1A 8775   4.054   7.568   9.282  0.0014 -0.3098 -0.0430
  549loPI   C2A 8776   3.926   7.387   8.943  0.1790  0.0302  0.1740
  549loPI   C3A 8777   4.048   7.230   8.563 -0.1949 -0.0269  0.1314
  549loPI   C4A 8778   4.243   7.142   8.148  0.1166  0.3682 -0.0637
  549loPI   C5A 8779   4.400   7.349   7.773 -0.0252 -0.0826  0.3478
  549loPI   C6A 8780   4.301   7.328   7.393 -0.1165 -0.0746  0.1117
  549loPI   C1B 8781   4.411   7.275   9.095  0.1487 -0.0786  0.0049
  549loPI   C2B 8782   4.364   7.569   8.812 -0.0416  0.1671 -0.1744
  549loPI   C3B 8783   4.461   7.576   8.336  0.0723 -0.0743 -0.2982
  549loPI   C4B 8784   4.491   7.792   7.985 -0.0567 -0.1173  0.0137
  550loPI    C1 8785  15.171  13.131  10.667  0.3238 -0.0311 -0.0343
  550loPI    C2 8786  15.328  13.470  10.524  0.1742 -0.0222 -0.1807
  550loPI    C3 8787  15.045  13.485  10.806  0.2403 -0.0290 -0.1139
  550loPI   PO4 8788  15.164  13.009  10.538 -0.2079 -0.0234  0.1306
  550loPI   GL1 8789  15.167  13.208  10.108 -0.1711 -0.1509  0.1581
  550loPI   GL2 8790  14.927  13.421  10.215 -0.1823  0.0442 -0.1951
  550loPI   C1A 8791  15.161  13.309   9.710  0.0097 -0.2047  0.1212
  550loPI   C2A 8792  15.099  13.298   9.285 -0.1551 -0.1796  0.4334
  550loPI   C3A 8793  15.135  13.320   8.782  0.3622 -0.0070  0.4224
  550loPI   C4A 8794  15.243  13.455   8.372  0.1969 -0.0103 -0.0082
  550loPI   C5A 8795  15.297  13.842   8.249 -0.1667  0.2096 -0.0504
  550loPI   C6A 8796  15.166  14.051   7.887 -0.0770  0.2236  0.1170
  550loPI   C1B 8797  14.850  13.639   9.880  0.1649  0.1001 -0.3297
  550loPI   C2B 8798  14.832  13.693   9.382 -0.1771  0.1742  0.0139
  550loPI   C3B 8799  14.874  13.767   8.876 -0.0319 -0.1448 -0.2814
  550loPI   C4B 8800  14.818  13.772   8.421  0.0508 -0.2843  0.1596
  551loPI    C1 8801   7.441  12.459  10.914 -0.3366  0.0614  0.1709
  551loPI    C2 8802   7.502  12.068  10.968 -0.0518  0.0920  0.0896
  551loPI    C3 8803   7.422  12.303  11.281 -0.0619 -0.0040  0.1596
  551loPI   PO4 8804   7.326  12.410  10.560 -0.0102  0.0875 -0.0811
  551loPI   GL1 8805   6.961  12.631  10.236 -0.0491 -0.0798 -0.1622
  551loPI   GL2 8806   6.831  12.432  10.388 -0.0305  0.1789 -0.3470
  551loPI   C1A 8807   6.948  12.760   9.772  0.1846 -0.2612 -0.1491
  551loPI   C2A 8808   6.990  12.760   9.346 -0.0248 -0.0427 -0.5146
  551loPI   C3A 8809   7.309  12.723   9.109  0.0826 -0.0983  0.0775
  551loPI   C4A 8810   7.172  12.780   8.625  0.0640 -0.2702  0.1178
  551loPI   C5A 8811   7.367  12.958   8.244 -0.1112  0.0241 -0.0649
  551loPI   C6A 8812   7.704  13.211   7.991 -0.1611 -0.2848 -0.0954
  551loPI   C1B 8813   6.781  12.199   9.976  0.1468 -0.0321  0.3300
  551loPI   C2B 8814   6.764  12.220   9.571 -0.0416  0.1052 -0.0452
  551loPI   C3B 8815   6.841  12.280   9.070  0.1662  0.1008 -0.2666
  551loPI   C4B 8816   6.943  12.261   8.625 -0.0805 -0.0219 -0.1088
  552loPI    C1 8817  13.470   3.501  11.195  0.1155 -0.1960  0.0549
  552loPI    C2 8818  13.127   3.301  11.247  0.0899 -0.1923 -0.0956
  552loPI    C3 8819  13.449   3.206  11.465  0.0600 -0.3554 -0.1216
  552loPI   PO4 8820  13.404   3.480  10.865  0.0292  0.0035  0.1541
  552loPI   GL1 8821  13.150   3.694  10.584 -0.1871 -0.4250 -0.1404
  552loPI   GL2 8822  13.045   3.368  10.536  0.1657 -0.0150 -0.2140
  552loPI   C1A 8823  12.974   3.867  10.223 -0.1268  0.2599  0.0178
  552loPI   C2A 8824  12.892   3.787   9.800  0.0663 -0.1543  0.2677
  552loPI   C3A 8825  12.816   3.862   9.311 -0.0905 -0.1425 -0.0510
  552loPI   C4A 8826  12.773   3.840   8.869 -0.1013 -0.1754 -0.3892
  552loPI   C5A 8827  12.876   3.721   8.427 -0.1714 -0.2468 -0.2480
  552loPI   C6A 8828  12.919   3.295   8.228  0.0847  0.1240  0.2093
  552loPI   C1B 8829  13.190   3.391  10.118  0.2592 -0.0930  0.4079
  552loPI   C2B 8830  13.151   3.303   9.697 -0.0599  0.1457 -0.3633
  552loPI   C3B 8831  13.189   3.419   9.241 -0.1557  0.3124  0.0490
  552loPI   C4B 8832  13.075   3.398   8.881  0.0342 -0.2469 -0.0220
  553loPI    C1 8833   0.851  12.192  10.366 -0.0371 -0.1437  0.0719
  553loPI    C2 8834   0.451  12.179  10.368 -0.0536  0.2565  0.1427
  553loPI    C3 8835   0.655  12.099  10.703 -0.0723  0.0570  0.1079
  553loPI   PO4 8836   0.965  12.333  10.169 -0.2761 -0.0260 -0.0421
  553loPI   GL1 8837   0.975  12.438   9.822  0.1126  0.2991 -0.0670
  553loPI   GL2 8838   1.218  12.553   9.779 -0.1794 -0.1085 -0.0290
  553loPI   C1A 8839   0.866  12.415   9.414 -0.0161  0.1865  0.1063
  553loPI   C2A 8840   0.978  12.630   9.136  0.2629 -0.2166 -0.1753
  553loPI   C3A 8841   0.873  12.578   8.759 -0.0472  0.0991  0.0233
  553loPI   C4A 8842   0.732  12.817   8.283  0.2235 -0.0361 -0.1558
  553loPI   C5A 8843   0.744  13.290   8.158 -0.2414 -0.2463  0.1902
  553loPI   C6A 8844   0.843  13.686   8.149 -0.1566 -0.0352  0.3788
  553loPI   C1B 8845   1.416  12.526   9.351 -0.2094 -0.0930  0.1070
  553loPI   C2B 8846   1.423  12.507   8.985 -0.2559 -0.1305 -0.0645
  553loPI   C3B 8847   1.483  12.421   8.656 -0.4331  0.2368 -0.1097
  553loPI   C4B 8848   1.668  12.537   8.322 -0.1728  0.1940  0.0132
  554loPI    C1 8849  10.861   4.122  11.111 -0.0686  0.3113  0.1835
  554loPI    C2 8850  10.944   4.400  11.387  0.2233  0.1288  0.2847
  554loPI    C3 8851  11.050   4.019  11.449 -0.1087  0.0047  0.1153
  554loPI   PO4 8852  10.989   4.100  10.873  0.3197  0.1471  0.1653
  554loPI   GL1 8853  11.228   4.216  10.471 -0.1225  0.1783  0.2080
  554loPI   GL2 8854  11.494   4.250  10.346 -0.0932 -0.1683  0.1038
  554loPI   C1A 8855  11.038   4.127  10.018  0.0386 -0.1459  0.1235
  554loPI   C2A 8856  10.954   4.096   9.569 -0.1798 -0.1351  0.3037
  554loPI   C3A 8857  10.941   4.056   9.140 -0.3230  0.4947  0.2468
  554loPI   C4A 8858  10.893   4.149   8.725 -0.1047  0.4350  0.3229
  554loPI   C5A 8859  10.887   4.153   8.308  0.1174  0.0841  0.2770
  554loPI   C6A 8860  10.793   4.158   7.890 -0.1489 -0.1146 -0.2116
  554loPI   C1B 8861  11.526   4.173   9.913 -0.1082 -0.0929  0.2563
  554loPI   C2B 8862  11.509   4.122   9.410  0.1181  0.2367  0.3618
  554loPI   C3B 8863  11.404   4.081   8.974  0.3636 -0.2916  0.0711
  554loPI   C4B 8864  11.407   4.150   8.567 -0.0579  0.0769 -0.1758
  555loPI    C1 8865  18.170   6.274  10.755 -0.0640  0.1933  0.0229
  555loPI    C2 8866  18.084   6.070  11.089  0.1194 -0.1150 -0.1136
  555loPI    C3 8867  18.134   6.467  11.103 -0.3563 -0.0577  0.1367
  555loPI   PO4 8868  18.303   6.146  10.596  0.0751 -0.0333 -0.1824
  555loPI   GL1 8869  18.189   6.011  10.171 -0.1136  0.3335 -0.0524
  555loPI   GL2 8870  18.181   5.641  10.228 -0.2124  0.0096  0.1629
  555loPI   C1A 8871  18.119   6.081   9.657 -0.4105  0.2263 -0.0330
  555loPI   C2A 8872  18.153   5.974   9.175 -0.1377  0.2246  0.0976
  555loPI   C3A 8873  18.059   6.006   8.758  0.3114 -0.1537 -0.2784
  555loPI   C4A 8874  18.034   5.976   8.386 -0.0934  0.1147  0.4067
  555loPI   C5A 8875  18.265   5.879   8.076 -0.0362 -0.2054 -0.1091
  555loPI   C6A 8876  18.585   5.964   7.930  0.2312 -0.3765  0.2314
  555loPI   C1B 8877  17.984   5.626   9.865 -0.1031  0.3540 -0.2068
  555loPI   C2B 8878  17.890   5.538   9.423  0.1955 -0.0056 -0.1310
  555loPI   C3B 8879  17.903   5.555   8.912 -0.1808 -0.1167 -0.0358
  555loPI   C4B 8880  17.785   5.507   8.496  0.1072  0.0946 -0.2698
  556loPI    C1 8881  18.019  16.170  10.596  0.0020  0.2088  0.0353
  556loPI    C2 8882  17.686  16.024  10.763  0.0912  0.0336  0.0628
  556loPI    C3 8883  17.760  16.417  10.774 -0.3234  0.1305 -0.3160
  556loPI   PO4 8884  18.023  16.146  10.325 -0.0726  0.3490 -0.0148
  556loPI   GL1 8885  17.872  16.218   9.959 -0.3061 -0.1405  0.0486
  556loPI   GL2 8886  17.572  16.280   9.847  0.0587 -0.1613 -0.0461
  556loPI   C1A 8887  18.179  16.152   9.644 -0.0889  0.0091  0.4973
  556loPI   C2A 8888  18.096  16.095   9.250 -0.0905 -0.0318 -0.0066
  556loPI   C3A 8889  18.146  16.050   8.831  0.1202  0.2802 -0.0800
  556loPI   C4A 8890  17.900  16.214   8.570 -0.0995  0.0844  0.0399
  556loPI   C5A 8891  17.751  16.461   8.257 -0.1524  0.0077 -0.1003
  556loPI   C6A 8892  17.945  16.701   8.100  0.2655 -0.1564  0.0467
  556loPI   C1B 8893  17.547  16.438   9.398 -0.0954 -0.0337 -0.2494
  556loPI   C2B 8894  17.508  16.190   8.960  0.0844  0.1594  0.1616
  556loPI   C3B 8895  17.526  15.859   8.565 -0.1222 -0.0703 -0.0708
  556loPI   C4B 8896  17.601  15.897   8.103 -0.2547  0.0537  0.1527
  557loPI    C1 8897  10.748   6.323  10.897  0.0812 -0.0644  0.1221
  557loPI    C2 8898  11.077   6.522  11.007  0.0221 -0.1169  0.4008
  557loPI    C3 8899  10.807   6.414  11.281 -0.2836  0.0210  0.1609
  557loPI   PO4 8900  10.697   6.370  10.719  0.3099 -0.2764 -0.1276
  557loPI   GL1 8901  10.745   6.495  10.384 -0.3149 -0.0945  0.0603
  557loPI   GL2 8902  10.865   6.216  10.204 -0.0587 -0.1476  0.0207
  557loPI   C1A 8903  10.401   6.328  10.040 -0.1444  0.2137  0.1891
  557loPI   C2A 8904  10.354   6.182   9.571 -0.2784  0.3332  0.0472
  557loPI   C3A 8905  10.374   6.308   9.234  0.0026  0.3125 -0.2189
  557loPI   C4A 8906  10.207   6.371   8.792 -0.0866 -0.0816 -0.1058
  557loPI   C5A 8907  10.438   6.442   8.374  0.3969  0.0233 -0.2494
  557loPI   C6A 8908  10.793   6.536   8.083  0.0904 -0.0474  0.2212
  557loPI   C1B 8909  10.796   6.260   9.710  0.0305  0.2499  0.0172
  557loPI   C2B 8910  10.884   6.183   9.293 -0.2356 -0.3152  0.0054
  557loPI   C3B 8911  10.759   6.370   8.949  0.1652  0.0149  0.0413
  557loPI   C4B 8912  10.927   6.393   8.544  0.2516  0.1732  0.0439
  558loPI    C1 8913  12.171   5.930  11.226 -0.1398  0.0163 -0.1012
  558loPI    C2 8914  12.332   5.989  11.588  0.0957  0.2668 -0.2425
  558loPI    C3 8915  11.936   5.944  11.550  0.1009 -0.1112  0.0825
  558loPI   PO4 8916  12.284   5.778  11.130  0.1729  0.2081 -0.0998
  558loPI   GL1 8917  12.360   5.624  10.675  0.3381 -0.1500 -0.0792
  558loPI   GL2 8918  12.013   5.578  10.540  0.2179  0.1885 -0.1042
  558loPI   C1A 8919  12.559   5.641  10.265  0.2165 -0.2324  0.1357
  558loPI   C2A 8920  12.742   5.567   9.923  0.3274 -0.1042  0.0182
  558loPI   C3A 8921  12.633   5.525   9.387 -0.2000  0.2030 -0.1117
  558loPI   C4A 8922  12.524   5.627   8.924  0.1023 -0.3124  0.3986
  558loPI   C5A 8923  12.542   5.860   8.513 -0.0053  0.1344 -0.2267
  558loPI   C6A 8924  12.828   6.007   8.296 -0.4573  0.0802  0.2827
  558loPI   C1B 8925  12.015   5.546  10.121 -0.5034 -0.0168  0.1694
  558loPI   C2B 8926  11.950   5.533   9.661  0.0656  0.1625 -0.1679
  558loPI   C3B 8927  12.071   5.542   9.179  0.0230 -0.2371  0.0070
  558loPI   C4B 8928  12.085   5.469   8.781  0.3326 -0.1678 -0.0819
  559loPI    C1 8929   1.500   2.226  10.621  0.1033 -0.0561 -0.1093
  559loPI    C2 8930   1.415   2.403  10.969  0.0019  0.0604 -0.1926
  559loPI    C3 8931   1.582   2.040  10.965 -0.1600 -0.0170 -0.0238
  559loPI   PO4 8932   1.342   2.407  10.454 -0.2671  0.3044 -0.2688
  559loPI   GL1 8933   1.340   2.679  10.171  0.3414 -0.1570  0.3661
  559loPI   GL2 8934   1.090   2.712  10.079 -0.1031 -0.0807 -0.1940
  559loPI   C1A 8935   1.618   2.567   9.870 -0.0706 -0.1602  0.0725
  559loPI   C2A 8936   1.691   2.836   9.449  0.0169  0.3157 -0.0598
  559loPI   C3A 8937   1.656   3.048   8.954 -0.1931  0.2905 -0.0985
  559loPI   C4A 8938   1.512   2.993   8.514  0.2536  0.0284 -0.1800
  559loPI   C5A 8939   1.421   3.087   8.164 -0.0479  0.0269  0.0258
  559loPI   C6A 8940   1.640   3.079   7.790  0.1446  0.2332 -0.2077
  559loPI   C1B 8941   1.197   2.749   9.586 -0.1739  0.0659 -0.1244
  559loPI   C2B 8942   1.098   2.858   9.141 -0.0967 -0.4082  0.2823
  559loPI   C3B 8943   1.134   2.772   8.744  0.0410  0.0748  0.0261
  559loPI   C4B 8944   1.379   2.422   8.501 -0.1832 -0.1001  0.0367
  560loPI    C1 8945  17.310   1.685  10.884  0.3676 -0.0187  0.2907
  560loPI    C2 8946  17.108   1.969  11.081 -0.0445 -0.0537 -0.0658
  560loPI    C3 8947  17.035   1.583  11.156  0.4825 -0.0781  0.3854
  560loPI   PO4 8948  17.272   1.721  10.660 -0.0334  0.1181 -0.0730
  560loPI   GL1 8949  17.083   1.951  10.404  0.1808  0.1012  0.0199
  560loPI   GL2 8950  16.732   2.009  10.388 -0.3033 -0.0408 -0.1359
  560loPI   C1A 8951  16.990   1.866   9.950  0.1488  0.0419 -0.2972
  560loPI   C2A 8952  16.832   1.662   9.604 -0.1161  0.0164  0.2143
  560loPI   C3A 8953  16.862   1.654   9.110  0.0610 -0.3932 -0.1708
  560loPI   C4A 8954  16.731   1.635   8.691 -0.1499  0.1622  0.1593
  560loPI   C5A 8955  16.752   1.512   8.320 -0.1679 -0.2047  0.0383
  560loPI   C6A 8956  16.850   1.323   7.900  0.0024  0.3019  0.2164
  560loPI   C1B 8957  16.558   2.170   9.983 -0.0910  0.3749 -0.0890
  560loPI   C2B 8958  16.647   2.219   9.608 -0.1263  0.1443  0.3216
  560loPI   C3B 8959  16.541   2.066   9.318 -0.0905  0.2438  0.2263
  560loPI   C4B 8960  16.626   2.062   8.884  0.1920 -0.0532 -0.0817
  561loPI    C1 8961  18.239   3.926  10.829 -0.1748 -0.1150 -0.0737
  561loPI    C2 8962  18.060   3.572  10.880 -0.2018 -0.0936 -0.0189
  561loPI    C3 8963  18.054   3.844  11.174 -0.0651 -0.0991 -0.0105
  561loPI   PO4 8964  18.220   4.041  10.678  0.1994  0.2624  0.0531
  561loPI   GL1 8965  17.927   4.020  10.314 -0.0793 -0.2187 -0.0373
  561loPI   GL2 8966  17.968   3.609  10.366  0.1048  0.0936  0.0940
  561loPI   C1A 8967  17.975   4.217  10.029  0.1837  0.0485 -0.2632
  561loPI   C2A 8968  17.861   4.198   9.604 -0.0544  0.0956  0.3185
  561loPI   C3A 8969  17.748   4.108   9.170  0.1284 -0.0604  0.2012
  561loPI   C4A 8970  17.942   4.083   8.796 -0.1122  0.1708 -0.2976
  561loPI   C5A 8971  17.845   4.044   8.359 -0.0059 -0.3526  0.2284
  561loPI   C6A 8972  17.558   3.967   8.043 -0.0753  0.1600  0.2550
  561loPI   C1B 8973  17.852   3.748   9.871  0.0723 -0.1209 -0.2822
  561loPI   C2B 8974  17.671   3.682   9.462  0.0486  0.1342  0.2178
  561loPI   C3B 8975  17.540   3.660   8.984 -0.1581 -0.2130 -0.0958
  561loPI   C4B 8976  17.630   3.602   8.600  0.0312  0.1982 -0.0722
  562loPI    C1 8977  14.708   7.776  11.011  0.1777 -0.0431  0.1452
  562loPI    C2 8978  14.420   7.702  11.278  0.0534 -0.0091  0.0221
  562loPI    C3 8979  14.794   7.577  11.347  0.0022 -0.0856  0.1657
  562loPI   PO4 8980  14.570   7.820  10.731 -0.1893 -0.0918 -0.0176
  562loPI   GL1 8981  14.517   7.832  10.349 -0.0895 -0.1120  0.0257
  562loPI   GL2 8982  14.585   8.044  10.213  0.2513  0.0231 -0.0356
  562loPI   C1A 8983  14.508   7.723   9.902 -0.4582 -0.0066 -0.0230
  562loPI   C2A 8984  14.420   7.688   9.482 -0.1746 -0.2866  0.0132
  562loPI   C3A 8985  14.379   7.694   8.988  0.4123  0.0991 -0.1263
  562loPI   C4A 8986  14.304   7.755   8.603 -0.0245 -0.1215  0.3230
  562loPI   C5A 8987  14.344   7.492   8.197 -0.2781 -0.1189  0.2438
  562loPI   C6A 8988  14.814   7.423   8.012  0.0671 -0.0200 -0.0660
  562loPI   C1B 8989  14.514   8.173   9.773  0.1983 -0.1883 -0.0521
  562loPI   C2B 8990  14.614   8.156   9.320  0.2717  0.0811 -0.0308
  562loPI   C3B 8991  14.618   8.148   8.870  0.1380 -0.0253 -0.1291
  562loPI   C4B 8992  14.650   8.033   8.463  0.0127  0.0659  0.0680
  563loPI    C1 8993  13.078   9.854  10.682  0.1859 -0.1759 -0.1273
  563loPI    C2 8994  12.782   9.620  10.815  0.0153  0.0998 -0.0136
  563loPI    C3 8995  13.160   9.542  10.919 -0.0261 -0.1933 -0.0748
  563loPI   PO4 8996  13.077   9.855  10.444 -0.3083  0.1476  0.0979
  563loPI   GL1 8997  13.027   9.580  10.046  0.1779 -0.0937  0.0046
  563loPI   GL2 8998  12.965   9.834   9.841  0.0453  0.0283  0.1642
  563loPI   C1A 8999  13.025   9.295   9.681  0.1838 -0.0883  0.1971
  563loPI   C2A 9000  13.084   9.339   9.229  0.3093  0.1575 -0.0785
  563loPI   C3A 9001  12.928   9.463   8.877  0.0948  0.1109  0.3151
  563loPI   C4A 9002  13.057   9.314   8.466 -0.1796  0.3315 -0.0618
  563loPI   C5A 9003  13.089   9.313   8.023  0.1532 -0.1224 -0.0296
  563loPI   C6A 9004  13.494   9.266   7.853 -0.2628  0.4412  0.0018
  563loPI   C1B 9005  13.259   9.787   9.447  0.1801  0.2409  0.1372
  563loPI   C2B 9006  13.242   9.871   9.019  0.0515 -0.0712  0.0429
  563loPI   C3B 9007  13.090   9.931   8.673  0.1317 -0.0491 -0.0805
  563loPI   C4B 9008  13.206   9.889   8.351 -0.0573  0.2224  0.1601
  564loPI    C1 9009   0.737   6.804  10.229 -0.1328  0.0970  0.0291
  564loPI    C2 9010   0.977   7.013  10.471 -0.1991  0.1382  0.0595
  564loPI    C3 9011   0.605   7.142  10.398 -0.2601  0.0014  0.1241
  564loPI   PO4 9012   0.841   6.575  10.323  0.0488 -0.3991 -0.0810
  564loPI   GL1 9013   0.688   6.202  10.019 -0.0224 -0.0063  0.1061
  564loPI   GL2 9014   0.720   5.845  10.007  0.0677  0.1304  0.5305
  564loPI   C1A 9015   0.411   6.157   9.570  0.1311  0.2403  0.0237
  564loPI   C2A 9016   0.385   6.032   9.159  0.0576  0.0700 -0.1505
  564loPI   C3A 9017   0.331   6.101   8.778  0.0203 -0.2253 -0.1147
  564loPI   C4A 9018   0.278   6.119   8.428 -0.2546  0.3803 -0.3124
  564loPI   C5A 9019   0.153   6.394   8.089 -0.1838  0.0358  0.1193
  564loPI   C6A 9020   0.511   6.562   7.954  0.0479  0.1316  0.1287
  564loPI   C1B 9021   0.719   5.683   9.571  0.2711 -0.0933  0.0997
  564loPI   C2B 9022   0.764   5.666   9.168  0.0226  0.0787  0.1830
  564loPI   C3B 9023   0.622   5.698   8.768  0.0100  0.1031  0.2266
  564loPI   C4B 9024   0.648   5.624   8.298 -0.0740 -0.1138 -0.4802
  565loPI    C1 9025   1.728  17.810  10.915  0.0604  0.1226  0.1893
  565loPI    C2 9026   1.340  17.906  10.890  0.0245 -0.0827 -0.0935
  565loPI    C3 9027   1.450  17.560  11.058  0.0877 -0.0152  0.0050
  565loPI   PO4 9028   1.909  17.741  10.649  0.2142  0.1305  0.1028
  565loPI   GL1 9029   1.799  17.561  10.231 -0.1009 -0.0137  0.2610
  565loPI   GL2 9030   1.590  17.300  10.036 -0.1240 -0.3600 -0.0674
  565loPI   C1A 9031   1.759  17.596   9.692 -0.0822  0.0392 -0.2461
  565loPI   C2A 9032   1.966  17.558   9.231 -0.3773  0.3281  0.0339
  565loPI   C3A 9033   2.116  17.567   8.834  0.4999  0.3564  0.0592
  565loPI   C4A 9034   2.549  17.757   8.723 -0.2209  0.1461  0.1130
  565loPI   C5A 9035   2.684  17.680   8.297 -0.0985 -0.4104 -0.2654
  565loPI   C6A 9036   2.847  17.451   7.973 -0.0554  0.0798 -0.3514
  565loPI   C1B 9037   1.943  17.144   9.784 -0.0919 -0.0104  0.5348
  565loPI   C2B 9038   1.945  17.104   9.358 -0.1205  0.1793  0.0445
  565loPI   C3B 9039   2.008  17.032   8.920 -0.2627 -0.2004 -0.0538
  565loPI   C4B 9040   1.990  17.103   8.456 -0.0196 -0.0976  0.3901
  566loPI    C1 9041  17.890   6.757  10.634 -0.0572  0.0257 -0.2143
  566loPI    C2 9042  17.709   6.745  10.991  0.1860 -0.1698 -0.0943
  566loPI    C3 9043  18.017   6.993  10.931  0.0835 -0.0665 -0.2004
  566loPI   PO4 9044  17.736   6.908  10.424 -0.1176 -0.0339  0.0628
  566loPI   GL1 9045  17.468   6.699  10.168 -0.0173 -0.0489 -0.0833
  566loPI   GL2 9046  17.686   6.868   9.969  0.1691  0.0688  0.1782
  566loPI   C1A 9047  17.479   6.408   9.889 -0.1465  0.0213  0.1733
  566loPI   C2A 9048  17.230   6.355   9.508 -0.0796  0.1759  0.3564
  566loPI   C3A 9049  17.221   6.260   9.028 -0.0998 -0.1582  0.2330
  566loPI   C4A 9050  17.184   6.276   8.608 -0.0385  0.1306  0.1489
  566loPI   C5A 9051  17.036   6.271   8.173  0.2210 -0.2635 -0.0981
  566loPI   C6A 9052  16.810   6.379   7.765 -0.2385 -0.0360  0.1086
  566loPI   C1B 9053  17.525   6.825   9.603  0.1687  0.3072  0.0783
  566loPI   C2B 9054  17.349   6.708   9.225 -0.0180  0.0995  0.1025
  566loPI   C3B 9055  17.400   6.761   8.808 -0.1233  0.0573  0.0065
  566loPI   C4B 9056  17.436   6.667   8.317 -0.1847 -0.1017  0.0126
  567loPI    C1 9057   2.384  14.549  10.603  0.1985  0.0241  0.0006
  567loPI    C2 9058   2.660  14.700  10.850  0.1149  0.1374  0.0257
  567loPI    C3 9059   2.282  14.656  10.974  0.1284 -0.0521  0.0036
  567loPI   PO4 9060   2.374  14.778  10.411  0.3247  0.0341 -0.0925
  567loPI   GL1 9061   2.574  14.815  10.030  0.3346  0.1560  0.2071
  567loPI   GL2 9062   2.927  14.897   9.940 -0.2287 -0.1792 -0.3357
  567loPI   C1A 9063   2.466  14.976   9.563 -0.2967  0.0071 -0.2416
  567loPI   C2A 9064   2.489  14.841   9.191  0.0693 -0.0596  0.3524
  567loPI   C3A 9065   2.424  14.858   8.791  0.2116  0.1415 -0.0409
  567loPI   C4A 9066   2.509  14.823   8.429  0.2076  0.0750 -0.0785
  567loPI   C5A 9067   2.574  14.557   8.124 -0.4529 -0.0206  0.0497
  567loPI   C6A 9068   2.458  14.161   7.896 -0.0845  0.3482  0.2602
  567loPI   C1B 9069   2.946  14.838   9.448 -0.1638 -0.0711 -0.1831
  567loPI   C2B 9070   2.997  14.943   8.989  0.1566 -0.3328 -0.5353
  567loPI   C3B 9071   2.953  14.846   8.612 -0.2463 -0.3006 -0.2847
  567loPI   C4B 9072   2.911  14.931   8.177  0.0338  0.0728 -0.0842
  568loPI    C1 9073   2.547   2.637  10.816 -0.0221  0.1463  0.0615
  568loPI    C2 9074   2.919   2.765  10.886 -0.0484  0.2559  0.0029
  568loPI    C3 9075   2.678   2.675  11.192  0.1823 -0.2752  0.0388
  568loPI   PO4 9076   2.597   2.476  10.684 -0.0053 -0.0925 -0.2379
  568loPI   GL1 9077   2.820   2.196  10.362 -0.0760 -0.0395  0.0079
  568loPI   GL2 9078   3.107   2.256  10.273  0.6382 -0.2021 -0.0807
  568loPI   C1A 9079   2.722   1.992   9.933 -0.2146 -0.1851  0.0362
  568loPI   C2A 9080   2.731   1.936   9.487  0.2069  0.0396 -0.1701
  568loPI   C3A 9081   2.563   1.647   9.131 -0.0661 -0.0809  0.0641
  568loPI   C4A 9082   2.561   1.609   8.679  0.3716  0.0238  0.0055
  568loPI   C5A 9083   2.694   1.581   8.274  0.0196  0.1626  0.1834
  568loPI   C6A 9084   3.046   1.166   8.171  0.0078  0.2234 -0.2070
  568loPI   C1B 9085   2.777   2.534   9.975 -0.1330 -0.1139 -0.3657
  568loPI   C2B 9086   2.672   2.410   9.486  0.0477  0.0534 -0.0089
  568loPI   C3B 9087   2.732   2.372   9.058 -0.0492  0.0721 -0.1263
  568loPI   C4B 9088   2.825   2.080   9.016 -0.2182 -0.1817  0.0273
  569loPI    C1 9089  15.652  11.365  10.891 -0.0059  0.1038  0.0924
  569loPI    C2 9090  15.910  11.077  10.996 -0.2161 -0.1100  0.0311
  569loPI    C3 9091  15.699  11.269  11.277  0.1289  0.1843  0.0969
  569loPI   PO4 9092  15.656  11.349  10.551 -0.0137 -0.1480  0.0279
  569loPI   GL1 9093  15.514  11.553  10.266  0.1169  0.1305  0.0753
  569loPI   GL2 9094  15.253  11.683  10.151 -0.0241 -0.2874 -0.1643
  569loPI   C1A 9095  15.564  11.458   9.845 -0.2187 -0.0108 -0.0579
  569loPI   C2A 9096  15.346  11.517   9.545 -0.1852 -0.2869  0.1906
  569loPI   C3A 9097  15.391  11.521   9.190  0.0502  0.0953  0.0173
  569loPI   C4A 9098  15.262  11.596   8.713 -0.1604  0.0438 -0.0180
  569loPI   C5A 9099  15.344  11.653   8.290 -0.3406  0.0753 -0.0239
  569loPI   C6A 9100  15.591  11.743   7.899 -0.1375  0.0005  0.0865
  569loPI   C1B 9101  15.027  11.931   9.752  0.2677  0.1756 -0.0269
  569loPI   C2B 9102  15.086  11.957   9.356 -0.2830 -0.2088 -0.2948
  569loPI   C3B 9103  15.029  12.004   8.851 -0.1148 -0.1630  0.0111
  569loPI   C4B 9104  14.982  11.949   8.409  0.0221  0.2293 -0.1993
  570loPI    C1 9105   0.182   1.099  10.367 -0.3025  0.0785  0.0120
  570loPI    C2 9106   0.327   1.467  10.427  0.1124 -0.0673 -0.0593
  570loPI    C3 9107   0.303   1.210  10.732 -0.2672  0.0448  0.0106
  570loPI   PO4 9108   0.340   0.972  10.214 -0.2069  0.0666 -0.0567
  570loPI   GL1 9109   0.468   0.763   9.827 -0.0627  0.0293 -0.2022
  570loPI   GL2 9110   0.337   0.570   9.669 -0.2955  0.2496  0.1214
  570loPI   C1A 9111   0.280   1.117   9.527  0.1562 -0.1312  0.2800
  570loPI   C2A 9112   0.510   1.272   9.173 -0.2640 -0.2727 -0.1600
  570loPI   C3A 9113   0.496   1.451   8.729 -0.2853  0.0674 -0.2085
  570loPI   C4A 9114   0.615   1.478   8.253 -0.0253 -0.3637  0.1792
  570loPI   C5A 9115   0.595   1.345   7.897 -0.0871 -0.0059  0.3218
  570loPI   C6A 9116   0.562   1.336   7.400  0.0977  0.0408  0.3271
  570loPI   C1B 9117   0.203   0.615   9.189  0.1237 -0.0218  0.2633
  570loPI   C2B 9118   0.208   0.590   8.790 -0.1531  0.1684 -0.3040
  570loPI   C3B 9119   0.005   0.533   8.382 -0.4765 -0.2381  0.0933
  570loPI   C4B 9120  -0.039   0.381   8.025  0.0942  0.0004  0.2082
  571loPI    C1 9121   5.414   7.431  10.619 -0.1210 -0.0594  0.1328
  571loPI    C2 9122   5.558   7.537  10.977 -0.0167  0.1444  0.0329
  571loPI    C3 9123   5.181   7.406  10.943 -0.0559  0.2102  0.2034
  571loPI   PO4 9124   5.369   7.674  10.479  0.0558 -0.0490 -0.0862
  571loPI   GL1 9125   5.569   7.848  10.063  0.2824  0.0326 -0.1097
  571loPI   GL2 9126   5.316   7.841   9.881 -0.0101  0.0727 -0.0038
  571loPI   C1A 9127   5.703   8.282   9.766  0.0392  0.1072  0.0990
  571loPI   C2A 9128   5.838   8.622   9.534 -0.0864  0.1040  0.0337
  571loPI   C3A 9129   5.718   8.526   9.101  0.1363  0.1195 -0.0827
  571loPI   C4A 9130   5.844   8.308   8.751  0.2718 -0.3510 -0.1558
  571loPI   C5A 9131   5.732   8.270   8.270  0.0390  0.1358 -0.0880
  571loPI   C6A 9132   5.811   8.576   7.896 -0.2209 -0.1074  0.3446
  571loPI   C1B 9133   5.399   7.520   9.643  0.1820  0.0354 -0.0979
  571loPI   C2B 9134   5.620   7.408   9.244 -0.1975  0.2001 -0.1766
  571loPI   C3B 9135   5.904   7.031   8.929 -0.0522 -0.0908  0.1465
  571loPI   C4B 9136   5.989   6.968   8.533  0.2595 -0.1943  0.0128
  572loPI    C1 9137   0.231   5.694  10.853 -0.1177  0.0320 -0.1184
  572loPI    C2 9138   0.335   6.036  11.032 -0.0098 -0.1200  0.1134
  572loPI    C3 9139   0.572   5.715  11.061 -0.0084 -0.1581 -0.2744
  572loPI   PO4 9140   0.237   5.677  10.651  0.0902  0.0989  0.4616
  572loPI   GL1 9141   0.416   5.534  10.340  0.0608 -0.1467  0.2217
  572loPI   GL2 9142   0.718   5.358  10.294 -0.1583  0.2374 -0.0368
  572loPI   C1A 9143   0.270   5.670   9.794 -0.1011  0.1167 -0.0646
  572loPI   C2A 9144   0.220   5.635   9.402  0.1213 -0.3695 -0.4494
  572loPI   C3A 9145   0.196   5.523   8.997 -0.1001  0.0867  0.0671
  572loPI   C4A 9146   0.101   5.680   8.602 -0.1242  0.3223 -0.1569
  572loPI   C5A 9147   0.061   5.490   8.328 -0.2444 -0.1573 -0.0320
  572loPI   C6A 9148  -0.321   5.287   8.054 -0.0234  0.0918  0.2961
  572loPI   C1B 9149   0.626   5.324   9.899 -0.0210  0.4258 -0.1415
  572loPI   C2B 9150   0.565   5.226   9.429 -0.1587 -0.2377 -0.3836
  572loPI   C3B 9151   0.544   5.183   8.957  0.1067 -0.1117 -0.2025
  572loPI   C4B 9152   0.430   5.283   8.547 -0.0218 -0.0851 -0.1447
  573loPI    C1 9153  16.129   4.337  10.623  0.2922 -0.0932  0.0155
  573loPI    C2 9154  15.800   4.548  10.710  0.3161  0.0478 -0.2257
  573loPI    C3 9155  15.973   4.322  10.992 -0.0229 -0.0797 -0.1138
  573loPI   PO4 9156  16.157   4.385  10.334  0.0196  0.1597 -0.3100
  573loPI   GL1 9157  15.962   4.182   9.977 -0.0798  0.1554  0.3067
  573loPI   GL2 9158  15.856   4.448   9.891  0.1373 -0.0349  0.2424
  573loPI   C1A 9159  16.067   4.186   9.502  0.0448 -0.1186 -0.1151
  573loPI   C2A 9160  15.921   4.322   9.163 -0.1762 -0.1690 -0.3345
  573loPI   C3A 9161  15.860   4.343   8.848 -0.0213  0.1290 -0.1158
  573loPI   C4A 9162  15.831   4.178   8.409 -0.3414 -0.3102  0.2319
  573loPI   C5A 9163  15.813   4.107   7.939  0.1272 -0.0510  0.0700
  573loPI   C6A 9164  15.524   3.859   7.623  0.0812 -0.0870 -0.0019
  573loPI   C1B 9165  15.620   4.614   9.531 -0.2233  0.2458 -0.1392
  573loPI   C2B 9166  15.542   4.635   9.115 -0.0216  0.0239 -0.2720
  573loPI   C3B 9167  15.490   4.685   8.674 -0.0746  0.1005  0.1700
  573loPI   C4B 9168  15.345   4.577   8.276 -0.1359  0.5251 -0.1080
  574loPI    C1 9169  17.203   7.587  10.759  0.0757  0.2034  0.0115
  574loPI    C2 9170  17.008   7.464  11.086 -0.0060 -0.0029 -0.1124
  574loPI    C3 9171  17.317   7.715  11.120  0.0170 -0.0609  0.1269
  574loPI   PO4 9172  17.048   7.679  10.624  0.3045  0.0716 -0.1760
  574loPI   GL1 9173  16.860   7.909  10.243  0.1053 -0.4468 -0.3368
  574loPI   GL2 9174  16.693   7.646  10.309 -0.0923  0.0034  0.3002
  574loPI   C1A 9175  16.953   8.040   9.868  0.1849 -0.2182  0.1132
  574loPI   C2A 9176  17.001   8.009   9.495  0.1863 -0.1375  0.0941
  574loPI   C3A 9177  16.969   8.003   9.126 -0.0879  0.2675  0.0098
  574loPI   C4A 9178  16.930   8.012   8.748  0.1206 -0.3671 -0.1501
  574loPI   C5A 9179  16.845   8.068   8.355  0.2520  0.0880 -0.1499
  574loPI   C6A 9180  16.588   8.441   8.101  0.3056  0.3379  0.1011
  574loPI   C1B 9181  16.731   7.555   9.861 -0.2499  0.1863 -0.0657
  574loPI   C2B 9182  16.799   7.554   9.366 -0.3761  0.0133  0.2563
  574loPI   C3B 9183  16.711   7.597   8.932  0.1779 -0.2769  0.0947
  574loPI   C4B 9184  16.532   7.570   8.504  0.0985 -0.1167  0.1902
  575loPI    C1 9185   3.296   4.629  10.612 -0.0025 -0.1400  0.0777
  575loPI    C2 9186   3.634   4.737  10.796  0.0447 -0.0094 -0.0833
  575loPI    C3 9187   3.281   4.823  10.962  0.0884 -0.0096  0.0105
  575loPI   PO4 9188   3.427   4.660  10.368 -0.2091 -0.0592  0.3120
  575loPI   GL1 9189   3.238   4.545   9.968 -0.2457 -0.1928  0.5166
  575loPI   GL2 9190   2.938   4.484   9.870 -0.3567 -0.2975 -0.0722
  575loPI   C1A 9191   3.380   4.419   9.606  0.2347  0.1730 -0.0878
  575loPI   C2A 9192   3.351   4.450   9.234  0.1150 -0.1057 -0.0995
  575loPI   C3A 9193   3.138   4.544   8.885  0.0883  0.0010 -0.1341
  575loPI   C4A 9194   3.110   4.561   8.461 -0.3755  0.1723  0.1414
  575loPI   C5A 9195   3.044   4.690   8.022  0.0856  0.0471 -0.1246
  575loPI   C6A 9196   2.767   4.523   7.771 -0.2205  0.1869 -0.0482
  575loPI   C1B 9197   2.853   4.503   9.434 -0.0407 -0.0621  0.2194
  575loPI   C2B 9198   2.675   4.478   9.056  0.1384 -0.2911 -0.0319
  575loPI   C3B 9199   2.650   4.464   8.639 -0.0228 -0.1710 -0.2550
  575loPI   C4B 9200   2.622   4.372   8.262  0.1114  0.1601 -0.0140
  576loPI    C1 9201   4.814  14.835  11.118 -0.0152  0.0905 -0.0604
  576loPI    C2 9202   5.167  14.964  11.255 -0.0744  0.2815 -0.0852
  576loPI    C3 9203   4.881  14.854  11.512  0.0089  0.1084 -0.0653
  576loPI   PO4 9204   4.771  14.916  10.928 -0.0839 -0.0176 -0.1089
  576loPI   GL1 9205   5.002  14.927  10.497 -0.2102  0.3191 -0.3541
  576loPI   GL2 9206   4.779  14.777  10.276 -0.0009 -0.0673  0.0147
  576loPI   C1A 9207   5.214  14.738  10.026 -0.0884  0.0447 -0.2213
  576loPI   C2A 9208   5.363  14.698   9.595 -0.0945 -0.0199  0.1587
  576loPI   C3A 9209   5.393  14.659   9.196  0.5142  0.0345  0.3083
  576loPI   C4A 9210   5.364  14.776   8.875  0.2638 -0.3620 -0.0532
  576loPI   C5A 9211   5.341  14.918   8.481  0.0641 -0.1443  0.1973
  576loPI   C6A 9212   5.574  15.005   8.040 -0.0077  0.2194 -0.2427
  576loPI   C1B 9213   4.759  14.643   9.885  0.0268  0.0008  0.1124
  576loPI   C2B 9214   4.813  14.603   9.453 -0.0312 -0.1277 -0.2870
  576loPI   C3B 9215   4.868  14.647   9.084  0.2249 -0.1676  0.2021
  576loPI   C4B 9216   4.926  14.721   8.592 -0.0639 -0.0596  0.1770
  577loPI    C1 9217   2.104  16.397  10.765  0.1504  0.0867  0.1625
  577loPI    C2 9218   2.019  16.787  10.798 -0.1616  0.0243  0.1313
  577loPI    C3 9219   1.735  16.514  10.868  0.0101 -0.1939 -0.0086
  577loPI   PO4 9220   2.291  16.307  10.506  0.1058 -0.1784 -0.2297
  577loPI   GL1 9221   2.510  16.455  10.103 -0.1626  0.0779  0.0549
  577loPI   GL2 9222   2.702  16.647   9.976 -0.0067  0.2443  0.0078
  577loPI   C1A 9223   2.516  16.421   9.553  0.2815 -0.0577  0.0941
  577loPI   C2A 9224   2.583  16.351   9.139 -0.2694 -0.2422 -0.1901
  577loPI   C3A 9225   2.715  16.321   8.684  0.1696 -0.0082 -0.3695
  577loPI   C4A 9226   2.775  16.511   8.249 -0.0899 -0.2610  0.0029
  577loPI   C5A 9227   2.687  16.741   7.895  0.2747  0.2568 -0.3540
  577loPI   C6A 9228   2.489  16.652   7.522 -0.1409 -0.1106 -0.4763
  577loPI   C1B 9229   2.861  16.779   9.617 -0.0878 -0.0643  0.0934
  577loPI   C2B 9230   2.847  17.148   9.382  0.1044  0.0277  0.0213
  577loPI   C3B 9231   2.904  17.289   8.993 -0.1070 -0.0487 -0.5106
  577loPI   C4B 9232   2.927  17.210   8.497 -0.1797  0.0815  0.1648
  578loPI    C1 9233  15.353   5.711  11.209 -0.0544 -0.1680  0.0606
  578loPI    C2 9234  15.002   5.831  11.358  0.0968  0.3056  0.0501
  578loPI    C3 9235  15.199   5.528  11.530 -0.3594 -0.0320 -0.0050
  578loPI   PO4 9236  15.335   5.711  10.941  0.1034  0.0406  0.0425
  578loPI   GL1 9237  15.225   5.736  10.530 -0.1173 -0.0521  0.0615
  578loPI   GL2 9238  14.993   5.688  10.457  0.3373 -0.0100 -0.0234
  578loPI   C1A 9239  15.325   5.959  10.132 -0.0059 -0.3101 -0.0139
  578loPI   C2A 9240  15.163   6.048   9.758 -0.1732  0.3614 -0.0417
  578loPI   C3A 9241  15.190   5.950   9.318 -0.2138 -0.1804 -0.3779
  578loPI   C4A 9242  15.174   5.951   8.862 -0.0600  0.1381  0.0833
  578loPI   C5A 9243  15.017   5.966   8.407  0.0946 -0.2242 -0.0389
  578loPI   C6A 9244  14.820   6.320   8.086 -0.2192 -0.0846  0.0103
  578loPI   C1B 9245  15.098   5.531  10.028 -0.0902  0.2032  0.0126
  578loPI   C2B 9246  15.027   5.578   9.674  0.0101  0.4051  0.0627
  578loPI   C3B 9247  14.985   5.442   9.217 -0.1400 -0.0096  0.1797
  578loPI   C4B 9248  14.979   5.486   8.774  0.1340  0.1562  0.0252
  579loPI    C1 9249   8.098   2.249  11.238  0.1679 -0.0470 -0.2210
  579loPI    C2 9250   8.125   2.637  11.148 -0.0386 -0.0310 -0.2174
  579loPI    C3 9251   7.843   2.510  11.402  0.0330 -0.1824 -0.2133
  579loPI   PO4 9252   8.132   2.164  10.970 -0.4256  0.2804  0.4140
  579loPI   GL1 9253   8.187   2.004  10.501  0.2816 -0.0632 -0.1929
  579loPI   GL2 9254   7.835   2.144  10.475  0.2234 -0.0661 -0.2739
  579loPI   C1A 9255   8.037   1.893  10.035 -0.1094  0.2226 -0.1261
  579loPI   C2A 9256   8.020   1.907   9.716  0.1691 -0.3343  0.3120
  579loPI   C3A 9257   8.132   1.851   9.260 -0.0026 -0.0210  0.0131
  579loPI   C4A 9258   8.192   1.933   8.836 -0.1167  0.0030 -0.1162
  579loPI   C5A 9259   8.160   2.032   8.442 -0.0802 -0.0394 -0.1388
  579loPI   C6A 9260   8.226   1.991   8.051  0.0577 -0.0764 -0.0868
  579loPI   C1B 9261   7.751   2.300  10.042 -0.2923  0.0166  0.1551
  579loPI   C2B 9262   7.698   2.315   9.572  0.0615 -0.1619  0.0539
  579loPI   C3B 9263   7.782   2.252   9.165  0.3340 -0.1722 -0.1746
  579loPI   C4B 9264   7.782   2.352   8.745  0.1042 -0.1158  0.1871
  580loPI    C1 9265   8.962   2.781  10.582  0.1192  0.0408 -0.0562
  580loPI    C2 9266   9.149   2.657  10.913 -0.0845 -0.1660 -0.0167
  580loPI    C3 9267   9.099   2.406  10.606 -0.2040 -0.0810 -0.0676
  580loPI   PO4 9268   9.022   3.032  10.556  0.1087 -0.0412 -0.0515
  580loPI   GL1 9269   9.162   3.280  10.175 -0.0362 -0.1151  0.1942
  580loPI   GL2 9270   9.427   3.223  10.345 -0.3600 -0.0944  0.2166
  580loPI   C1A 9271   9.250   3.359   9.789 -0.1936 -0.0211  0.2910
  580loPI   C2A 9272   9.269   3.440   9.474 -0.1988  0.0682 -0.1277
  580loPI   C3A 9273   9.263   3.390   9.072  0.1275 -0.1928 -0.1756
  580loPI   C4A 9274   9.194   3.458   8.723 -0.0327 -0.3286 -0.4648
  580loPI   C5A 9275   9.365   3.244   8.404 -0.2152 -0.3365  0.0427
  580loPI   C6A 9276   9.757   3.111   8.104 -0.1368  0.0647  0.4096
  580loPI   C1B 9277   9.644   2.935  10.009  0.2416 -0.1172  0.3056
  580loPI   C2B 9278   9.616   2.869   9.540  0.0068 -0.1826 -0.0130
  580loPI   C3B 9279   9.580   2.971   9.077 -0.3218 -0.0945 -0.0484
  580loPI   C4B 9280   9.607   2.990   8.704  0.2170 -0.0204 -0.0488
  581loPI    C1 9281  15.418   1.404  10.863 -0.1707 -0.1224  0.0798
  581loPI    C2 9282  15.371   1.668  11.161 -0.4124 -0.0906  0.0156
  581loPI    C3 9283  15.688   1.424  11.158 -0.1230  0.2763  0.0157
  581loPI   PO4 9284  15.370   1.510  10.638  0.0540 -0.1798 -0.0551
  581loPI   GL1 9285  15.242   1.482  10.195 -0.0034  0.1693  0.0658
  581loPI   GL2 9286  15.173   1.197  10.234  0.1447  0.0626 -0.3388
  581loPI   C1A 9287  15.323   1.509   9.722 -0.0109 -0.0029 -0.0136
  581loPI   C2A 9288  15.369   1.467   9.265 -0.1986  0.1218  0.3518
  581loPI   C3A 9289  15.250   1.388   8.867  0.1850  0.1625  0.1477
  581loPI   C4A 9290  15.174   1.387   8.437  0.0442 -0.0368  0.0038
  581loPI   C5A 9291  15.368   1.363   8.090 -0.1815 -0.1231 -0.1043
  581loPI   C6A 9292  15.727   1.160   8.007  0.1437  0.2005  0.0951
  581loPI   C1B 9293  15.084   1.066   9.881  0.0687  0.3441 -0.0805
  581loPI   C2B 9294  15.047   0.990   9.454 -0.3034 -0.2574  0.0898
  581loPI   C3B 9295  15.105   0.880   9.080  0.3061  0.0437  0.0301
  581loPI   C4B 9296  15.033   1.006   8.685  0.4928  0.0362 -0.0131
  582loPI    C1 9297  17.652  17.814  10.375 -0.1726  0.0314 -0.1502
  582loPI    C2 9298  17.859  18.089  10.171 -0.1255  0.0444 -0.0849
  582loPI    C3 9299  17.951  18.012  10.553 -0.1126 -0.0903 -0.1145
  582loPI   PO4 9300  17.617  17.610  10.186 -0.2864  0.1049  0.0736
  582loPI   GL1 9301  17.466  17.376   9.809  0.1584 -0.0026  0.1719
  582loPI   GL2 9302  17.859  17.317   9.736  0.3590 -0.0269  0.0360
  582loPI   C1A 9303  17.266  17.347   9.404  0.0006 -0.1966 -0.2497
  582loPI   C2A 9304  17.009  17.256   9.084 -0.3078  0.0988 -0.0735
  582loPI   C3A 9305  16.607  17.138   8.874 -0.1081  0.1429 -0.1797
  582loPI   C4A 9306  16.623  17.080   8.381 -0.2024 -0.1108 -0.3633
  582loPI   C5A 9307  16.397  17.244   8.068  0.2401 -0.0767 -0.1572
  582loPI   C6A 9308  16.153  17.563   7.975 -0.2074 -0.2847  0.1661
  582loPI   C1B 9309  17.796  17.315   9.282 -0.0541  0.0378 -0.1092
  582loPI   C2B 9310  17.486  17.175   8.924  0.0357  0.0924 -0.1686
  582loPI   C3B 9311  17.175  16.883   8.735  0.0608  0.3856  0.4997
  582loPI   C4B 9312  16.777  16.689   8.635 -0.1428  0.0283  0.1587
  583loPI    C1 9313   0.333  16.954  10.303  0.0546  0.0900 -0.0771
  583loPI    C2 9314   0.701  16.984  10.455 -0.0158  0.1686  0.0791
  583loPI    C3 9315   0.401  16.849  10.682 -0.0624  0.0018 -0.0799
  583loPI   PO4 9316   0.364  17.273  10.183 -0.0510 -0.0892  0.0603
  583loPI   GL1 9317   0.426  17.442   9.714  0.0034  0.1960  0.1113
  583loPI   GL2 9318   0.151  17.553   9.645  0.0438 -0.1329 -0.1491
  583loPI   C1A 9319   0.797  17.379   9.400  0.0039 -0.1042  0.2346
  583loPI   C2A 9320   1.163  17.517   9.181 -0.0343 -0.2474 -0.1764
  583loPI   C3A 9321   1.180  17.310   8.753 -0.0175 -0.0818  0.1056
  583loPI   C4A 9322   1.420  17.050   8.557  0.1986 -0.1830  0.0954
  583loPI   C5A 9323   1.526  16.873   8.288  0.3258  0.0047 -0.0029
  583loPI   C6A 9324   1.658  16.636   8.002  0.2470 -0.0024  0.0682
  583loPI   C1B 9325   0.248  17.632   9.223 -0.2487  0.0007  0.0987
  583loPI   C2B 9326   0.227  17.467   8.880  0.0034 -0.0978 -0.0503
  583loPI   C3B 9327   0.417  17.482   8.402  0.3166 -0.2559 -0.4390
  583loPI   C4B 9328   0.531  17.242   8.030 -0.1862  0.0809 -0.2654
  584loPI    C1 9329   4.148   1.550  11.109 -0.1421  0.0191 -0.2030
  584loPI    C2 9330   3.821   1.410  10.926 -0.2043 -0.0305 -0.0548
  584loPI    C3 9331   3.816   1.479  11.320 -0.0244 -0.0671 -0.0454
  584loPI   PO4 9332   4.288   1.633  10.918 -0.0781 -0.2488 -0.0941
  584loPI   GL1 9333   4.496   1.417  10.575  0.0926  0.0471 -0.1741
  584loPI   GL2 9334   4.170   1.147  10.655 -0.0689 -0.1944 -0.0770
  584loPI   C1A 9335   4.504   1.212  10.202 -0.0664 -0.0942  0.3013
  584loPI   C2A 9336   4.502   1.305   9.786 -0.3751  0.1034  0.3716
  584loPI   C3A 9337   4.543   1.314   9.288  0.2948  0.3001 -0.1017
  584loPI   C4A 9338   4.494   1.347   8.867 -0.1489  0.2306 -0.1003
  584loPI   C5A 9339   4.233   1.163   8.593  0.0801  0.2672  0.3011
  584loPI   C6A 9340   4.096   0.780   8.376  0.0351 -0.5102 -0.1642
  584loPI   C1B 9341   4.035   1.229  10.168 -0.0451  0.1648  0.2543
  584loPI   C2B 9342   3.980   1.287   9.723 -0.1101  0.0908 -0.1722
  584loPI   C3B 9343   3.967   1.307   9.320 -0.0849  0.2159  0.0583
  584loPI   C4B 9344   3.912   1.341   8.942 -0.2056  0.0051 -0.1292
  585loPI    C1 9345   6.349  16.740  11.134 -0.2239 -0.2877 -0.0874
  585loPI    C2 9346   6.382  16.345  11.185  0.1942 -0.2631 -0.1314
  585loPI    C3 9347   6.708  16.576  11.203 -0.0901  0.1226  0.2321
  585loPI   PO4 9348   6.231  16.776  10.912 -0.1726 -0.2119  0.0818
  585loPI   GL1 9349   6.441  16.856  10.445 -0.1134 -0.0660 -0.2695
  585loPI   GL2 9350   6.647  16.674  10.345 -0.2317  0.2048 -0.1184
  585loPI   C1A 9351   6.133  16.740  10.238  0.2492 -0.0413  0.4756
  585loPI   C2A 9352   6.090  16.781   9.817  0.0545 -0.0757 -0.1398
  585loPI   C3A 9353   6.248  16.646   9.438 -0.2159 -0.1115 -0.0197
  585loPI   C4A 9354   6.338  16.640   9.002  0.0673  0.1969 -0.3815
  585loPI   C5A 9355   6.222  16.727   8.639  0.0820 -0.2338  0.0944
  585loPI   C6A 9356   6.273  16.815   8.169 -0.0171 -0.1410 -0.2127
  585loPI   C1B 9357   6.601  16.817   9.854 -0.3539  0.0626  0.0211
  585loPI   C2B 9358   6.717  16.685   9.378  0.2580 -0.3105 -0.0319
  585loPI   C3B 9359   6.784  16.780   8.884 -0.1276  0.0725  0.2922
  585loPI   C4B 9360   6.751  16.863   8.415 -0.1132 -0.4071  0.1442
  586loPI    C1 9361   6.997   5.723  10.911 -0.0283  0.0253  0.3000
  586loPI    C2 9362   6.858   5.351  10.958 -0.2016  0.0278 -0.1488
  586loPI    C3 9363   6.645   5.662  11.092 -0.2232 -0.0154 -0.0824
  586loPI   PO4 9364   7.116   5.703  10.614 -0.0010 -0.0945 -0.2925
  586loPI   GL1 9365   7.089   5.673  10.132  0.2504 -0.1950  0.0120
  586loPI   GL2 9366   7.180   6.022  10.193 -0.0926  0.4012 -0.0885
  586loPI   C1A 9367   7.048   5.499   9.680 -0.2308 -0.1908  0.0465
  586loPI   C2A 9368   7.066   5.348   9.076  0.1498  0.1949 -0.1965
  586loPI   C3A 9369   7.054   5.339   8.681  0.0734 -0.3829 -0.0249
  586loPI   C4A 9370   7.034   5.349   8.132  0.0737 -0.0732  0.0991
  586loPI   C5A 9371   7.163   4.902   8.036  0.1164  0.4283  0.1036
  586loPI   C6A 9372   7.062   4.460   8.183  0.1721 -0.1074 -0.1486
  586loPI   C1B 9373   7.213   5.974   9.665 -0.1721  0.2890 -0.1896
  586loPI   C2B 9374   7.339   5.864   9.212  0.0339  0.2266  0.1537
  586loPI   C3B 9375   7.314   5.833   8.901  0.2173 -0.2043  0.1085
  586loPI   C4B 9376   7.359   5.694   8.461 -0.1097 -0.0583 -0.0581
  587loPI    C1 9377   5.191   2.717  11.056  0.1122 -0.0295  0.1111
  587loPI    C2 9378   4.886   2.698  10.797  0.1258  0.0276  0.0910
  587loPI    C3 9379   4.826   2.839  11.167  0.0627 -0.2392  0.1847
  587loPI   PO4 9380   5.353   2.878  10.992 -0.0090 -0.0737 -0.2843
  587loPI   GL1 9381   5.393   2.901  10.501 -0.0577  0.2860  0.1666
  587loPI   GL2 9382   5.241   2.648  10.458 -0.0404  0.0638 -0.1828
  587loPI   C1A 9383   5.588   2.988  10.147 -0.1521  0.0253  0.0937
  587loPI   C2A 9384   5.609   2.790   9.744  0.1037  0.0135  0.2059
  587loPI   C3A 9385   5.637   2.879   9.330 -0.0313  0.2137 -0.2195
  587loPI   C4A 9386   5.639   2.879   8.952  0.1548 -0.0780 -0.1066
  587loPI   C5A 9387   5.700   2.999   8.535 -0.1710 -0.1786  0.0189
  587loPI   C6A 9388   5.869   3.361   8.260  0.2064  0.1025 -0.0408
  587loPI   C1B 9389   5.402   2.426  10.128 -0.1162 -0.1797  0.2637
  587loPI   C2B 9390   5.410   2.342   9.718 -0.0873  0.0905  0.1116
  587loPI   C3B 9391   5.479   2.417   9.387  0.1897  0.1602  0.0027
  587loPI   C4B 9392   5.401   2.421   8.911  0.1008 -0.1000 -0.0758
  588loPI    C1 9393  13.558  15.282  10.865  0.1021  0.3317  0.2296
  588loPI    C2 9394  13.746  15.169  11.199  0.0667 -0.0522  0.1250
  588loPI    C3 9395  13.348  15.140  11.174  0.0840 -0.1831 -0.0086
  588loPI   PO4 9396  13.718  15.274  10.683  0.1303 -0.0982 -0.2177
  588loPI   GL1 9397  13.624  15.382  10.266 -0.3825  0.1789 -0.0381
  588loPI   GL2 9398  13.275  15.548  10.281  0.2247  0.0311 -0.1739
  588loPI   C1A 9399  13.485  15.356   9.858  0.3004 -0.1672  0.0971
  588loPI   C2A 9400  13.509  15.407   9.440  0.2173  0.1436  0.1502
  588loPI   C3A 9401  13.521  15.406   9.013  0.1238  0.4441 -0.2755
  588loPI   C4A 9402  13.428  15.382   8.607 -0.4556  0.1413 -0.0285
  588loPI   C5A 9403  13.704  15.224   8.304 -0.5299 -0.0526  0.1126
  588loPI   C6A 9404  13.956  14.846   8.085 -0.4035 -0.1131  0.1404
  588loPI   C1B 9405  13.179  15.790   9.860 -0.0924  0.0756 -0.1048
  588loPI   C2B 9406  13.152  15.802   9.444  0.0878  0.0209 -0.4726
  588loPI   C3B 9407  13.144  15.817   8.991  0.1273  0.0080 -0.0616
  588loPI   C4B 9408  13.159  15.853   8.550  0.0898 -0.1896 -0.0209
  589loPI    C1 9409   1.140   9.711  10.393  0.0118 -0.0720  0.0523
  589loPI    C2 9410   0.859   9.861  10.635 -0.1054 -0.1323 -0.0453
  589loPI    C3 9411   0.998   9.491  10.695 -0.1357 -0.1479 -0.0703
  589loPI   PO4 9412   1.098   9.763  10.202 -0.1191 -0.1099 -0.1282
  589loPI   GL1 9413   0.997   9.967   9.968 -0.3402  0.0101  0.1203
  589loPI   GL2 9414   1.219   9.723   9.732  0.1549  0.1742  0.0296
  589loPI   C1A 9415   0.823   9.972   9.603  0.4766 -0.0530  0.3444
  589loPI   C2A 9416   0.680   9.975   9.113 -0.0535  0.3573  0.1186
  589loPI   C3A 9417   0.313  10.053   8.703  0.1361 -0.2611 -0.3242
  589loPI   C4A 9418   0.250   9.963   8.336  0.0575  0.0417  0.1834
  589loPI   C5A 9419   0.408   9.856   7.934  0.2368  0.3885 -0.1805
  589loPI   C6A 9420   0.579   9.659   7.635  0.1290 -0.0931  0.1321
  589loPI   C1B 9421   1.263   9.959   9.350  0.1062 -0.0686 -0.1864
  589loPI   C2B 9422   1.248   9.949   8.874 -0.0294 -0.2272  0.4870
  589loPI   C3B 9423   1.184  10.282   8.553  0.1004  0.0425  0.0597
  589loPI   C4B 9424   1.531  10.647   8.589 -0.3745  0.0074  0.0442
  590loPI    C1 9425  15.384   7.520  11.135  0.1491  0.2135 -0.2148
  590loPI    C2 9426  15.560   7.651  11.469 -0.0750 -0.3885  0.1571
  590loPI    C3 9427  15.236   7.837  11.328  0.0190 -0.1311  0.2729
  590loPI   PO4 9428  15.571   7.486  10.879  0.0230  0.1331  0.2647
  590loPI   GL1 9429  15.398   7.375  10.425 -0.1874  0.0443  0.3609
  590loPI   GL2 9430  15.470   7.656  10.394 -0.0850 -0.0342 -0.0599
  590loPI   C1A 9431  15.364   7.362   9.959  0.1590  0.1380 -0.1613
  590loPI   C2A 9432  15.269   7.262   9.554 -0.2054  0.1380 -0.3052
  590loPI   C3A 9433  15.238   7.318   9.143 -0.1547 -0.1656  0.3282
  590loPI   C4A 9434  15.198   7.288   8.718 -0.1009  0.0719  0.0913
  590loPI   C5A 9435  15.120   7.183   8.365  0.1192 -0.0163 -0.0563
  590loPI   C6A 9436  15.115   7.033   7.948 -0.1959  0.0852  0.1395
  590loPI   C1B 9437  15.434   7.844  10.002 -0.0168  0.1365  0.0334
  590loPI   C2B 9438  15.453   7.742   9.598  0.5888  0.0683  0.1879
  590loPI   C3B 9439  15.414   7.810   9.194  0.1830  0.2345 -0.1027
  590loPI   C4B 9440  15.423   7.841   8.713  0.3139  0.0389 -0.0309
  591loPI    C1 9441  17.610  15.829  10.297 -0.1946 -0.1485  0.2003
  591loPI    C2 9442  17.279  15.973  10.126  0.0458  0.0808 -0.0826
  591loPI    C3 9443  17.489  16.201  10.378  0.1280  0.0275 -0.1024
  591loPI   PO4 9444  17.594  15.582  10.176  0.1186  0.0433 -0.1014
  591loPI   GL1 9445  17.870  15.388   9.830  0.1101  0.0902  0.1451
  591loPI   GL2 9446  17.850  15.781   9.731  0.1161 -0.1592  0.1183
  591loPI   C1A 9447  17.621  15.490   9.370 -0.1194  0.1375 -0.1246
  591loPI   C2A 9448  17.749  15.796   9.031  0.0840  0.2447  0.0488
  591loPI   C3A 9449  17.979  15.542   8.600  0.5335  0.1790  0.1884
  591loPI   C4A 9450  17.849  15.250   8.187  0.0468 -0.1275 -0.3021
  591loPI   C5A 9451  17.695  15.308   7.817 -0.2022  0.0615  0.1868
  591loPI   C6A 9452  17.367  15.587   7.670 -0.0220 -0.0680  0.2205
  591loPI   C1B 9453  17.545  15.963   9.483 -0.0878  0.0955  0.0250
  591loPI   C2B 9454  17.245  15.780   9.222 -0.0252  0.0127  0.3743
  591loPI   C3B 9455  17.110  15.751   8.754  0.0842 -0.1087 -0.4886
  591loPI   C4B 9456  16.832  15.723   8.462 -0.0955  0.0382 -0.0077
  592loPI    C1 9457  13.922   5.769  10.802  0.0331  0.2669 -0.1237
  592loPI    C2 9458  14.113   5.923  11.118  0.1459  0.1529 -0.1355
  592loPI    C3 9459  13.742   5.778  11.159  0.2536 -0.0914  0.0023
  592loPI   PO4 9460  14.120   5.534  10.727  0.0201  0.0214  0.0414
  592loPI   GL1 9461  14.546   5.495  10.428  0.1879  0.0216 -0.0518
  592loPI   GL2 9462  14.297   5.699  10.276  0.1143 -0.0161  0.0298
  592loPI   C1A 9463  14.583   5.448   9.947 -0.2097 -0.3010 -0.0729
  592loPI   C2A 9464  14.426   5.384   9.447 -0.1487 -0.2034 -0.0044
  592loPI   C3A 9465  14.350   5.394   9.037 -0.1770  0.1120  0.2094
  592loPI   C4A 9466  14.316   5.352   8.574 -0.0815 -0.0142  0.0890
  592loPI   C5A 9467  14.643   5.459   8.326  0.2513 -0.1191  0.1724
  592loPI   C6A 9468  15.077   5.309   8.186 -0.2322  0.1250  0.2959
  592loPI   C1B 9469  14.199   5.799   9.866  0.2387  0.2819 -0.3226
  592loPI   C2B 9470  14.120   5.828   9.402  0.0578 -0.0934  0.0966
  592loPI   C3B 9471  13.987   5.852   8.984  0.0398  0.1146 -0.3019
  592loPI   C4B 9472  14.111   5.764   8.605  0.4218  0.1374 -0.0559
  593loPI    C1 9473   4.237  12.865  10.622 -0.1989 -0.0061 -0.1097
  593loPI    C2 9474   4.389  13.235  10.624  0.1671 -0.1517  0.1269
  593loPI    C3 9475   4.192  13.098  10.945 -0.0316 -0.1399  0.0120
  593loPI   PO4 9476   4.342  12.690  10.429 -0.1455  0.0388  0.1719
  593loPI   GL1 9477   4.304  12.583  10.049 -0.2305 -0.0108 -0.2300
  593loPI   GL2 9478   4.633  12.526  10.052 -0.2334  0.0437 -0.2114
  593loPI   C1A 9479   4.064  12.654   9.725 -0.0396 -0.3093  0.1745
  593loPI   C2A 9480   4.120  12.647   9.346 -0.3865  0.1231 -0.1967
  593loPI   C3A 9481   4.035  12.709   8.944  0.0893  0.3246 -0.1464
  593loPI   C4A 9482   4.191  12.821   8.471  0.1461  0.1458 -0.1750
  593loPI   C5A 9483   4.172  13.007   8.048  0.1215 -0.0333 -0.3033
  593loPI   C6A 9484   4.112  12.835   7.706 -0.0990 -0.0402  0.1684
  593loPI   C1B 9485   4.569  12.792   9.618  0.3052 -0.0900  0.0679
  593loPI   C2B 9486   4.635  12.772   9.106  0.0420 -0.0691 -0.0257
  593loPI   C3B 9487   4.629  12.804   8.699 -0.0071 -0.0553  0.2695
  593loPI   C4B 9488   4.666  12.781   8.304  0.1727 -0.1521  0.0306
  594loPI    C1 9489   6.345   9.555  10.305 -0.4088  0.0145 -0.1444
  594loPI    C2 9490   6.427   9.308  10.608 -0.2328  0.2291 -0.0139
  594loPI    C3 9491   6.049   9.419  10.538 -0.2675  0.2280  0.1663
  594loPI   PO4 9492   6.469   9.487  10.040 -0.1652  0.2074 -0.4043
  594loPI   GL1 9493   6.423   9.672   9.617  0.1347  0.2403  0.2652
  594loPI   GL2 9494   6.425   9.470   9.455  0.1150  0.1153 -0.3016
  594loPI   C1A 9495   6.325   9.870   9.210  0.1469  0.1174  0.1560
  594loPI   C2A 9496   6.500   9.969   8.799 -0.1765  0.0561  0.0461
  594loPI   C3A 9497   6.674   9.991   8.332  0.0851 -0.1684  0.1418
  594loPI   C4A 9498   6.767  10.128   7.983  0.0601  0.1072  0.1831
  594loPI   C5A 9499   6.867  10.412   7.617  0.0527 -0.1011  0.1439
  594loPI   C6A 9500   6.989  10.596   7.183 -0.3511 -0.0739  0.0735
  594loPI   C1B 9501   6.562   9.445   9.103  0.0753 -0.0915  0.1665
  594loPI   C2B 9502   6.286   9.522   8.838  0.1508  0.2424 -0.2314
  594loPI   C3B 9503   6.182   9.721   8.425 -0.0246  0.2004  0.0167
  594loPI   C4B 9504   6.223  10.008   8.010  0.0599 -0.1125  0.4553
  595loPI    C1 9505   6.872   4.252  10.803  0.0470 -0.3238  0.0132
  595loPI    C2 9506   7.069   4.380  11.127 -0.0923  0.2494 -0.1163
  595loPI    C3 9507   6.676   4.442  11.095 -0.1331 -0.0662 -0.2693
  595loPI   PO4 9508   6.931   4.086  10.704  0.0583 -0.1101  0.2834
  595loPI   GL1 9509   7.089   4.087  10.289  0.0267  0.0382  0.0391
  595loPI   GL2 9510   6.781   4.096  10.259  0.2962 -0.1326  0.1477
  595loPI   C1A 9511   7.286   3.831  10.000 -0.0298  0.1842  0.3323
  595loPI   C2A 9512   7.411   3.639   9.596  0.0460 -0.0120  0.1310
  595loPI   C3A 9513   7.325   3.589   9.147 -0.2405  0.1529  0.0330
  595loPI   C4A 9514   7.328   3.556   8.701  0.0044 -0.1436 -0.0313
  595loPI   C5A 9515   7.560   3.654   8.253  0.1728  0.2420  0.0212
  595loPI   C6A 9516   7.737   3.426   7.994  0.3442 -0.1703 -0.0640
  595loPI   C1B 9517   6.608   4.014   9.893  0.3064  0.1718  0.2107
  595loPI   C2B 9518   6.572   3.860   9.450  0.1631 -0.2477 -0.0186
  595loPI   C3B 9519   6.502   3.913   9.027 -0.1504 -0.0968  0.0020
  595loPI   C4B 9520   6.552   3.911   8.601 -0.0881  0.1009 -0.0461
  596loPI    C1 9521   9.044   1.931  10.711  0.0689 -0.0983 -0.0411
  596loPI    C2 9522   9.252   1.868  11.047  0.0275 -0.3326 -0.0573
  596loPI    C3 9523   9.005   2.182  11.020  0.2025 -0.1838  0.0463
  596loPI   PO4 9524   9.235   1.948  10.563 -0.1353  0.0443  0.1278
  596loPI   GL1 9525   9.064   2.003  10.113 -0.3780  0.0570  0.1186
  596loPI   GL2 9526   8.824   2.309  10.193  0.2366 -0.4341 -0.0118
  596loPI   C1A 9527   9.089   1.969   9.632  0.1538  0.0427 -0.2431
  596loPI   C2A 9528   9.214   2.050   9.263 -0.0173  0.1360  0.0512
  596loPI   C3A 9529   9.213   2.027   8.808 -0.1331  0.2344  0.2973
  596loPI   C4A 9530   9.268   2.080   8.435 -0.2566  0.0076 -0.2782
  596loPI   C5A 9531   9.556   1.901   8.075 -0.1901 -0.0924  0.0697
  596loPI   C6A 9532   9.423   1.693   7.781  0.1210  0.0261  0.2215
  596loPI   C1B 9533   8.868   2.407   9.780  0.1596  0.2771  0.1178
  596loPI   C2B 9534   8.886   2.391   9.401  0.2477  0.1452  0.1035
  596loPI   C3B 9535   8.911   2.474   8.947  0.0457  0.2187  0.0262
  596loPI   C4B 9536   8.883   2.450   8.595 -0.0611 -0.0240  0.1062
  597loPI    C1 9537   2.346   4.433  10.383 -0.0630  0.0581 -0.3322
  597loPI    C2 9538   2.474   4.754  10.585 -0.0498 -0.0762 -0.1242
  597loPI    C3 9539   2.402   4.411  10.778 -0.0914 -0.1914 -0.3403
  597loPI   PO4 9540   2.463   4.429  10.217  0.3361  0.1005 -0.3938
  597loPI   GL1 9541   2.488   4.444   9.748 -0.2107 -0.1741 -0.0862
  597loPI   GL2 9542   2.334   4.129   9.816  0.0763  0.0601  0.0706
  597loPI   C1A 9543   2.246   4.412   9.386 -0.0597  0.1483 -0.3464
  597loPI   C2A 9544   2.189   4.412   8.988 -0.0566 -0.0343  0.0625
  597loPI   C3A 9545   2.185   4.252   8.622  0.0714  0.0823  0.0435
  597loPI   C4A 9546   2.105   4.296   8.150 -0.0012 -0.0666 -0.2740
  597loPI   C5A 9547   1.754   4.015   7.915 -0.2352  0.0635  0.1279
  597loPI   C6A 9548   1.691   3.643   7.988  0.3255 -0.0919  0.0212
  597loPI   C1B 9549   2.022   3.980   9.511 -0.3273 -0.4082 -0.0099
  597loPI   C2B 9550   1.926   3.972   9.083  0.0550 -0.1304  0.1129
  597loPI   C3B 9551   2.014   3.839   8.731  0.0631 -0.1632 -0.0411
  597loPI   C4B 9552   2.105   3.822   8.272 -0.0141  0.0809  0.1530
  598loPI    C1 9553  12.854  11.090  10.530 -0.1810 -0.1017  0.0530
  598loPI    C2 9554  12.803  11.486  10.551  0.1384 -0.0498 -0.0976
  598loPI    C3 9555  12.904  11.280  10.878  0.1008  0.0117 -0.0471
  598loPI   PO4 9556  12.638  11.085  10.332  0.2648  0.1123 -0.3567
  598loPI   GL1 9557  12.461  11.175   9.975 -0.2248 -0.0743 -0.4949
  598loPI   GL2 9558  12.801  11.163   9.808 -0.0742  0.0293 -0.1030
  598loPI   C1A 9559  12.472  11.541   9.702  0.2400  0.1164  0.0089
  598loPI   C2A 9560  12.469  11.662   9.257 -0.0034 -0.1010  0.2294
  598loPI   C3A 9561  12.460  11.619   8.867 -0.1030  0.4187 -0.0424
  598loPI   C4A 9562  12.440  11.534   8.430  0.1712  0.1031 -0.1584
  598loPI   C5A 9563  12.438  11.104   8.179 -0.0084 -0.0731  0.1215
  598loPI   C6A 9564  12.736  11.087   7.796  0.1542 -0.1808  0.3247
  598loPI   C1B 9565  12.739  11.210   9.367  0.1800 -0.1367  0.0866
  598loPI   C2B 9566  12.752  11.183   8.928  0.2943 -0.3899 -0.2512
  598loPI   C3B 9567  12.823  11.248   8.486 -0.1637  0.0902  0.1054
  598loPI   C4B 9568  12.823  11.506   8.110  0.3442 -0.0299  0.0745
  599loPI    C1 9569  14.698   4.740  11.409  0.1371 -0.1060  0.1351
  599loPI    C2 9570  14.340   4.575  11.475  0.1006 -0.0936 -0.0294
  599loPI    C3 9571  14.672   4.384  11.589  0.0616 -0.3095 -0.2664
  599loPI   PO4 9572  14.602   4.850  11.090  0.0372  0.0525 -0.1032
  599loPI   GL1 9573  14.589   4.847  10.659  0.0462  0.5251  0.1968
  599loPI   GL2 9574  14.734   4.592  10.630 -0.2198 -0.3509  0.0468
  599loPI   C1A 9575  14.442   5.023  10.225  0.0198  0.2147 -0.0072
  599loPI   C2A 9576  14.389   4.932   9.804 -0.1956  0.4029 -0.0204
  599loPI   C3A 9577  14.209   4.925   9.428 -0.1545  0.2544  0.2542
  599loPI   C4A 9578  14.113   4.911   8.870  0.1771 -0.2316 -0.4015
  599loPI   C5A 9579  13.938   4.905   8.442  0.1611 -0.2064 -0.0728
  599loPI   C6A 9580  14.211   5.049   8.224  0.0391  0.0542 -0.0740
  599loPI   C1B 9581  14.713   4.631  10.115 -0.0848 -0.2257 -0.2663
  599loPI   C2B 9582  14.663   4.452   9.787 -0.1542 -0.1908  0.2634
  599loPI   C3B 9583  14.617   4.582   9.395 -0.0967 -0.4620  0.1640
  599loPI   C4B 9584  14.534   4.557   8.970 -0.2461  0.1265  0.3178
  600loPI    C1 9585  16.029  14.519  10.600  0.0948 -0.0068 -0.2810
  600loPI    C2 9586  16.077  14.916  10.608  0.1181 -0.0137 -0.0164
  600loPI    C3 9587  16.191  14.694  10.921 -0.2954 -0.1833  0.0209
  600loPI   PO4 9588  15.899  14.497  10.396  0.0177 -0.0942 -0.0211
  600loPI   GL1 9589  15.943  14.253  10.060  0.1299  0.1626 -0.0819
  600loPI   GL2 9590  15.945  14.359   9.725 -0.2740 -0.3005  0.0814
  600loPI   C1A 9591  15.519  14.208   9.854  0.0865  0.2435 -0.1809
  600loPI   C2A 9592  15.433  14.315   9.407 -0.0025  0.0633  0.0420
  600loPI   C3A 9593  15.511  14.245   9.002  0.0628 -0.4491  0.1856
  600loPI   C4A 9594  15.482  14.280   8.584 -0.0651 -0.0234  0.0263
  600loPI   C5A 9595  15.476  14.421   8.156  0.0328  0.1103  0.1081
  600loPI   C6A 9596  15.378  14.581   7.860  0.0293 -0.1715  0.2932
  600loPI   C1B 9597  16.083  14.234   9.274  0.0481  0.0619  0.4538
  600loPI   C2B 9598  15.999  14.248   8.841  0.2165 -0.4558 -0.0818
  600loPI   C3B 9599  15.991  14.257   8.370  0.0129 -0.0835 -0.1138
  600loPI   C4B 9600  16.094  14.058   8.060  0.0657 -0.0121  0.1104
  601loPI    C1 9601   7.964   7.243  10.800 -0.0972  0.1809  0.0823
  601loPI    C2 9602   8.323   7.096  10.897 -0.1275 -0.0455 -0.1383
  601loPI    C3 9603   8.023   7.084  11.162 -0.0224 -0.0206 -0.0173
  601loPI   PO4 9604   8.071   7.385  10.518 -0.0372 -0.0979 -0.0567
  601loPI   GL1 9605   7.892   7.347  10.181 -0.1533 -0.0172  0.3032
  601loPI   GL2 9606   8.142   7.194  10.037  0.3867 -0.2214  0.1628
  601loPI   C1A 9607   7.790   7.456   9.754 -0.1422  0.2591  0.3568
  601loPI   C2A 9608   7.822   7.389   9.312  0.0652  0.0867  0.0781
  601loPI   C3A 9609   7.888   7.257   8.874 -0.0057 -0.0032 -0.2587
  601loPI   C4A 9610   7.817   7.366   8.393 -0.2457 -0.0776  0.1095
  601loPI   C5A 9611   7.955   7.577   8.066 -0.0372 -0.0255 -0.0147
  601loPI   C6A 9612   8.217   7.874   7.818  0.0791 -0.2413  0.0359
  601loPI   C1B 9613   8.060   7.090   9.693 -0.2735  0.0142 -0.2423
  601loPI   C2B 9614   8.135   6.987   9.193 -0.0934 -0.0856  0.2097
  601loPI   C3B 9615   8.228   6.898   8.855  0.1340  0.1261 -0.3966
  601loPI   C4B 9616   8.183   6.854   8.405  0.0940  0.3983 -0.0167
  602loPI    C1 9617  10.793   3.313  11.114  0.1448 -0.0889  0.0414
  602loPI    C2 9618  10.754   3.685  11.256 -0.2266 -0.1125  0.0108
  602loPI    C3 9619  10.852   3.386  11.503  0.0067 -0.0079  0.0478
  602loPI   PO4 9620  10.548   3.279  10.944  0.3048 -0.0603 -0.1000
  602loPI   GL1 9621  10.365   3.256  10.542  0.0794  0.1293  0.2688
  602loPI   GL2 9622  10.633   2.994  10.384  0.0866 -0.2174  0.1898
  602loPI   C1A 9623  10.521   3.501  10.244  0.1726  0.4538 -0.1560
  602loPI   C2A 9624  10.331   3.536   9.859 -0.1768  0.1149 -0.0021
  602loPI   C3A 9625  10.251   3.546   9.380  0.0378 -0.0164 -0.2140
  602loPI   C4A 9626  10.254   3.518   8.944  0.3660 -0.0170 -0.1536
  602loPI   C5A 9627  10.130   3.534   8.530 -0.0474 -0.0423  0.1557
  602loPI   C6A 9628  10.131   3.493   8.146  0.0923  0.0601  0.1010
  602loPI   C1B 9629  10.611   3.084   9.910  0.2737 -0.1826 -0.0911
  602loPI   C2B 9630  10.509   3.064   9.431  0.0890 -0.1878  0.0223
  602loPI   C3B 9631  10.547   3.056   8.941  0.1930 -0.3096  0.0982
  602loPI   C4B 9632  10.692   3.335   8.551  0.2729 -0.0779 -0.0206
  603loPI    C1 9633  14.213   9.216  10.631 -0.2286  0.0195 -0.1355
  603loPI    C2 9634  13.921   9.237  10.904 -0.0654  0.0604  0.0383
  603loPI    C3 9635  14.216   8.971  10.948 -0.0530  0.0482 -0.1143
  603loPI   PO4 9636  14.170   9.396  10.454 -0.0274 -0.1816  0.2180
  603loPI   GL1 9637  14.419   9.409  10.190 -0.0375  0.0067 -0.2649
  603loPI   GL2 9638  14.420   9.042  10.071  0.2292  0.0766  0.2350
  603loPI   C1A 9639  14.548   9.517   9.740  0.2444 -0.2468  0.3123
  603loPI   C2A 9640  14.559   9.599   9.330 -0.1911  0.3281 -0.1461
  603loPI   C3A 9641  14.590   9.593   9.001  0.0563  0.0363  0.1491
  603loPI   C4A 9642  14.456   9.425   8.660  0.0649  0.2155  0.3380
  603loPI   C5A 9643  14.366   9.325   8.172  0.2384 -0.0294  0.1705
  603loPI   C6A 9644  14.218   9.112   7.760 -0.0059 -0.3458 -0.0955
  603loPI   C1B 9645  14.498   9.040   9.612  0.1212  0.3579  0.0335
  603loPI   C2B 9646  14.449   9.043   9.210 -0.3907  0.3123 -0.2897
  603loPI   C3B 9647  14.450   8.963   8.769 -0.2909  0.0291  0.0047
  603loPI   C4B 9648  14.535   8.923   8.321  0.1695 -0.0005 -0.2685
  604loPI    C1 9649   4.684  11.106  10.454 -0.0556 -0.1788 -0.1347
  604loPI    C2 9650   4.765  10.973  10.823  0.1548  0.2314 -0.0269
  604loPI    C3 9651   4.386  11.043  10.714  0.0739 -0.0921  0.0371
  604loPI   PO4 9652   4.912  11.259  10.423  0.1220  0.1092 -0.1079
  604loPI   GL1 9653   5.142  11.504  10.126 -0.0060  0.0522  0.1258
  604loPI   GL2 9654   4.862  11.638   9.928 -0.0860 -0.1552  0.0859
  604loPI   C1A 9655   5.205  11.404   9.680 -0.1734  0.0506  0.0298
  604loPI   C2A 9656   5.119  11.527   9.281  0.0450  0.1311 -0.0600
  604loPI   C3A 9657   5.094  11.580   8.851  0.1259 -0.1023 -0.3583
  604loPI   C4A 9658   5.112  11.462   8.406  0.4311 -0.1115 -0.1354
  604loPI   C5A 9659   5.049  11.231   8.086 -0.1460  0.0674  0.0638
  604loPI   C6A 9660   4.981  11.070   7.649 -0.0949  0.0784  0.0247
  604loPI   C1B 9661   4.817  11.909   9.469 -0.0820 -0.0972 -0.2035
  604loPI   C2B 9662   4.823  11.947   9.080 -0.0900 -0.1056  0.0656
  604loPI   C3B 9663   4.791  11.914   8.620 -0.3233 -0.1901  0.1759
  604loPI   C4B 9664   4.772  11.852   8.186  0.0595 -0.5094 -0.1510
  605loPI    C1 9665   2.042  13.953  10.636 -0.4053  0.1693 -0.2031
  605loPI    C2 9666   2.066  14.240  10.914  0.1924 -0.2058  0.1543
  605loPI    C3 9667   1.779  13.962  10.937 -0.0450  0.0325  0.1241
  605loPI   PO4 9668   2.161  13.967  10.462 -0.1747 -0.1067  0.3538
  605loPI   GL1 9669   2.360  13.846  10.125 -0.2308 -0.2578 -0.2737
  605loPI   GL2 9670   2.064  13.728   9.900 -0.1780  0.4352 -0.1555
  605loPI   C1A 9671   2.507  13.930   9.747 -0.1427 -0.3664  0.1327
  605loPI   C2A 9672   2.617  13.905   9.246 -0.0750  0.0873 -0.3818
  605loPI   C3A 9673   2.548  13.972   8.747 -0.1005  0.1534 -0.1445
  605loPI   C4A 9674   2.580  13.871   8.422  0.0080  0.1292 -0.1059
  605loPI   C5A 9675   2.705  13.612   8.237 -0.1351 -0.0092  0.0993
  605loPI   C6A 9676   2.989  13.597   8.077 -0.3505  0.2635 -0.1797
  605loPI   C1B 9677   2.117  13.867   9.457 -0.1761  0.1931 -0.1098
  605loPI   C2B 9678   2.162  13.890   8.993  0.2005  0.0911 -0.2173
  605loPI   C3B 9679   2.006  13.927   8.587 -0.1860 -0.0288  0.1015
  605loPI   C4B 9680   2.006  14.136   8.054 -0.1703  0.0497 -0.0419
  606loPI    C1 9681   5.309  17.211  11.451  0.0371  0.0018 -0.2775
  606loPI    C2 9682   5.023  16.949  11.548  0.1367 -0.0206 -0.0385
  606loPI    C3 9683   4.924  17.318  11.431  0.0084 -0.0453 -0.0090
  606loPI   PO4 9684   5.483  17.156  11.278 -0.2079  0.0515 -0.0093
  606loPI   GL1 9685   5.493  17.261  10.743  0.2824  0.2586  0.0841
  606loPI   GL2 9686   5.707  17.069  10.574 -0.0398  0.0027 -0.0829
  606loPI   C1A 9687   5.444  17.480  10.376 -0.0432  0.1320  0.0041
  606loPI   C2A 9688   5.440  17.484   9.952  0.0329 -0.1217  0.0829
  606loPI   C3A 9689   5.531  17.562   9.547 -0.0073  0.1058  0.1410
  606loPI   C4A 9690   5.513  17.542   9.180  0.0731 -0.0527 -0.4866
  606loPI   C5A 9691   5.573  17.510   8.720 -0.4171 -0.1048 -0.0420
  606loPI   C6A 9692   5.803  17.305   8.428  0.2818  0.1432  0.0071
  606loPI   C1B 9693   5.743  17.120  10.163 -0.2717  0.0429 -0.1042
  606loPI   C2B 9694   5.752  17.192   9.774  0.0326  0.4880 -0.1621
  606loPI   C3B 9695   5.917  17.134   9.379 -0.0322 -0.0930 -0.2692
  606loPI   C4B 9696   6.001  17.124   8.887 -0.1894  0.2770 -0.4315
  607loPI    C1 9697   7.444   9.234  10.536  0.2758 -0.0085 -0.3362
  607loPI    C2 9698   7.468   9.428  10.885 -0.0903  0.1721 -0.4069
  607loPI    C3 9699   7.680   9.094  10.827 -0.1237  0.0675  0.0351
  607loPI   PO4 9700   7.543   9.285  10.387  0.3670 -0.1287  0.4360
  607loPI   GL1 9701   7.613   9.276  10.013  0.2133 -0.1625 -0.3515
  607loPI   GL2 9702   7.513   9.558   9.989 -0.1660 -0.0980  0.0903
  607loPI   C1A 9703   7.976   9.414   9.758 -0.1790  0.1572  0.0225
  607loPI   C2A 9704   7.954   9.629   9.371 -0.0708  0.1160 -0.1666
  607loPI   C3A 9705   8.023   9.703   8.889 -0.2221  0.0021 -0.0170
  607loPI   C4A 9706   7.949  10.068   8.736 -0.1339 -0.0185 -0.2761
  607loPI   C5A 9707   8.124  10.408   8.374 -0.3116  0.0872  0.1147
  607loPI   C6A 9708   8.276  10.771   8.527  0.1399 -0.0610 -0.2599
  607loPI   C1B 9709   7.556   9.281   9.507 -0.2492 -0.0980 -0.1658
  607loPI   C2B 9710   7.676   9.186   9.148 -0.3272 -0.1283 -0.2484
  607loPI   C3B 9711   7.694   9.099   8.750  0.4535  0.0978 -0.2492
  607loPI   C4B 9712   7.726   9.078   8.288  0.0428 -0.1464 -0.1578
  608loPI    C1 9713   5.681  12.883  10.956  0.0045  0.0687  0.1765
  608loPI    C2 9714   5.910  13.157  11.136  0.2170 -0.1225  0.2011
  608loPI    C3 9715   5.608  12.986  11.335 -0.0728  0.2682  0.1087
  608loPI   PO4 9716   5.811  12.683  10.828  0.0821 -0.0920 -0.0518
  608loPI   GL1 9717   5.802  12.649  10.347  0.3447  0.0937  0.2480
  608loPI   GL2 9718   5.629  12.455  10.312 -0.0175  0.1973  0.1359
  608loPI   C1A 9719   5.663  12.836   9.981 -0.1385  0.1312 -0.0806
  608loPI   C2A 9720   5.661  12.940   9.477  0.1954  0.1116  0.1150
  608loPI   C3A 9721   5.704  12.841   9.031 -0.0740  0.0703  0.0269
  608loPI   C4A 9722   5.667  13.002   8.593 -0.0329  0.2160 -0.0845
  608loPI   C5A 9723   5.707  13.107   8.189  0.3297 -0.1227  0.1446
  608loPI   C6A 9724   5.992  12.966   7.721  0.3013  0.1197 -0.1144
  608loPI   C1B 9725   5.499  12.289   9.831  0.2198 -0.0740 -0.1019
  608loPI   C2B 9726   5.477  12.470   9.504 -0.0952  0.0904 -0.2754
  608loPI   C3B 9727   5.438  12.425   9.065  0.0722  0.1055  0.1358
  608loPI   C4B 9728   5.427  12.451   8.575 -0.1684  0.2134  0.1299
  609POPI    C1 9729   7.499  17.394  11.435 -0.0329 -0.0545 -0.0118
  609POPI    C2 9730   7.209  17.662  11.377  0.0775  0.0663 -0.0108
  609POPI    C3 9731   7.550  17.773  11.552  0.1136 -0.0812  0.0131
  609POPI   PO4 9732   7.455  17.267  11.157  0.0930  0.1348  0.1606
  609POPI   GL1 9733   7.322  17.015  10.695  0.1217  0.0755 -0.0458
  609POPI   GL2 9734   7.103  16.856  10.487  0.0389 -0.2195  0.0396
  609POPI   C1A 9735   7.267  17.228  10.223  0.1475  0.0365  0.1068
  609POPI   D2A 9736   7.341  17.181   9.784  0.1440  0.0010  0.1293
  609POPI   C3A 9737   7.340  17.321   9.441 -0.0061 -0.1418  0.1760
  609POPI   C4A 9738   7.421  17.381   8.996 -0.0043 -0.0875  0.0918
  609POPI   C1B 9739   7.026  16.831  10.123 -0.1349 -0.1865  0.1092
  609POPI   C2B 9740   7.140  16.721   9.682  0.0623  0.2658 -0.0732
  609POPI   C3B 9741   7.167  16.836   9.201  0.0758 -0.1660  0.1803
  609POPI   C4B 9742   7.313  16.880   8.746  0.1444  0.4303 -0.1889
  610POPI    C1 9743   0.781  13.810  10.322  0.0665 -0.0100  0.0842
  610POPI    C2 9744   0.744  14.128  10.562 -0.3403  0.0822 -0.0921
  610POPI    C3 9745   0.744  13.759  10.717  0.1125  0.1610  0.1116
  610POPI   PO4 9746   0.820  13.924  10.100  0.2720  0.0573  0.0903
  610POPI   GL1 9747   0.725  14.068   9.678  0.3549  0.2092  0.0648
  610POPI   GL2 9748   0.440  13.695   9.822 -0.0716  0.0841  0.0215
  610POPI   C1A 9749   0.745  14.147   9.204 -0.4365 -0.1762 -0.2798
  610POPI   D2A 9750   0.832  14.462   8.896  0.1695  0.2213  0.0442
  610POPI   C3A 9751   1.173  14.706   8.998 -0.3998 -0.0465 -0.0633
  610POPI   C4A 9752   1.440  14.716   9.312  0.0603  0.0802  0.1470
  610POPI   C1B 9753   0.553  13.599   9.479 -0.1181  0.1669  0.0527
  610POPI   C2B 9754   0.516  13.744   9.096  0.1228  0.0567 -0.2525
  610POPI   C3B 9755   0.383  14.065   8.850  0.0082 -0.1056  0.0346
  610POPI   C4B 9756   0.173  14.299   8.497 -0.2149 -0.0653  0.0444
  611POPI    C1 9757   3.818  12.511  10.542 -0.1160  0.1000 -0.1116
  611POPI    C2 9758   3.907  12.664  10.901 -0.0201 -0.0151 -0.0857
  611POPI    C3 9759   3.584  12.432  10.857  0.0945 -0.1885 -0.0233
  611POPI   PO4 9760   3.844  12.676  10.404  0.1134 -0.4082 -0.0422
  611POPI   GL1 9761   4.003  13.030  10.153 -0.2510  0.0394  0.0412
  611POPI   GL2 9762   4.282  13.120  10.098 -0.3975  0.2830 -0.4323
  611POPI   C1A 9763   4.176  13.102   9.627 -0.2908 -0.3493 -0.1302
  611POPI   D2A 9764   4.193  13.157   9.238  0.0279  0.0591 -0.2357
  611POPI   C3A 9765   4.113  13.325   8.790 -0.0998 -0.0733 -0.2784
  611POPI   C4A 9766   4.416  13.313   8.420  0.0070  0.0128  0.0780
  611POPI   C1B 9767   4.720  13.153   9.910 -0.0448 -0.0577  0.1994
  611POPI   C2B 9768   4.800  13.229   9.436  0.1415  0.0696 -0.2052
  611POPI   C3B 9769   4.699  13.365   9.063 -0.1038  0.0942 -0.1741
  611POPI   C4B 9770   4.888  13.282   8.648  0.3495  0.0613  0.1142
  612POPI    C1 9771   2.301  17.140  10.935 -0.1049  0.1521 -0.0001
  612POPI    C2 9772   2.541  17.256  11.233  0.0460 -0.0512 -0.0407
  612POPI    C3 9773   2.200  17.063  11.314  0.1333 -0.1907 -0.0027
  612POPI   PO4 9774   2.507  16.979  10.736  0.0394 -0.0402 -0.0006
  612POPI   GL1 9775   2.394  16.898  10.314  0.0685  0.1434 -0.3482
  612POPI   GL2 9776   2.572  17.160  10.197 -0.1794  0.0689  0.1264
  612POPI   C1A 9777   2.251  16.783   9.816  0.2705  0.0227 -0.0018
  612POPI   D2A 9778   2.322  16.797   9.355  0.0731 -0.0544 -0.3709
  612POPI   C3A 9779   2.639  16.836   9.049 -0.0191 -0.2197 -0.0418
  612POPI   C4A 9780   2.828  16.792   8.735  0.1505 -0.0968 -0.2380
  612POPI   C1B 9781   2.561  17.123   9.900  0.1500 -0.1066  0.1251
  612POPI   C2B 9782   2.426  17.225   9.546  0.0864 -0.3142  0.1543
  612POPI   C3B 9783   2.419  17.309   9.166  0.0306  0.0085 -0.2579
  612POPI   C4B 9784   2.477  17.219   8.741  0.1005 -0.0777  0.0807
  613POPI    C1 9785  10.003   1.294  11.232  0.0493  0.0135  0.2036
  613POPI    C2 9786  10.216   0.972  11.338  0.2134  0.0455 -0.0206
  613POPI    C3 9787  10.117   1.245  11.613  0.2054 -0.1183  0.1416
  613POPI   PO4 9788  10.007   1.297  10.903 -0.0102 -0.0085  0.5304
  613POPI   GL1 9789  10.173   1.524  10.593  0.0738  0.0845 -0.1151
  613POPI   GL2 9790  10.447   1.427  10.479 -0.3111  0.0600  0.2896
  613POPI   C1A 9791  10.041   1.653  10.162 -0.2312  0.1001  0.2907
  613POPI   D2A 9792  10.019   1.766   9.769 -0.1024 -0.0018 -0.1089
  613POPI   C3A 9793  10.037   1.581   9.338  0.3222  0.0130 -0.1396
  613POPI   C4A 9794   9.981   1.556   8.955 -0.2492  0.0311 -0.2416
  613POPI   C1B 9795  10.336   1.248  10.188 -0.1712 -0.1524  0.1591
  613POPI   C2B 9796  10.274   1.318   9.716  0.2801  0.2070 -0.0406
  613POPI   C3B 9797  10.342   1.219   9.201 -0.1863  0.0785  0.1334
  613POPI   C4B 9798  10.236   1.160   8.807 -0.4858 -0.0495  0.0849
  614POPI    C1 9799  14.302  17.826  10.652 -0.1772 -0.0255 -0.0543
  614POPI    C2 9800  14.251  17.622  10.992  0.0128 -0.1556 -0.1023
  614POPI    C3 9801  14.424  17.982  11.000 -0.1593 -0.0732 -0.0390
  614POPI   PO4 9802  14.161  17.674  10.446  0.1491  0.2824 -0.0381
  614POPI   GL1 9803  13.944  17.896  10.170  0.0543 -0.4556 -0.2677
  614POPI   GL2 9804  13.648  18.143  10.177 -0.1161  0.1807 -0.0578
  614POPI   C1A 9805  14.016  17.711   9.770  0.1137 -0.0146 -0.2484
  614POPI   D2A 9806  13.994  17.790   9.352 -0.0308 -0.1577  0.1922
  614POPI   C3A 9807  13.934  17.773   8.977 -0.1883  0.1654  0.2555
  614POPI   C4A 9808  13.919  17.752   8.545  0.0733 -0.1142 -0.1049
  614POPI   C1B 9809  13.643  18.170   9.777 -0.0325  0.2046  0.2694
  614POPI   C2B 9810  13.562  18.129   9.304  0.1727 -0.0953  0.1125
  614POPI   C3B 9811  13.651  18.134   8.837  0.2814 -0.0328 -0.0180
  614POPI   C4B 9812  13.701  18.215   8.432  0.0871  0.0117 -0.1697
  615POPI    C1 9813  10.942  16.389  10.872 -0.0452  0.0990 -0.1205
  615POPI    C2 9814  11.255  16.587  10.719 -0.0193 -0.0114 -0.2121
  615POPI    C3 9815  11.269  16.450  11.094  0.1440 -0.2370 -0.2984
  615POPI   PO4 9816  10.953  16.237  10.669  0.1220  0.0797 -0.3304
  615POPI   GL1 9817  10.843  16.334  10.334  0.0961  0.1315 -0.0363
  615POPI   GL2 9818  10.448  16.298  10.409 -0.0783 -0.0456 -0.0351
  615POPI   C1A 9819  10.974  16.390   9.848  0.2470 -0.1691 -0.0487
  615POPI   D2A 9820  11.122  16.840   9.646  0.1823  0.0037 -0.1678
  615POPI   C3A 9821  11.296  17.106   9.928 -0.2545  0.1390  0.1229
  615POPI   C4A 9822  11.691  17.235  10.041 -0.0431  0.0581 -0.0585
  615POPI   C1B 9823  10.456  16.312   9.944 -0.1683 -0.1012 -0.0329
  615POPI   C2B 9824  10.419  16.295   9.527  0.0405  0.1919 -0.0325
  615POPI   C3B 9825  10.535  16.217   9.177 -0.0672  0.0535  0.2271
  615POPI   C4B 9826  10.632  16.242   8.831 -0.0386  0.0944  0.1581
  616POPI    C1 9827   0.668   3.822  10.865 -0.1171  0.0211  0.0400
  616POPI    C2 9828   0.878   4.125  10.710 -0.2860  0.0535 -0.1282
  616POPI    C3 9829   0.794   4.120  11.101  0.1516 -0.0343 -0.0298
  616POPI   PO4 9830   0.454   3.775  10.725 -0.1523  0.2880 -0.0423
  616POPI   GL1 9831   0.433   3.936  10.379 -0.0703  0.1297  0.2705
  616POPI   GL2 9832   0.163   3.788  10.337  0.0057 -0.2873  0.3041
  616POPI   C1A 9833   0.572   3.908   9.993 -0.1841  0.0963 -0.1836
  616POPI   D2A 9834   0.421   3.880   9.554 -0.1653 -0.1579 -0.0733
  616POPI   C3A 9835   0.376   3.837   9.105 -0.2027 -0.2777 -0.1437
  616POPI   C4A 9836   0.549   3.795   8.594  0.1756 -0.2144  0.2714
  616POPI   C1B 9837   0.049   3.868   9.847  0.1045 -0.2081 -0.0731
  616POPI   C2B 9838  -0.008   3.749   9.406 -0.1110 -0.0682  0.0589
  616POPI   C3B 9839  -0.029   3.710   8.881  0.0958  0.0631  0.0006
  616POPI   C4B 9840  -0.121   3.635   8.491 -0.2227  0.1607 -0.1911
  617POPI    C1 9841  16.584  14.849  10.651 -0.1257  0.0622  0.0947
  617POPI    C2 9842  16.699  14.618  10.957  0.1880  0.0670 -0.0164
  617POPI    C3 9843  16.867  14.977  10.902  0.1511  0.0563 -0.2073
  617POPI   PO4 9844  16.508  14.705  10.515  0.2090  0.0066  0.2556
  617POPI   GL1 9845  16.314  14.776  10.094 -0.1504 -0.1867 -0.2347
  617POPI   GL2 9846  16.613  14.946  10.117  0.2074 -0.0179  0.1931
  617POPI   C1A 9847  16.213  14.787   9.656 -0.3158  0.1965 -0.0569
  617POPI   D2A 9848  16.234  14.969   9.353  0.2608 -0.0355  0.0202
  617POPI   C3A 9849  16.168  14.724   9.045  0.0034 -0.0644  0.1046
  617POPI   C4A 9850  16.196  14.643   8.692 -0.0276  0.1868 -0.2721
  617POPI   C1B 9851  16.266  15.250   9.854  0.0792  0.1484 -0.0902
  617POPI   C2B 9852  15.763  15.321   9.804  0.0538  0.0859  0.1047
  617POPI   C3B 9853  15.604  15.448   9.492  0.1819  0.1975 -0.2659
  617POPI   C4B 9854  15.704  15.867   9.422  0.0525 -0.1851  0.1005
  618POPI    C1 9855   5.951  10.270  10.318  0.2716 -0.1140  0.0964
  618POPI    C2 9856   5.990   9.888  10.430  0.0608 -0.1394  0.0874
  618POPI    C3 9857   5.731  10.127  10.620  0.0440 -0.0560 -0.0394
  618POPI   PO4 9858   5.817  10.298  10.101  0.2170 -0.1367 -0.2090
  618POPI   GL1 9859   5.657  10.115   9.761 -0.1291  0.0340 -0.0792
  618POPI   GL2 9860   5.341  10.125   9.532  0.0262 -0.1970  0.0865
  618POPI   C1A 9861   5.768   9.937   9.332  0.3292 -0.2352  0.0869
  618POPI   D2A 9862   5.895   9.888   8.913  0.1430 -0.1853 -0.2136
  618POPI   C3A 9863   6.095  10.185   8.650 -0.1311 -0.0126 -0.1660
  618POPI   C4A 9864   6.319  10.490   8.731 -0.1636 -0.2047  0.2372
  618POPI   C1B 9865   5.635  10.535   9.412 -0.2005 -0.1703 -0.2760
  618POPI   C2B 9866   5.932  10.884   9.108  0.1959  0.0110  0.0887
  618POPI   C3B 9867   6.139  11.223   9.178  0.1163 -0.2688 -0.0094
  618POPI   C4B 9868   6.535  11.317   9.036 -0.2490 -0.0009  0.1620
  619POPI    C1 9869  13.112   2.911  10.922  0.2379  0.0710 -0.0279
  619POPI    C2 9870  13.490   3.009  11.011  0.2102  0.1083  0.0495
  619POPI    C3 9871  13.273   2.790  11.267  0.2873 -0.2005 -0.1438
  619POPI   PO4 9872  13.077   2.886  10.676 -0.1794 -0.1475  0.2188
  619POPI   GL1 9873  12.746   2.972  10.362 -0.0488  0.2086  0.1320
  619POPI   GL2 9874  12.429   2.885  10.193 -0.0384 -0.0477 -0.0520
  619POPI   C1A 9875  12.929   2.930   9.992  0.1016 -0.1058 -0.2601
  619POPI   D2A 9876  12.941   2.870   9.593  0.3340  0.1707  0.1710
  619POPI   C3A 9877  12.960   2.969   9.139 -0.2380 -0.1104 -0.0251
  619POPI   C4A 9878  12.986   2.916   8.724 -0.1493 -0.2368  0.1022
  619POPI   C1B 9879  12.459   2.923   9.758  0.1364  0.0071  0.0245
  619POPI   C2B 9880  12.496   2.907   9.364 -0.1280 -0.1361  0.0974
  619POPI   C3B 9881  12.462   2.953   8.872 -0.0251  0.0561  0.1086
  619POPI   C4B 9882  12.481   2.966   8.375 -0.1789  0.0124  0.1262
  620POPI    C1 9883  10.937  10.409  10.514  0.0087 -0.1588  0.0717
  620POPI    C2 9884  11.048  10.055  10.665  0.1230 -0.0890  0.1530
  620POPI    C3 9885  10.881  10.330  10.903 -0.0881 -0.1367  0.0624
  620POPI   PO4 9886  10.906  10.236  10.212 -0.0509 -0.0823  0.0014
  620POPI   GL1 9887  11.192  10.357   9.966  0.0841 -0.1432 -0.1547
  620POPI   GL2 9888  10.940  10.455   9.776 -0.1843 -0.0195 -0.1991
  620POPI   C1A 9889  11.317  10.288   9.613  0.0755 -0.1895  0.2513
  620POPI   D2A 9890  11.423  10.089   9.280  0.0343 -0.2961  0.1965
  620POPI   C3A 9891  11.201   9.940   8.954 -0.0825 -0.0893 -0.1989
  620POPI   C4A 9892  11.087   9.603   8.720  0.0764  0.2460  0.1809
  620POPI   C1B 9893  10.986  10.368   9.271 -0.1682  0.1885 -0.0175
  620POPI   C2B 9894  10.811  10.234   8.887 -0.3360 -0.0853 -0.2551
  620POPI   C3B 9895  10.916  10.093   8.526  0.0322  0.0100  0.1618
  620POPI   C4B 9896  11.139  10.052   8.075  0.0302  0.0906 -0.1021
  621POPI    C1 9897  16.443  18.129  10.834  0.0103 -0.2212 -0.1829
  621POPI    C2 9898  16.661  17.810  10.935  0.0011 -0.2295 -0.1886
  621POPI    C3 9899  16.261  17.791  10.945  0.0014 -0.1819 -0.0765
  621POPI   PO4 9900  16.514  18.191  10.603 -0.2678 -0.2962  0.2631
  621POPI   GL1 9901  16.626  18.199  10.196  0.2937 -0.1777 -0.0515
  621POPI   GL2 9902  16.718  18.049  10.007 -0.0241  0.2856  0.1554
  621POPI   C1A 9903  16.578  18.503   9.840  0.1012  0.0789  0.0034
  621POPI   D2A 9904  16.837  18.681   9.477  0.0311  0.2513  0.0499
  621POPI   C3A 9905  16.707  18.625   9.041 -0.3411  0.3870 -0.2684
  621POPI   C4A 9906  16.592  18.440   8.667  0.0562 -0.0084  0.0401
  621POPI   C1B 9907  16.622  18.098   9.462  0.0965  0.0099 -0.1890
  621POPI   C2B 9908  16.476  18.116   9.087  0.1555  0.2564 -0.1042
  621POPI   C3B 9909  16.477  17.967   8.613  0.0639 -0.1446 -0.1343
  621POPI   C4B 9910  16.651  17.617   8.300 -0.0017  0.3855  0.0565
  622POPI    C1 9911  12.110   9.148  10.721  0.0098  0.0310  0.0337
  622POPI    C2 9912  12.377   9.004  10.982  0.1793  0.1732 -0.0586
  622POPI    C3 9913  12.369   9.395  10.899 -0.1788  0.1993  0.0779
  622POPI   PO4 9914  12.085   9.109  10.474 -0.5423 -0.0333 -0.0331
  622POPI   GL1 9915  11.753   9.127  10.111 -0.5904 -0.0183 -0.4401
  622POPI   GL2 9916  11.992   9.106   9.970  0.0070  0.3525 -0.2433
  622POPI   C1A 9917  11.737   9.139   9.578  0.1498  0.1758  0.2481
  622POPI   D2A 9918  11.918   9.209   9.242 -0.1731  0.2282 -0.2511
  622POPI   C3A 9919  11.888   9.361   8.763 -0.2274  0.1585 -0.2906
  622POPI   C4A 9920  11.792   9.403   8.280 -0.0098  0.3004 -0.2384
  622POPI   C1B 9921  12.230   9.175   9.634  0.0710 -0.0024  0.0448
  622POPI   C2B 9922  12.402   9.399   9.281  0.0051  0.0759 -0.0273
  622POPI   C3B 9923  12.395   9.372   8.881  0.3566  0.1940  0.0776
  622POPI   C4B 9924  12.191   9.164   8.470 -0.0512  0.2492 -0.0352
  623POPI    C1 9925   6.778   2.981  11.102 -0.2495  0.1050 -0.0822
  623POPI    C2 9926   6.574   2.952  11.444  0.0649  0.3288  0.1293
  623POPI    C3 9927   6.915   3.162  11.431  0.2140  0.0734 -0.2495
  623POPI   PO4 9928   6.767   2.724  10.969 -0.1490  0.3237  0.1937
  623POPI   GL1 9929   6.805   2.636  10.599 -0.1830  0.3311 -0.1465
  623POPI   GL2 9930   7.069   2.665  10.392 -0.3326  0.2427  0.1233
  623POPI   C1A 9931   6.576   2.649  10.186 -0.2188 -0.0454  0.3956
  623POPI   D2A 9932   6.459   2.565   9.797 -0.0018  0.1548  0.2350
  623POPI   C3A 9933   6.514   2.542   9.320  0.1571 -0.0096  0.3184
  623POPI   C4A 9934   6.520   2.490   8.888 -0.1037  0.0804 -0.3367
  623POPI   C1B 9935   7.013   2.721   9.957  0.0380 -0.2049 -0.0089
  623POPI   C2B 9936   6.991   2.612   9.441  0.0832  0.0101  0.1437
  623POPI   C3B 9937   6.988   2.610   9.021  0.0479 -0.3204 -0.0963
  623POPI   C4B 9938   6.964   2.615   8.657 -0.1200  0.1655  0.0233
  624POPI    C1 9939   2.291   3.525  10.602  0.0610  0.0422  0.1492
  624POPI    C2 9940   2.382   3.911  10.660 -0.0606  0.0507  0.2906
  624POPI    C3 9941   2.288   3.678  10.972 -0.1525 -0.0513  0.1879
  624POPI   PO4 9942   2.491   3.422  10.393 -0.2957  0.1805  0.3993
  624POPI   GL1 9943   2.293   3.383  10.011 -0.0271 -0.0095  0.2277
  624POPI   GL2 9944   2.347   3.549   9.749 -0.1964 -0.0012  0.3950
  624POPI   C1A 9945   2.534   3.040   9.799  0.4122 -0.2312 -0.2128
  624POPI   D2A 9946   2.679   2.912   9.297  0.0208 -0.3073 -0.0911
  624POPI   C3A 9947   2.601   2.914   8.937 -0.0623  0.0602  0.1399
  624POPI   C4A 9948   2.819   3.064   8.524 -0.1149  0.1411 -0.1026
  624POPI   C1B 9949   2.322   3.593   9.396  0.4029 -0.1876  0.2494
  624POPI   C2B 9950   2.400   3.453   8.940 -0.0414  0.0248  0.1000
  624POPI   C3B 9951   2.378   3.463   8.456 -0.1137 -0.4338  0.0191
  624POPI   C4B 9952   2.635   3.180   8.111 -0.1499 -0.1359  0.2168
  625DPPI    C1 9953   9.898   3.688  11.162  0.0046  0.2603 -0.0773
  625DPPI    C2 9954  10.281   3.691  11.044  0.0580  0.0353  0.0832
  625DPPI    C3 9955  10.140   3.987  11.274  0.1598  0.0712  0.0996
  625DPPI   PO4 9956   9.765   3.599  10.880 -0.1125  0.0231  0.0219
  625DPPI   GL1 9957  10.087   3.642  10.527  0.2038 -0.1624  0.0789
  625DPPI   GL2 9958   9.870   3.448  10.447 -0.1290  0.0096  0.0975
  625DPPI   C1A 9959  10.092   3.866  10.156 -0.0417 -0.3087  0.0930
  625DPPI   C2A 9960  10.007   3.881   9.660 -0.0898  0.0055 -0.3171
  625DPPI   C3A 9961   9.939   3.978   9.322  0.4682  0.1648  0.0774
  625DPPI   C4A 9962   9.899   3.984   8.902  0.3404 -0.0840 -0.4906
  625DPPI   C1B 9963   9.800   3.405  10.077 -0.3328  0.0209  0.0836
  625DPPI   C2B 9964   9.803   3.479   9.659 -0.0300  0.1297 -0.5199
  625DPPI   C3B 9965   9.768   3.487   9.262  0.0764 -0.0592 -0.2309
  625DPPI   C4B 9966   9.698   3.504   8.862  0.2489  0.2617  0.2896
  626DPPI    C1 9967   6.301  12.907  11.090  0.2126  0.1552  0.1163
  626DPPI    C2 9968   6.643  12.779  10.928  0.1001 -0.0301  0.0228
  626DPPI    C3 9969   6.369  12.515  11.052 -0.1273  0.1186 -0.1569
  626DPPI   PO4 9970   6.460  13.245  10.931  0.2053 -0.0888  0.4399
  626DPPI   GL1 9971   6.457  13.352  10.460  0.2374  0.2754  0.0998
  626DPPI   GL2 9972   6.678  13.060  10.525 -0.1225 -0.3410 -0.3396
  626DPPI   C1A 9973   6.301  13.570  10.179  0.0450 -0.3792 -0.1535
  626DPPI   C2A 9974   6.250  13.502   9.807  0.1651 -0.0594  0.2223
  626DPPI   C3A 9975   6.283  13.535   9.377 -0.0688  0.3077  0.1171
  626DPPI   C4A 9976   6.403  13.529   8.904  0.0036  0.0740  0.0631
  626DPPI   C1B 9977   6.586  13.014  10.086  0.1914 -0.0411  0.1933
  626DPPI   C2B 9978   6.594  13.165   9.630  0.2535  0.0002  0.1615
  626DPPI   C3B 9979   6.612  13.153   9.238  0.0812 -0.1399 -0.2012
  626DPPI   C4B 9980   6.693  13.152   8.746 -0.0984  0.1751  0.0545
  627DPPI    C1 9981  11.671  15.693  11.208  0.0653 -0.2054 -0.1130
  627DPPI    C2 9982  11.656  15.605  11.598 -0.2261 -0.0635 -0.0890
  627DPPI    C3 9983  11.914  15.414  11.359 -0.1174 -0.2243  0.1530
  627DPPI   PO4 9984  11.502  15.591  11.061  0.2104  0.0522  0.0261
  627DPPI   GL1 9985  11.601  15.598  10.536  0.0784  0.0723 -0.3203
  627DPPI   GL2 9986  11.679  15.304  10.436 -0.3679  0.1054  0.0582
  627DPPI   C1A 9987  11.574  15.659  10.083 -0.1433 -0.2481  0.0121
  627DPPI   C2A 9988  11.622  15.563   9.675  0.0988 -0.0320 -0.1352
  627DPPI   C3A 9989  11.673  15.565   9.244  0.1876 -0.4159 -0.2832
  627DPPI   C4A 9990  11.756  15.601   8.792  0.0019 -0.2358 -0.1035
  627DPPI   C1B 9991  11.931  15.212  10.011 -0.2936 -0.0273  0.1778
  627DPPI   C2B 9992  11.938  15.138   9.631  0.2055 -0.3178 -0.3444
  627DPPI   C3B 9993  11.954  15.203   9.159  0.0260 -0.1671  0.0843
  627DPPI   C4B 9994  12.081  15.245   8.758  0.0830 -0.1252 -0.2427
  628DPPI    C1 9995  13.695   7.484  10.614  0.1216  0.0536 -0.1925
  628DPPI    C2 9996  13.623   7.837  10.789  0.1029  0.0315 -0.1554
  628DPPI    C3 9997  13.550   7.497  10.987  0.0368  0.0057 -0.2237
  628DPPI   PO4 9998  13.602   7.482  10.353 -0.2278 -0.1880 -0.2397
  628DPPI   GL1 9999  13.518   7.088  10.232  0.5474 -0.1048  0.2394
  628DPPI   GL210000  13.187   7.120  10.306 -0.1304  0.2747  0.0821
  628DPPI   C1A10001  13.703   7.013   9.855  0.4736 -0.1988 -0.2094
  628DPPI   C2A10002  13.693   7.108   9.376  0.0492  0.0140 -0.1877
  628DPPI   C3A10003  13.743   7.198   8.870 -0.2738  0.2245  0.0841
  628DPPI   C4A10004  13.773   7.127   8.479  0.1567 -0.0840  0.5689
  628DPPI   C1B10005  13.212   7.023   9.836 -0.1881  0.1316  0.2694
  628DPPI   C2B10006  13.152   6.970   9.368  0.3269 -0.0849 -0.1285
  628DPPI   C3B10007  13.126   7.172   8.949 -0.0969 -0.0442  0.3859
  628DPPI   C4B10008  12.912   7.251   8.552 -0.1715  0.1538 -0.0662
  629DPPI    C110009   4.838   4.857  10.697 -0.2256 -0.1502 -0.0952
  629DPPI    C210010   4.581   5.152  10.617  0.0686  0.1566  0.0650
  629DPPI    C310011   4.514   4.907  10.926 -0.0876  0.1621  0.0366
  629DPPI   PO410012   5.039   4.892  10.444  0.2235 -0.1683 -0.3318
  629DPPI   GL110013   5.020   4.826  10.086  0.1522 -0.0027 -0.0853
  629DPPI   GL210014   5.293   4.584  10.030  0.2496  0.1073 -0.0055
  629DPPI   C1A10015   4.759   4.548   9.905  0.3894 -0.2359  0.0275
  629DPPI   C2A10016   4.376   4.487   9.698  0.0309 -0.2269 -0.0528
  629DPPI   C3A10017   4.333   4.519   9.261 -0.2741  0.1537 -0.1793
  629DPPI   C4A10018   4.237   4.574   8.811  0.1574  0.1352  0.2051
  629DPPI   C1B10019   5.296   4.649   9.574 -0.2642 -0.0940  0.1713
  629DPPI   C2B10020   5.277   4.601   9.257 -0.0753  0.0278 -0.0666
  629DPPI   C3B10021   5.295   4.679   8.746 -0.0466  0.0608  0.3066
  629DPPI   C4B10022   5.362   4.620   8.292  0.0260 -0.1753  0.1299
  630DPPI    C110023  11.627  12.095  10.680  0.0675 -0.3966 -0.2707
  630DPPI    C210024  11.369  12.010  10.973  0.1678  0.1894  0.0028
  630DPPI    C310025  11.708  11.801  10.939  0.0436 -0.0409  0.1529
  630DPPI   PO410026  11.700  12.331  10.701 -0.4865  0.4118  0.3612
  630DPPI   GL110027  11.660  12.567  10.280 -0.0464  0.0420 -0.2870
  630DPPI   GL210028  11.306  12.566  10.250  0.1261  0.0898 -0.1194
  630DPPI   C1A10029  11.558  12.795   9.902 -0.1141 -0.1370  0.4082
  630DPPI   C2A10030  11.438  12.938   9.500  0.1434  0.2232 -0.0115
  630DPPI   C3A10031  11.418  12.978   8.985 -0.0322 -0.1209  0.0658
  630DPPI   C4A10032  11.614  12.859   8.698  0.1384 -0.2002 -0.2695
  630DPPI   C1B10033  11.185  13.007  10.114  0.0048 -0.0284 -0.0620
  630DPPI   C2B10034  11.102  13.244   9.736 -0.1774 -0.1672 -0.0301
  630DPPI   C3B10035  11.098  13.258   9.261 -0.1329 -0.2410  0.0193
  630DPPI   C4B10036  11.158  13.306   8.749 -0.1674  0.0368 -0.1415
  631DPPI    C110037   3.014   4.182  10.249 -0.0106 -0.0183 -0.1816
  631DPPI    C210038   3.147   4.170  10.626 -0.0636 -0.0371 -0.1634
  631DPPI    C310039   2.755   4.200  10.554 -0.0595 -0.1097 -0.2173
  631DPPI   PO410040   3.071   4.030  10.146 -0.2065  0.1944 -0.3406
  631DPPI   GL110041   3.085   4.056   9.713  0.0119  0.0038 -0.1988
  631DPPI   GL210042   2.795   4.043   9.662 -0.1271 -0.2875  0.5020
  631DPPI   C1A10043   3.166   4.005   9.284  0.1285  0.3085 -0.1397
  631DPPI   C2A10044   2.918   4.017   8.952 -0.5203  0.3104  0.1844
  631DPPI   C3A10045   2.972   3.996   8.474  0.2562 -0.1619 -0.1524
  631DPPI   C4A10046   3.046   4.191   8.060  0.2864  0.4939 -0.2825
  631DPPI   C1B10047   2.609   4.065   9.392  0.2997 -0.0438  0.0782
  631DPPI   C2B10048   2.424   3.898   9.003 -0.2901  0.2135  0.0230
  631DPPI   C3B10049   2.526   3.941   8.598 -0.0763 -0.1237 -0.1755
  631DPPI   C4B10050   2.643   3.814   8.062 -0.1287  0.2678  0.3028
  632DPPI    C110051  16.833  14.328  10.528  0.1088  0.0107 -0.0344
  632DPPI    C210052  17.116  14.561  10.689  0.2324 -0.0420 -0.1727
  632DPPI    C310053  17.080  14.180  10.805  0.1291  0.0024 -0.0568
  632DPPI   PO410054  16.844  14.414  10.267 -0.0775  0.2020  0.4192
  632DPPI   GL110055  16.725  14.483   9.823 -0.1039  0.2301  0.2497
  632DPPI   GL210056  16.433  14.371   9.850  0.0708 -0.1435 -0.1721
  632DPPI   C1A10057  17.049  14.519   9.558 -0.1587 -0.0334  0.0719
  632DPPI   C2A10058  17.046  14.494   9.223 -0.1915 -0.1189 -0.0203
  632DPPI   C3A10059  16.984  14.367   8.760  0.0833  0.1594 -0.0319
  632DPPI   C4A10060  16.954  14.327   8.353  0.0164  0.1310  0.1690
  632DPPI   C1B10061  16.500  14.418   9.401  0.0024  0.1220  0.0291
  632DPPI   C2B10062  16.569  14.388   8.992  0.1393 -0.0400  0.1364
  632DPPI   C3B10063  16.504  14.287   8.599 -0.0526  0.3256 -0.1994
  632DPPI   C4B10064  16.547  14.135   8.198  0.2200  0.3718  0.4217
  633DPPI    C110065  11.531   5.183  11.324  0.0635 -0.1281  0.2478
  633DPPI    C210066  11.285   5.464  11.181  0.3123  0.0102  0.0832
  633DPPI    C310067  11.263   5.356  11.566 -0.0027  0.0201  0.0706
  633DPPI   PO410068  11.631   5.114  10.986  0.0897  0.3744 -0.2274
  633DPPI   GL110069  11.804   5.138  10.493  0.2337  0.1216  0.0321
  633DPPI   GL210070  11.692   4.875  10.508  0.1388 -0.0455  0.2947
  633DPPI   C1A10071  11.808   5.064   9.997 -0.1539 -0.0954 -0.1548
  633DPPI   C2A10072  11.825   5.036   9.569  0.3069  0.2267 -0.1786
  633DPPI   C3A10073  11.841   5.034   9.174  0.3057  0.0169 -0.1194
  633DPPI   C4A10074  11.812   4.950   8.756  0.0193  0.1114  0.0344
  633DPPI   C1B10075  11.754   4.630  10.132 -0.0088 -0.1337 -0.0717
  633DPPI   C2B10076  11.735   4.554   9.702  0.0145  0.1489  0.1861
  633DPPI   C3B10077  11.662   4.592   9.272  0.0919 -0.0931 -0.2797
  633DPPI   C4B10078  11.595   4.515   8.853  0.2991  0.0269  0.1017
  634DPPI    C110079   8.757   5.630  10.929  0.3015 -0.0466  0.1780
  634DPPI    C210080   8.975   5.959  10.866  0.3230 -0.0990 -0.0301
  634DPPI    C310081   8.715   5.946  11.170  0.5490 -0.0063  0.1708
  634DPPI   PO410082   8.695   5.491  10.705 -0.1985 -0.2010 -0.2680
  634DPPI   GL110083   8.857   5.627  10.424  0.1398  0.0331 -0.0448
  634DPPI   GL210084   8.556   5.664  10.222  0.0336  0.0389  0.1365
  634DPPI   C1A10085   9.080   5.694  10.051 -0.0985 -0.3798 -0.1540
  634DPPI   C2A10086   9.115   5.761   9.667  0.0866  0.0817 -0.1364
  634DPPI   C3A10087   9.152   5.713   9.204  0.0855  0.0471  0.0466
  634DPPI   C4A10088   9.132   5.667   8.807  0.0736  0.1045 -0.2019
  634DPPI   C1B10089   8.622   5.647   9.820  0.0010  0.0297  0.0236
  634DPPI   C2B10090   8.674   5.714   9.406 -0.1617 -0.0092  0.0698
  634DPPI   C3B10091   8.595   5.623   9.010 -0.0664 -0.0444 -0.1985
  634DPPI   C4B10092   8.684   5.551   8.548 -0.2199 -0.0706 -0.0721
  635PYPI    C110093  12.453   6.734  10.886 -0.0107 -0.0246  0.0725
  635PYPI    C210094  12.727   6.874  11.142 -0.0435  0.1222  0.0279
  635PYPI    C310095  12.338   6.897  11.233 -0.0648  0.3333 -0.1101
  635PYPI   PO410096  12.625   6.629  10.661  0.3334 -0.0045 -0.3485
  635PYPI   GL110097  12.558   6.395  10.328  0.0121 -0.1102 -0.1026
  635PYPI   GL210098  12.649   6.139  10.394 -0.1242  0.3130  0.1531
  635PYPI   C1A10099  12.505   6.487   9.956 -0.2058 -0.0321  0.1574
  635PYPI   C2A10100  12.523   6.555   9.453  0.0535  0.0910  0.0523
  635PYPI   D3A10101  12.472   6.480   8.995 -0.0396  0.0840  0.0261
  635PYPI   C4A10102  12.647   6.415   8.576 -0.0738 -0.3830  0.0222
  635PYPI   C1B10103  12.779   6.031   9.989 -0.1810 -0.0182  0.0193
  635PYPI   C2B10104  12.809   6.114   9.592  0.4365 -0.2028 -0.0959
  635PYPI   C3B10105  12.758   6.053   9.236 -0.1492  0.1841 -0.0349
  635PYPI   C4B10106  12.781   6.059   8.892 -0.3879 -0.0119 -0.3001
  636PYPI    C110107  10.112   9.478  10.665 -0.1006 -0.0604 -0.0775
  636PYPI    C210108  10.283   9.676  10.968 -0.1018  0.0198 -0.1289
  636PYPI    C310109  10.118   9.317  11.031  0.2912 -0.1661 -0.1262
  636PYPI   PO410110  10.300   9.510  10.496  0.1169 -0.1296  0.0374
  636PYPI   GL110111  10.376   9.321  10.112 -0.2036 -0.2582 -0.1956
  636PYPI   GL210112  10.146   9.305   9.957  0.2133 -0.1273  0.1424
  636PYPI   C1A10113  10.629   9.113   9.779  0.2358 -0.2233  0.2361
  636PYPI   C2A10114  10.830   9.087   9.402  0.0782 -0.2255 -0.2631
  636PYPI   D3A10115  10.928   9.114   9.004  0.0084 -0.2385  0.4074
  636PYPI   C4A10116  10.764   9.202   8.645 -0.0251 -0.0387  0.2418
  636PYPI   C1B10117   9.889   9.302   9.679 -0.1766  0.2708  0.1405
  636PYPI   C2B10118   9.909   9.238   9.291 -0.2688  0.0988 -0.1516
  636PYPI   C3B10119   9.661   9.277   8.814 -0.0690 -0.1500  0.0928
  636PYPI   C4B10120   9.812   9.122   8.474  0.0931  0.0225  0.0766
  637PYPI    C110121  17.484   2.145  10.766 -0.1232 -0.1151  0.0963
  637PYPI    C210122  17.870   2.050  10.811 -0.0878 -0.0593 -0.0801
  637PYPI    C310123  17.619   2.022  11.122  0.0824  0.0184  0.0658
  637PYPI   PO410124  17.533   2.184  10.458  0.0786  0.3495 -0.2917
  637PYPI   GL110125  17.480   2.199   9.963  0.5055  0.1322 -0.2055
  637PYPI   GL210126  17.724   2.405   9.958 -0.0694 -0.0405  0.0567
  637PYPI   C1A10127  17.164   2.237   9.672 -0.2698 -0.0521  0.0576
  637PYPI   C2A10128  17.047   2.077   9.257  0.0350 -0.2285 -0.5029
  637PYPI   D3A10129  17.149   2.026   8.831 -0.1522  0.0236  0.1732
  637PYPI   C4A10130  17.005   2.231   8.511 -0.1990  0.2471 -0.1346
  637PYPI   C1B10131  17.648   2.347   9.514  0.0692  0.0616  0.0321
  637PYPI   C2B10132  17.548   2.245   9.145 -0.3251 -0.1311 -0.2130
  637PYPI   C3B10133  17.644   2.258   8.685 -0.2123  0.0184 -0.0959
  637PYPI   C4B10134  17.519   2.091   8.284  0.0203 -0.0370  0.3356
  638PYPI    C110135  16.905   8.337  10.919  0.4406 -0.0791 -0.0042
  638PYPI    C210136  16.714   8.070  10.690 -0.0782  0.1777  0.1134
  638PYPI    C310137  16.870   7.957  11.040 -0.0474 -0.0295  0.0339
  638PYPI   PO410138  17.004   8.472  10.631  0.4118 -0.2187  0.2991
  638PYPI   GL110139  16.932   8.466  10.304  0.0623 -0.2760 -0.2803
  638PYPI   GL210140  16.656   8.411  10.203 -0.5145 -0.1802  0.1430
  638PYPI   C1A10141  17.045   8.554   9.827  0.1372  0.3036  0.0251
  638PYPI   C2A10142  17.125   8.527   9.419 -0.0194 -0.4783  0.0614
  638PYPI   D3A10143  17.112   8.476   8.916 -0.0797 -0.1406 -0.0837
  638PYPI   C4A10144  17.236   8.464   8.505  0.2577  0.0579  0.2206
  638PYPI   C1B10145  16.553   8.462   9.759  0.1335 -0.2156  0.3001
  638PYPI   C2B10146  16.614   8.488   9.370 -0.0024  0.2953 -0.0534
  638PYPI   C3B10147  16.609   8.455   9.002  0.1873 -0.3530 -0.1232
  638PYPI   C4B10148  16.656   8.457   8.611  0.1582 -0.0595  0.0147
  639PYPI    C110149   8.137   8.101  10.537  0.0414 -0.2405  0.0428
  639PYPI    C210150   8.421   8.267  10.310 -0.0735 -0.0847  0.0114
  639PYPI    C310151   8.521   8.072  10.645  0.0811 -0.1547 -0.0743
  639PYPI   PO410152   7.950   7.976  10.323 -0.0937  0.2544 -0.2427
  639PYPI   GL110153   8.125   7.845   9.962  0.0388  0.0293 -0.2538
  639PYPI   GL210154   8.317   7.607   9.837  0.3601  0.0015  0.1935
  639PYPI   C1A10155   8.053   7.916   9.451  0.3331  0.0129 -0.0002
  639PYPI   C2A10156   8.063   7.714   8.989  0.1762 -0.0585 -0.1826
  639PYPI   D3A10157   8.133   7.758   8.560 -0.0841  0.1320  0.0198
  639PYPI   C4A10158   8.469   7.761   8.271  0.1388  0.0530  0.1920
  639PYPI   C1B10159   8.321   7.478   9.386  0.2041  0.2814 -0.1315
  639PYPI   C2B10160   8.403   7.349   8.903 -0.2924  0.2184  0.1206
  639PYPI   C3B10161   8.328   7.285   8.497  0.2528  0.1299  0.0007
  639PYPI   C4B10162   8.340   7.217   8.122  0.1372 -0.0992  0.0817
  640PYPI    C110163   8.903   4.566  11.122  0.0204  0.0279  0.0240
  640PYPI    C210164   8.612   4.294  11.156  0.1529 -0.1398 -0.1612
  640PYPI    C310165   8.525   4.684  11.178 -0.1366 -0.1772 -0.5344
  640PYPI   PO410166   9.042   4.530  10.923  0.1542  0.1970 -0.0698
  640PYPI   GL110167   9.119   4.609  10.572  0.1108 -0.0922  0.1679
  640PYPI   GL210168   9.292   4.420  10.541 -0.1084 -0.5499  0.2630
  640PYPI   C1A10169   8.877   4.742  10.217  0.1770  0.1740 -0.2270
  640PYPI   C2A10170   8.827   4.677   9.793  0.1630  0.1267 -0.3817
  640PYPI   D3A10171   8.816   4.756   9.346  0.0638  0.1784  0.0354
  640PYPI   C4A10172   8.767   4.737   8.927  0.2533 -0.4914  0.1705
  640PYPI   C1B10173   9.180   4.366  10.107 -0.0043 -0.1073 -0.2151
  640PYPI   C2B10174   9.096   4.222   9.770 -0.0503  0.0110  0.1732
  640PYPI   C3B10175   9.101   4.279   9.381 -0.2012 -0.2659  0.2607
  640PYPI   C4B10176   9.081   4.373   8.906 -0.3944 -0.3116 -0.0569
  641ERGO   ROH10177   9.876  13.844  10.236  0.2859 -0.2372  0.0406
  641ERGO    R110178   9.826  13.960   9.982  0.2341 -0.1348  0.0971
  641ERGO    R210179  10.029  14.032   9.810  0.1931 -0.2502  0.0063
  641ERGO    R310180   9.894  13.874   9.634 -0.0262 -0.0983  0.0339
  641ERGO    R410181  10.066  14.042   9.466  0.1324 -0.2756 -0.0014
  641ERGO    R510182   9.850  14.017   9.447  0.0916 -0.0355  0.0479
  641ERGO    C110183   9.961  13.899   9.102 -0.1087 -0.1478  0.0201
  641ERGO    C210184  10.027  14.043   8.724 -0.2300 -0.0502  0.2779
  642ERGO   ROH10185   2.819   3.564   9.906  0.0201  0.2130  0.0188
  642ERGO    R110186   2.936   3.519   9.653 -0.0111  0.0565  0.0307
  642ERGO    R210187   2.816   3.363   9.459 -0.1929  0.1996  0.0218
  642ERGO    R310188   2.849   3.584   9.305  0.1025  0.1580  0.0210
  642ERGO    R410189   2.838   3.362   9.114 -0.0018  0.1525  0.0336
  642ERGO    R510190   2.994   3.513   9.129  0.1341  0.0062  0.1073
  642ERGO    C110191   2.881   3.571   8.769  0.3868  0.0861  0.0397
  642ERGO    C210192   2.847   3.542   8.389  0.0272  0.0658 -0.2591
  643ERGO   ROH10193   8.637   1.884  10.437  0.0116 -0.0830 -0.1279
  643ERGO    R110194   8.544   1.833  10.174  0.0311 -0.0717 -0.1379
  643ERGO    R210195   8.488   2.036   9.995 -0.0242 -0.0595 -0.1126
  643ERGO    R310196   8.661   1.898   9.836  0.0207  0.0122 -0.1246
  643ERGO    R410197   8.499   2.055   9.650 -0.0920 -0.1001 -0.1163
  643ERGO    R510198   8.532   1.840   9.643  0.0206 -0.0811 -0.0942
  643ERGO    C110199   8.667   1.936   9.300 -0.0895 -0.0564 -0.1297
  643ERGO    C210200   8.651   2.008   8.950  0.2128 -0.0244 -0.3187
  644ERGO   ROH10201  11.278   6.401   9.959  0.3915  0.3857  0.0301
  644ERGO    R110202  11.348   6.481   9.696  0.4150  0.1551 -0.0366
  644ERGO    R210203  11.546   6.356   9.550  0.3001 -0.0964  0.0165
  644ERGO    R310204  11.348   6.330   9.365  0.2525 -0.0724  0.0645
  644ERGO    R410205  11.588   6.391   9.209  0.2139 -0.0521  0.0107
  644ERGO    R510206  11.398   6.497   9.201  0.2112 -0.0508  0.0735
  644ERGO    C110207  11.427   6.387   8.837  0.1190 -0.0037  0.0524
  644ERGO    C210208  11.468   6.272   8.538  0.3590 -0.1847  0.0549
  645ERGO   ROH10209  13.166   6.134  10.471 -0.1450  0.1111 -0.0886
  645ERGO    R110210  13.295   6.200  10.228  0.0084 -0.0866 -0.0631
  645ERGO    R210211  13.357   6.010  10.036 -0.0839 -0.2102  0.0267
  645ERGO    R310212  13.217   6.177   9.873  0.1245 -0.1410 -0.0850
  645ERGO    R410213  13.374   6.010   9.691 -0.0327 -0.4121  0.0281
  645ERGO    R510214  13.369   6.227   9.695  0.2074 -0.4030 -0.0907
  645ERGO    C110215  13.252   6.166   9.337  0.1928 -0.4646 -0.0759
  645ERGO    C210216  13.280   6.148   9.022  0.0172 -0.4653  0.0934
  646ERGO   ROH10217   4.679  11.167   9.962  0.1722  0.0947  0.0695
  646ERGO    R110218   4.525  11.262   9.744  0.0067 -0.0919  0.1016
  646ERGO    R210219   4.613  11.465   9.577 -0.3314  0.1112  0.1614
  646ERGO    R310220   4.564  11.282   9.383 -0.0290  0.0839  0.1062
  646ERGO    R410221   4.612  11.532   9.238 -0.3500  0.1920  0.1774
  646ERGO    R510222   4.438  11.402   9.218 -0.1647 -0.0519  0.1077
  646ERGO    C110223   4.565  11.400   8.858 -0.0769  0.2133  0.1350
  646ERGO    C210224   4.675  11.419   8.638 -0.4275 -0.2216 -0.0116
  647ERGO   ROH10225  15.781  14.782   9.976  0.1228 -0.2405  0.1104
  647ERGO    R110226  15.656  14.801   9.723  0.0249 -0.2070  0.1588
  647ERGO    R210227  15.767  14.942   9.512 -0.0853 -0.1184  0.1469
  647ERGO    R310228  15.736  14.706   9.381 -0.0678 -0.0977  0.1090
  647ERGO    R410229  15.749  14.909   9.169  0.1085 -0.1033  0.1356
  647ERGO    R510230  15.592  14.760   9.196  0.0606 -0.0582  0.0289
  647ERGO    C110231  15.710  14.669   8.845  0.2378 -0.0749  0.0932
  647ERGO    C210232  15.713  14.702   8.475  0.1657 -0.3716  0.3262
  648ERGO   ROH10233  17.075  14.089   9.975 -0.0355  0.1815 -0.0105
  648ERGO    R110234  16.990  13.941   9.749 -0.0956  0.1156  0.0566
  648ERGO    R210235  16.833  14.050   9.550 -0.0064  0.1032 -0.0094
  648ERGO    R310236  17.032  13.962   9.388 -0.0458 -0.0977  0.0461
  648ERGO    R410237  16.807  14.009   9.208  0.0010  0.0394 -0.0035
  648ERGO    R510238  16.922  13.825   9.226 -0.1409 -0.0566  0.0646
  648ERGO    C110239  16.979  13.902   8.857 -0.0319 -0.1863  0.0520
  648ERGO    C210240  16.885  13.864   8.561  0.0931  0.1608 -0.2004
  649ERGO   ROH10241  15.890  11.145  10.090  0.1739  0.1351 -0.1014
  649ERGO    R110242  15.901  11.059   9.821  0.1597  0.0528 -0.0771
  649ERGO    R210243  15.674  10.994   9.676  0.1601 -0.2075  0.0177
  649ERGO    R310244  15.773  11.176   9.500 -0.0632 -0.1670 -0.0686
  649ERGO    R410245  15.609  10.996   9.337  0.0457 -0.3345  0.0383
  649ERGO    R510246  15.818  11.048   9.302 -0.0227 -0.1644 -0.0509
  649ERGO    C110247  15.665  11.168   8.974 -0.2305 -0.3707 -0.0307
  649ERGO    C210248  15.587  11.254   8.584  0.3147  0.0471  0.1161
  650ERGO   ROH10249   8.544  15.170  10.437 -0.1231  0.1204  0.0609
  650ERGO    R110250   8.479  15.076  10.178 -0.1635  0.1901  0.0447
  650ERGO    R210251   8.341  15.229   9.993 -0.1279  0.2684  0.0792
  650ERGO    R310252   8.555  15.172   9.835 -0.1505  0.2364  0.0612
  650ERGO    R410253   8.344  15.253   9.649 -0.2340  0.0080  0.0584
  650ERGO    R510254   8.459  15.068   9.641 -0.1617  0.0507  0.1655
  650ERGO    C110255   8.546  15.213   9.299 -0.3169 -0.1736  0.0293
  650ERGO    C210256   8.597  15.300   9.047 -0.1166  0.1831  0.0882
  651ERGO   ROH10257  12.454  13.114  10.008 -0.0646  0.0090 -0.0650
  651ERGO    R110258  12.566  13.016   9.767 -0.0477  0.0303 -0.0660
  651ERGO    R210259  12.410  12.923   9.557 -0.0339  0.0895 -0.1024
  651ERGO    R310260  12.552  13.105   9.414  0.0147  0.0894 -0.0540
  651ERGO    R410261  12.438  12.927   9.213  0.1915  0.0048 -0.0866
  651ERGO    R510262  12.648  12.980   9.235  0.1662  0.0646  0.0404
  651ERGO    C110263  12.587  13.100   8.878  0.3683 -0.0447 -0.0320
  651ERGO    C210264  12.529  12.987   8.637  0.0939  0.0019 -0.0606
  652ERGO   ROH10265  11.017   9.954   9.766  0.0156  0.0389  0.1062
  652ERGO    R110266  10.977   9.943   9.486  0.0877  0.1291  0.0906
  652ERGO    R210267  10.947   9.705   9.349  0.2735  0.1595 -0.0209
  652ERGO    R310268  10.718   9.822   9.261  0.2170  0.0517 -0.0144
  652ERGO    R410269  10.736   9.573   9.108  0.2766  0.0374  0.0437
  652ERGO    R510270  10.712   9.773   9.027  0.1901  0.0006  0.0037
  652ERGO    C110271  10.399   9.606   8.886  0.2254 -0.1349  0.0875
  652ERGO    C210272  10.230   9.365   8.711  0.0386 -0.4236 -0.1079
  653ERGO   ROH10273  17.550  14.121   9.889  0.0131 -0.1546 -0.0153
  653ERGO    R110274  17.413  14.149   9.643  0.1892  0.0703 -0.0911
  653ERGO    R210275  17.527  14.271   9.422  0.5241 -0.1384 -0.0412
  653ERGO    R310276  17.461  14.038   9.300  0.1792 -0.0378 -0.0572
  653ERGO    R410277  17.479  14.232   9.082  0.4665 -0.0505 -0.0439
  653ERGO    R510278  17.310  14.102   9.126  0.2722  0.1938 -0.0544
  653ERGO    C110279  17.389  13.989   8.770  0.1093  0.0951 -0.0607
  653ERGO    C210280  17.387  14.002   8.523 -0.0044  0.0662  0.0158
  654ERGO   ROH10281  17.712   9.308   9.616  0.0501  0.0577 -0.0875
  654ERGO    R110282  17.535   9.400   9.414  0.1586  0.1390 -0.1464
  654ERGO    R210283  17.623   9.534   9.189  0.3093 -0.0283 -0.1882
  654ERGO    R310284  17.484   9.340   9.059  0.1496  0.0450 -0.1295
  654ERGO    R410285  17.503   9.560   8.866  0.0806  0.0824 -0.0965
  654ERGO    R510286  17.321   9.460   8.931  0.0937  0.1278  0.0159
  654ERGO    C110287  17.303   9.393   8.556 -0.2024  0.2157  0.0119
  654ERGO    C210288  17.188   9.389   8.232 -0.1167 -0.1627  0.1264
  655ERGO   ROH10289   5.794  15.766  10.147  0.0143  0.2430 -0.0542
  655ERGO    R110290   5.723  15.671   9.890 -0.0198  0.1257 -0.0027
  655ERGO    R210291   5.604  15.832   9.700 -0.0610  0.0367 -0.0575
  655ERGO    R310292   5.812  15.748   9.546 -0.0774 -0.0171 -0.0495
  655ERGO    R410293   5.592  15.790   9.357 -0.1196 -0.1776 -0.0300
  655ERGO    R510294   5.711  15.609   9.380 -0.0812 -0.1384  0.0565
  655ERGO    C110295   5.780  15.686   9.013 -0.1693 -0.3528 -0.0065
  655ERGO    C210296   5.862  15.724   8.616 -0.1506  0.2034  0.1639
  656ERGO   ROH10297   5.495   9.041   9.840  0.1251  0.2329 -0.1226
  656ERGO    R110298   5.446   9.094   9.566  0.1829  0.1464 -0.1498
  656ERGO    R210299   5.636   9.051   9.369  0.1508 -0.1242 -0.1235
  656ERGO    R310300   5.438   8.902   9.257  0.0156  0.0027 -0.0581
  656ERGO    R410301   5.581   9.019   9.030 -0.0514 -0.0021 -0.1042
  656ERGO    R510302   5.367   9.030   9.068 -0.0267  0.0915  0.0166
  656ERGO    C110303   5.364   8.860   8.726 -0.2959  0.1883 -0.0315
  656ERGO    C210304   5.452   8.554   8.593 -0.0865 -0.0507  0.3458
  657ERGO   ROH10305  12.306   5.041  10.508 -0.0337 -0.0811 -0.0031
  657ERGO    R110306  12.334   5.181  10.264 -0.2071 -0.0144  0.0137
  657ERGO    R210307  12.527   5.117  10.076 -0.0686  0.3005  0.0417
  657ERGO    R310308  12.313   5.100   9.909 -0.0185 -0.0197  0.0032
  657ERGO    R410309  12.545   5.116   9.731 -0.0075  0.3765  0.0448
  657ERGO    R510310  12.369   5.244   9.727 -0.2160  0.0980  0.0330
  657ERGO    C110311  12.355   5.101   9.374  0.0751  0.1201  0.0105
  657ERGO    C210312  12.353   5.075   9.060  0.0463  0.0308 -0.2685
  658ERGO   ROH10313   2.564   0.946   9.981  0.0992  0.2530 -0.0710
  658ERGO    R110314   2.612   1.103   9.750  0.1810  0.2704 -0.0411
  658ERGO    R210315   2.865   1.133   9.641  0.1952  0.1648 -0.0277
  658ERGO    R310316   2.742   1.046   9.415  0.1595  0.2690 -0.0505
  658ERGO    R410317   2.979   1.190   9.320  0.3039  0.0763 -0.0061
  658ERGO    R510318   2.773   1.225   9.258  0.3380  0.2506 -0.0424
  658ERGO    C110319   2.931   1.141   8.921  0.3337  0.1227 -0.0148
  658ERGO    C210320   2.892   1.166   8.687 -0.0155 -0.0891 -0.1025
  659ERGO   ROH10321   7.129   0.818  10.922  0.3536  0.2852 -0.0008
  659ERGO    R110322   7.021   0.802  10.661  0.1772  0.1186  0.0805
  659ERGO    R210323   7.054   1.003  10.474 -0.1334  0.0956  0.0007
  659ERGO    R310324   7.151   0.800  10.321 -0.0674  0.1383 -0.0158
  659ERGO    R410325   7.104   1.020  10.132 -0.1468  0.1404  0.0002
  659ERGO    R510326   7.028   0.816  10.116 -0.0794  0.1132 -0.0130
  659ERGO    C110327   7.225   0.839   9.790 -0.0925  0.2066 -0.0157
  659ERGO    C210328   7.267   0.849   9.486  0.1027 -0.3305 -0.0726
  660ERGO   ROH10329   2.319  10.666   9.620 -0.0323  0.0657 -0.0407
  660ERGO    R110330   2.401  10.615   9.354 -0.0137 -0.0077 -0.0211
  660ERGO    R210331   2.394  10.363   9.241 -0.0082 -0.0384  0.0472
  660ERGO    R310332   2.248  10.489   9.049  0.0069 -0.0889  0.0023
  660ERGO    R410333   2.403  10.285   8.905  0.1444 -0.0141  0.0448
  660ERGO    R510334   2.395  10.499   8.860  0.0698 -0.0149  0.0550
  660ERGO    C110335   2.271  10.358   8.528  0.2475 -0.0474  0.0012
  660ERGO    C210336   2.118  10.167   8.402 -0.2599  0.2777 -0.2740
  661ERGO   ROH10337  12.175   5.982  10.309 -0.1482 -0.2638 -0.0757
  661ERGO    R110338  12.278   6.060  10.057 -0.0955 -0.1157 -0.0084
  661ERGO    R210339  12.351   5.877   9.862 -0.0606 -0.0002 -0.1004
  661ERGO    R310340  12.181   6.023   9.708 -0.0240  0.0952 -0.0532
  661ERGO    R410341  12.344   5.872   9.517 -0.2312 -0.0833 -0.0976
  661ERGO    R510342  12.313   6.088   9.519 -0.0619 -0.0547 -0.1348
  661ERGO    C110343  12.181   6.005   9.171 -0.2963 -0.0422 -0.0517
  661ERGO    C210344  12.259   6.050   8.912  0.0925 -0.0759  0.2426
  662ERGO   ROH10345   4.920   2.983  10.291 -0.1670 -0.0698 -0.1614
  662ERGO    R110346   5.087   2.949  10.065 -0.1183  0.0757 -0.1470
  662ERGO    R210347   5.083   2.720   9.910  0.1413  0.0442 -0.1044
  662ERGO    R310348   5.041   2.898   9.708 -0.0441 -0.0378 -0.1422
  662ERGO    R410349   5.084   2.642   9.573 -0.0590 -0.0823 -0.0782
  662ERGO    R510350   5.190   2.828   9.535 -0.1345 -0.0605 -0.2163
  662ERGO    C110351   5.045   2.763   9.188 -0.3496 -0.2329 -0.0983
  662ERGO    C210352   4.993   2.701   8.852  0.1038  0.2420  0.2504
  663ERGO   ROH10353  17.702   7.768   9.930  0.0054  0.0187 -0.0767
  663ERGO    R110354  17.847   7.769   9.687 -0.0508  0.2323 -0.1109
  663ERGO    R210355  17.855   7.550   9.518  0.3061  0.2094 -0.0645
  663ERGO    R310356  17.769   7.730   9.333 -0.0664  0.0190 -0.0861
  663ERGO    R410357  17.895   7.517   9.176 -0.0520  0.0249 -0.0940
  663ERGO    R510358  17.940   7.730   9.166 -0.2503  0.0650 -0.2824
  663ERGO    C110359  17.838   7.667   8.804 -0.6104 -0.2612 -0.1316
  663ERGO    C210360  17.672   7.695   8.433  0.4516  0.0905 -0.1964
  664ERGO   ROH10361  11.452  17.636  10.494  0.2210  0.0780 -0.2983
  664ERGO    R110362  11.369  17.553  10.236 -0.0708  0.0552 -0.2016
  664ERGO    R210363  11.108  17.579  10.148 -0.1349  0.2353  0.0171
  664ERGO    R310364  11.225  17.711   9.941 -0.2015  0.0751 -0.1270
  664ERGO    R410365  10.954  17.653   9.848 -0.2797  0.1326  0.0657
  664ERGO    R510366  11.139  17.604   9.746 -0.3598  0.0014 -0.0183
  664ERGO    C110367  10.974  17.820   9.479 -0.4263 -0.0776 -0.0413
  664ERGO    C210368  10.821  18.101   9.352  0.1050 -0.0209 -0.1259
  665ERGO   ROH10369  16.694  10.206  10.237  0.0659 -0.1364 -0.0318
  665ERGO    R110370  16.600  10.084  10.000 -0.0730  0.0195 -0.0586
  665ERGO    R210371  16.368  10.165   9.874  0.0236  0.3214 -0.0529
  665ERGO    R310372  16.532  10.189   9.658  0.0621  0.1668 -0.0412
  665ERGO    R410373  16.264  10.247   9.554  0.0877  0.1332 -0.1229
  665ERGO    R510374  16.404  10.099   9.476  0.0832  0.0679 -0.0069
  665ERGO    C110375  16.357  10.316   9.166  0.1610 -0.1214 -0.1527
  665ERGO    C210376  16.325  10.355   8.776 -0.2750 -0.1213  0.0805
  666ERGO   ROH10377   2.319  15.522   9.764  0.0606  0.1499 -0.0735
  666ERGO    R110378   2.202  15.378   9.551  0.0730  0.1040 -0.0504
  666ERGO    R210379   2.071  15.502   9.342  0.0625  0.0592 -0.0744
  666ERGO    R310380   2.244  15.358   9.190  0.0775  0.0485 -0.0459
  666ERGO    R410381   2.017  15.412   9.013  0.0653 -0.0358 -0.0485
  666ERGO    R510382   2.104  15.217   9.057  0.0976 -0.0079 -0.0035
  666ERGO    C110383   2.149  15.224   8.679  0.0810 -0.1012 -0.0068
  666ERGO    C210384   2.214  15.262   8.334 -0.0262  0.0230  0.0934
  667ERGO   ROH10385   9.631   4.905  10.382 -0.0893  0.0616  0.0886
  667ERGO    R110386   9.494   4.748  10.191 -0.2529  0.1316  0.1443
  667ERGO    R210387   9.293   4.850  10.031 -0.1493  0.2862  0.0994
  667ERGO    R310388   9.448   4.752   9.830 -0.2398  0.0500  0.1432
  667ERGO    R410389   9.221   4.878   9.694 -0.1090  0.2031  0.0844
  667ERGO    R510390   9.291   4.674   9.667 -0.3055  0.1279  0.1754
  667ERGO    C110391   9.324   4.803   9.309 -0.1706 -0.0672  0.1169
  667ERGO    C210392   9.361   4.847   8.966  0.0688  0.1822 -0.1262
  668ERGO   ROH10393  16.479   4.085  10.014 -0.0875  0.2910 -0.1670
  668ERGO    R110394  16.655   4.124   9.796  0.0499 -0.0763 -0.1292
  668ERGO    R210395  16.734   3.917   9.630 -0.2428 -0.2728 -0.0370
  668ERGO    R310396  16.640   4.081   9.435  0.0868 -0.1756 -0.1183
  668ERGO    R410397  16.753   3.852   9.291 -0.1436 -0.3525 -0.0157
  668ERGO    R510398  16.801   4.062   9.259  0.1593 -0.4219 -0.0265
  668ERGO    C110399  16.677   3.968   8.910  0.2237 -0.3077 -0.0796
  668ERGO    C210400  16.767   3.907   8.517  0.1649 -0.2256 -0.1486
  669ERGO   ROH10401   4.487  14.252  10.333  0.0692  0.1134 -0.0101
  669ERGO    R110402   4.608  14.171  10.090 -0.1585 -0.1812 -0.0299
  669ERGO    R210403   4.466  14.049   9.886 -0.5233  0.2684 -0.0556
  669ERGO    R310404   4.571  14.250   9.737  0.0627  0.0182 -0.0123
  669ERGO    R410405   4.538  14.028   9.549 -0.4961  0.1029 -0.0414
  669ERGO    R510406   4.720  14.141   9.585 -0.1840 -0.3826  0.0139
  669ERGO    C110407   4.677  14.205   9.212  0.0700 -0.2284  0.0075
  669ERGO    C210408   4.730  14.190   8.823  0.1522  0.1404  0.1036
  670ERGO   ROH10409  10.944  15.547   6.435  0.1566  0.0393  0.0260
  670ERGO    R110410  10.938  15.565   6.717  0.0820 -0.0894  0.0345
  670ERGO    R210411  11.056  15.376   6.881  0.2846 -0.0232 -0.0249
  670ERGO    R310412  11.183  15.592   6.985  0.0048  0.0917  0.0871
  670ERGO    R410413  11.191  15.392   7.198  0.1692  0.0353  0.0214
  670ERGO    R510414  11.117  15.596   7.215 -0.0697 -0.0565  0.0662
  670ERGO    C110415  11.390  15.604   7.481 -0.1606  0.1774  0.1534
  670ERGO    C210416  11.603  15.571   7.695 -0.1825 -0.0440  0.0753
  671ERGO   ROH10417  11.522  12.092  10.170  0.0294  0.0378 -0.0804
  671ERGO    R110418  11.356  12.130   9.944  0.0461  0.1463 -0.0762
  671ERGO    R210419  11.349  12.366   9.801  0.0690  0.2125  0.0239
  671ERGO    R310420  11.402  12.203   9.590  0.0763  0.2985 -0.0401
  671ERGO    R410421  11.362  12.468   9.471  0.0381  0.3318  0.0598
  671ERGO    R510422  11.260  12.284   9.416  0.0594  0.3432 -0.0021
  671ERGO    C110423  11.420  12.374   9.081  0.0272  0.4822  0.0208
  671ERGO    C210424  11.343  12.353   8.826  0.0168  0.2555  0.0366
  672ERGO   ROH10425   0.626  12.780   9.723 -0.1868  0.0537  0.0124
  672ERGO    R110426   0.614  12.985   9.527 -0.0453  0.2007  0.1561
  672ERGO    R210427   0.810  13.180   9.505  0.2725 -0.1179  0.0779
  672ERGO    R310428   0.819  13.094   9.247 -0.1525  0.0246  0.0065
  672ERGO    R410429   0.923  13.366   9.236  0.4656 -0.1886  0.1083
  672ERGO    R510430   0.760  13.285   9.117  0.1644  0.2563  0.1892
  672ERGO    C110431   0.997  13.394   8.839  0.1790 -0.0960  0.0589
  672ERGO    C210432   1.072  13.480   8.569 -0.3960 -0.1995  0.2889
  673ERGO   ROH10433  16.004  17.151  10.155  0.0156 -0.0680 -0.0222
  673ERGO    R110434  16.070  17.309   9.929  0.0086 -0.0463 -0.0074
  673ERGO    R210435  15.986  17.244   9.673 -0.1161  0.0564  0.0144
  673ERGO    R310436  15.888  17.498   9.677  0.0102  0.1073  0.1015
  673ERGO    R410437  16.047  17.484   9.432 -0.3396 -0.0402 -0.1427
  673ERGO    R510438  16.065  17.632   9.590 -0.0349 -0.0041 -0.1931
  673ERGO    C110439  15.989  17.861   9.295 -0.3513 -0.0488 -0.1524
  673ERGO    C210440  15.950  18.029   9.029 -0.2611  0.0688 -0.2049
  674PSPI    C110441  10.311   8.173   5.591  0.0462 -0.0813 -0.0626
  674PSPI    C210442  10.522   8.438   5.378  0.1743  0.0090  0.1736
  674PSPI    C310443  10.158   8.328   5.256  0.0840  0.3590  0.1172
  674PSPI   PO410444  10.300   8.276   5.839 -0.0007  0.1324  0.1480
  674PSPI   GL110445  10.417   8.601   6.149 -0.1684 -0.3407 -0.2790
  674PSPI   GL210446  10.754   8.717   6.325  0.0191  0.1087 -0.2376
  674PSPI   C1A10447  10.329   8.460   6.580  0.4181  0.0424 -0.0278
  674PSPI   C2A10448  10.308   8.521   7.009 -0.1568  0.0702  0.0396
  674PSPI   C3A10449  10.605   8.577   7.236  0.3930 -0.0092  0.0093
  674PSPI   C4A10450  10.823   8.627   7.660  0.2449  0.0969  0.0699
  674PSPI   C1B10451  10.709   8.782   6.730  0.1938 -0.0219 -0.4170
  674PSPI   C2B10452  10.960   8.955   7.150  0.0002  0.3846 -0.2075
  674PSPI   C3B10453  11.291   9.290   7.347 -0.3729 -0.0083 -0.3603
  674PSPI   C4B10454  11.454   9.673   7.231 -0.0669 -0.2649 -0.3723
  675PSPI    C110455   8.827  12.093   5.947 -0.1836  0.0576  0.0876
  675PSPI    C210456   8.835  11.743   5.754 -0.1440  0.0715  0.0642
  675PSPI    C310457   8.683  12.067   5.575  0.1797  0.1564 -0.0633
  675PSPI   PO410458   8.783  11.961   6.262 -0.1719  0.2420  0.2874
  675PSPI   GL110459   8.556  11.752   6.583  0.0978 -0.1299  0.2503
  675PSPI   GL210460   8.242  11.813   6.550  0.1924 -0.1388 -0.0531
  675PSPI   C1A10461   8.888  11.591   6.832 -0.1281 -0.0529  0.2322
  675PSPI   C2A10462   8.934  11.387   7.320  0.0835 -0.0998  0.2348
  675PSPI   C3A10463   9.054  11.575   7.705  0.1992 -0.0928  0.2629
  675PSPI   C4A10464   9.120  11.354   8.063  0.0798 -0.3295  0.0468
  675PSPI   C1B10465   8.106  11.919   7.010 -0.0955  0.2230  0.0638
  675PSPI   C2B10466   7.972  12.142   7.399 -0.0363 -0.2712 -0.0787
  675PSPI   C3B10467   7.758  12.017   7.748 -0.1470  0.2215  0.1018
  675PSPI   C4B10468   7.676  12.093   8.220  0.3052 -0.0782  0.2154
  676PSPI    C110469   4.198   9.778   5.142  0.1533 -0.1495  0.1397
  676PSPI    C210470   4.237  10.142   4.982  0.1622 -0.1082  0.2353
  676PSPI    C310471   3.914  10.054   5.201 -0.1266 -0.3412 -0.2690
  676PSPI   PO410472   4.461   9.705   5.353  0.0286  0.1814 -0.0416
  676PSPI   GL110473   4.464   9.691   5.738 -0.0456 -0.4725 -0.0217
  676PSPI   GL210474   4.712   9.568   5.750 -0.0951  0.0007 -0.1451
  676PSPI   C1A10475   4.534  10.057   6.041  0.1047 -0.0817 -0.0115
  676PSPI   C2A10476   4.685  10.064   6.433  0.0492 -0.0340  0.2105
  676PSPI   C3A10477   4.690   9.976   6.843 -0.0001  0.0405 -0.0114
  676PSPI   C4A10478   4.650   9.816   7.194  0.0847 -0.2994 -0.0499
  676PSPI   C1B10479   4.709   9.629   6.194  0.4157 -0.1597 -0.0791
  676PSPI   C2B10480   4.514   9.553   6.605  0.1965  0.1403 -0.3011
  676PSPI   C3B10481   4.486   9.431   6.955  0.0120 -0.0631 -0.0703
  676PSPI   C4B10482   4.362   9.373   7.376  0.1147  0.3263  0.2516
  677PSPI    C110483   5.969   1.948   6.047 -0.1723 -0.1462  0.1105
  677PSPI    C210484   5.830   1.627   5.853  0.1250 -0.1292 -0.1388
  677PSPI    C310485   5.744   1.994   5.719  0.0072 -0.1084 -0.0089
  677PSPI   PO410486   5.890   1.893   6.295 -0.0656 -0.1496 -0.1198
  677PSPI   GL110487   5.732   2.114   6.684  0.1707  0.2354  0.1403
  677PSPI   GL210488   5.995   2.289   6.767  0.0088  0.0271  0.0768
  677PSPI   C1A10489   5.710   2.018   7.185 -0.1931  0.3255  0.0944
  677PSPI   C2A10490   5.710   1.830   7.613  0.2768  0.0921  0.2019
  677PSPI   C3A10491   5.739   2.204   7.882  0.1657  0.2985 -0.1402
  677PSPI   C4A10492   5.895   2.492   8.144  0.0282  0.0131 -0.1751
  677PSPI   C1B10493   6.236   2.255   7.011  0.1126 -0.2511  0.0687
  677PSPI   C2B10494   6.134   2.252   7.471  0.1266  0.1186  0.2283
  677PSPI   C3B10495   6.365   2.366   7.931  0.1013  0.1046 -0.0877
  677PSPI   C4B10496   6.359   2.404   8.429 -0.1567 -0.3186  0.3157
  678PSPI    C110497   0.701  12.125   5.737 -0.1843  0.2076 -0.0365
  678PSPI    C210498   0.856  11.908   6.035  0.1474  0.2712 -0.1582
  678PSPI    C310499   0.544  11.769   5.827  0.0756  0.1132  0.0522
  678PSPI   PO410500   0.695  12.343   5.819 -0.4261  0.0217 -0.2637
  678PSPI   GL110501   0.566  12.326   6.283 -0.1126  0.1943  0.1627
  678PSPI   GL210502   0.630  12.718   6.257  0.1996  0.1738 -0.0237
  678PSPI   C1A10503   0.348  12.269   6.595 -0.3490  0.0823 -0.0325
  678PSPI   C2A10504   0.014  12.277   6.917  0.0621  0.1161 -0.1215
  678PSPI   C3A10505  -0.156  12.406   7.341 -0.1254  0.1186 -0.1501
  678PSPI   C4A10506  -0.547  12.477   7.629 -0.1666 -0.0488  0.1638
  678PSPI   C1B10507   0.804  12.544   6.637  0.1601 -0.0947  0.0022
  678PSPI   C2B10508   0.977  12.402   6.969 -0.0659  0.0486  0.2004
  678PSPI   C3B10509   1.132  12.109   7.131  0.2359  0.0024  0.2369
  678PSPI   C4B10510   1.226  11.865   7.491 -0.0130  0.3357 -0.0911
  679PSPI    C110511  17.100  15.006   6.068 -0.2759 -0.1099  0.2301
  679PSPI    C210512  17.044  14.649   5.896  0.0653 -0.0595  0.0049
  679PSPI    C310513  17.406  14.750   6.033 -0.0807  0.1148  0.2701
  679PSPI   PO410514  16.932  15.192   5.935  0.2859 -0.1663 -0.1319
  679PSPI   GL110515  16.600  15.328   6.329 -0.0186 -0.3534 -0.0110
  679PSPI   GL210516  16.354  15.554   6.297  0.1016  0.0438  0.1906
  679PSPI   C1A10517  16.754  14.966   6.611 -0.1178 -0.1873 -0.5162
  679PSPI   C2A10518  16.807  14.558   6.848  0.1079 -0.1376 -0.0224
  679PSPI   C3A10519  17.128  14.416   7.034  0.1808  0.0242  0.0014
  679PSPI   C4A10520  17.257  14.617   7.292 -0.1670 -0.0949 -0.0845
  679PSPI   C1B10521  16.496  15.460   6.770 -0.1809 -0.0025  0.2812
  679PSPI   C2B10522  16.467  15.357   7.215  0.2252  0.0016  0.0881
  679PSPI   C3B10523  16.401  15.374   7.653 -0.1076  0.1011  0.0088
  679PSPI   C4B10524  16.393  15.126   8.047 -0.2995  0.0113  0.1569
  680PSPI    C110525   2.727  13.586   5.949  0.0307 -0.3655 -0.0542
  680PSPI    C210526   2.907  13.490   5.605  0.3659  0.1813 -0.0435
  680PSPI    C310527   2.569  13.704   5.601  0.3253  0.1174 -0.0341
  680PSPI   PO410528   2.901  13.460   6.198 -0.1105  0.0166 -0.0344
  680PSPI   GL110529   3.196  13.424   6.554  0.1241 -0.1775  0.0432
  680PSPI   GL210530   3.248  13.662   6.609 -0.0683  0.0237  0.0341
  680PSPI   C1A10531   2.938  13.359   6.923  0.2613  0.0228 -0.0620
  680PSPI   C2A10532   2.915  13.391   7.285 -0.2066  0.0488 -0.3923
  680PSPI   C3A10533   2.959  12.992   7.507 -0.1331  0.0534  0.1633
  680PSPI   C4A10534   2.946  12.609   7.684  0.1200  0.2846  0.0860
  680PSPI   C1B10535   3.283  13.994   6.863 -0.0122  0.2782  0.1267
  680PSPI   C2B10536   3.310  14.304   7.164 -0.2653 -0.0881 -0.1551
  680PSPI   C3B10537   3.410  14.397   7.489  0.0386 -0.0479 -0.2292
  680PSPI   C4B10538   3.315  14.285   7.934  0.0465 -0.3726  0.1850
  681PSPI    C110539  11.907  11.550   5.529 -0.1042 -0.1771  0.0143
  681PSPI    C210540  12.155  11.394   5.256  0.0673 -0.2345  0.2001
  681PSPI    C310541  11.773  11.274   5.273  0.0062 -0.0969 -0.1315
  681PSPI   PO410542  12.067  11.595   5.757  0.1612  0.2862  0.4136
  681PSPI   GL110543  12.004  11.673   6.114  0.0004  0.3195  0.0408
  681PSPI   GL210544  12.051  11.954   6.252 -0.0514  0.0248 -0.0871
  681PSPI   C1A10545  11.974  11.540   6.578 -0.0340 -0.1407 -0.0407
  681PSPI   C2A10546  11.882  11.246   6.856 -0.5609  0.1539 -0.1793
  681PSPI   C3A10547  11.796  11.116   7.187  0.1772 -0.3337  0.1395
  681PSPI   C4A10548  11.676  10.978   7.557  0.1649 -0.0830  0.0849
  681PSPI   C1B10549  12.118  12.051   6.737  0.3086  0.1075  0.2598
  681PSPI   C2B10550  11.915  11.922   7.065 -0.2506 -0.0263  0.1026
  681PSPI   C3B10551  11.681  11.763   7.369  0.3385  0.2894  0.0233
  681PSPI   C4B10552  11.495  11.407   7.419  0.2120  0.2118 -0.4270
  682PSPI    C110553  14.805   5.248   5.826 -0.0053 -0.4914  0.3500
  682PSPI    C210554  15.165   5.090   5.759  0.0953 -0.0193 -0.3253
  682PSPI    C310555  14.843   4.938   5.577  0.0484 -0.0385 -0.2269
  682PSPI   PO410556  14.857   5.302   6.043  0.3435  0.1147  0.3720
  682PSPI   GL110557  14.703   5.238   6.474 -0.1926 -0.1195 -0.1565
  682PSPI   GL210558  14.464   5.203   6.591  0.1238  0.1793 -0.2652
  682PSPI   C1A10559  14.781   5.663   6.687 -0.2376  0.2115  0.1486
  682PSPI   C2A10560  14.832   5.832   7.109 -0.0477  0.1911  0.0758
  682PSPI   C3A10561  14.734   5.792   7.487 -0.1241 -0.1569 -0.2255
  682PSPI   C4A10562  14.542   5.554   7.816 -0.2207  0.0178 -0.3920
  682PSPI   C1B10563  14.629   5.348   7.014 -0.1398 -0.2009 -0.2368
  682PSPI   C2B10564  14.556   5.332   7.383 -0.2524 -0.3791 -0.0598
  682PSPI   C3B10565  14.560   5.048   7.785 -0.1038  0.0926  0.1490
  682PSPI   C4B10566  14.902   4.857   8.041  0.3261  0.0162 -0.2497
  683PSPI    C110567   7.705  16.101   6.263  0.1646 -0.0906  0.0090
  683PSPI    C210568   7.372  16.057   6.044  0.1531  0.0076  0.0060
  683PSPI    C310569   7.654  16.316   5.929  0.2975 -0.1811 -0.0704
  683PSPI   PO410570   7.667  16.140   6.416 -0.0193 -0.1455 -0.1376
  683PSPI   GL110571   7.961  16.319   6.694 -0.0351 -0.2708  0.3331
  683PSPI   GL210572   7.674  16.298   6.898  0.0958 -0.1859 -0.0089
  683PSPI   C1A10573   8.109  16.454   7.096  0.1715 -0.1347 -0.0188
  683PSPI   C2A10574   8.295  16.810   7.220 -0.0587 -0.1932  0.3291
  683PSPI   C3A10575   8.122  17.064   7.506 -0.0952 -0.1368 -0.3496
  683PSPI   C4A10576   8.154  17.459   7.580  0.3576  0.1511  0.1030
  683PSPI   C1B10577   7.667  16.243   7.328 -0.2323 -0.2780  0.2146
  683PSPI   C2B10578   7.898  15.902   7.591  0.2713  0.0656  0.2692
  683PSPI   C3B10579   7.944  15.976   7.901  0.1506 -0.1334  0.2007
  683PSPI   C4B10580   8.086  15.990   8.314  0.0023 -0.0439 -0.1992
  684PSPI    C110581  10.105   9.088   5.848  0.3059 -0.0982 -0.0017
  684PSPI    C210582   9.855   9.256   5.584  0.1659 -0.0657  0.1495
  684PSPI    C310583  10.236   9.187   5.484  0.1182 -0.0389 -0.0546
  684PSPI   PO410584   9.854   9.007   6.023  0.4152 -0.2616 -0.1121
  684PSPI   GL110585   9.726   9.126   6.387 -0.2201  0.2949  0.1823
  684PSPI   GL210586   9.994   9.389   6.315  0.2409 -0.0843 -0.1477
  684PSPI   C1A10587   9.440   8.975   6.682  0.2817 -0.2800  0.1609
  684PSPI   C2A10588   9.158   8.831   7.071 -0.1790  0.2757 -0.1878
  684PSPI   C3A10589   8.941   8.652   7.419 -0.1834  0.0907 -0.0282
  684PSPI   C4A10590   8.940   8.602   7.775 -0.1277 -0.1831 -0.1780
  684PSPI   C1B10591  10.037   9.456   6.787  0.0579  0.2771 -0.0221
  684PSPI   C2B10592   9.876   9.217   7.204  0.4198  0.1161 -0.1011
  684PSPI   C3B10593   9.962   9.187   7.604 -0.0870 -0.0202  0.2204
  684PSPI   C4B10594  10.071   9.176   8.057 -0.1705 -0.0317 -0.0938
  685PSPI    C110595   6.941  12.113   6.149  0.0205  0.1480 -0.0934
  685PSPI    C210596   7.251  12.269   5.951  0.0250  0.0918 -0.1309
  685PSPI    C310597   6.986  12.040   5.758  0.0712 -0.0255 -0.0560
  685PSPI   PO410598   6.785  12.191   6.342  0.0452  0.1828 -0.1052
  685PSPI   GL110599   6.931  12.345   6.724 -0.0360  0.0826 -0.1391
  685PSPI   GL210600   7.231  12.331   6.685 -0.0697 -0.2653 -0.0122
  685PSPI   C1A10601   7.128  12.722   7.058  0.0791  0.1661  0.1328
  685PSPI   C2A10602   7.235  12.969   7.479 -0.0183 -0.1821  0.2475
  685PSPI   C3A10603   7.084  12.910   7.843  0.0710 -0.3199  0.3752
  685PSPI   C4A10604   6.892  13.010   8.204 -0.1345  0.1210 -0.0804
  685PSPI   C1B10605   7.539  12.720   6.715 -0.1568  0.1409 -0.3206
  685PSPI   C2B10606   7.606  12.962   7.118 -0.0598  0.1797  0.1595
  685PSPI   C3B10607   7.791  12.823   7.507 -0.1227  0.0517 -0.2415
  685PSPI   C4B10608   7.984  12.522   7.716 -0.1044  0.1310  0.2862
  686PSPI    C110609  11.244  15.706   5.740 -0.1453  0.3178  0.2790
  686PSPI    C210610  11.322  16.061   5.572 -0.0118  0.0058 -0.3498
  686PSPI    C310611  10.960  15.895   5.532 -0.1598  0.1831  0.1748
  686PSPI   PO410612  11.452  15.661   5.979  0.1246  0.2951 -0.0407
  686PSPI   GL110613  11.675  15.710   6.342 -0.0302 -0.1960 -0.1678
  686PSPI   GL210614  11.917  15.582   6.432 -0.2121  0.2670 -0.0175
  686PSPI   C1A10615  11.608  15.871   6.684  0.0249 -0.3113  0.1857
  686PSPI   C2A10616  11.441  15.974   7.049  0.2051 -0.4947 -0.3290
  686PSPI   C3A10617  11.531  16.193   7.448  0.1146  0.2823  0.3089
  686PSPI   C4A10618  11.384  16.575   7.629  0.1953 -0.1213 -0.5620
  686PSPI   C1B10619  12.034  15.710   6.844 -0.2217  0.2048 -0.2703
  686PSPI   C2B10620  12.350  15.950   7.086  0.0942  0.1417  0.2600
  686PSPI   C3B10621  12.661  16.027   7.300  0.0018  0.4254  0.3864
  686PSPI   C4B10622  12.513  15.877   7.714  0.0563 -0.0644 -0.0998
  687PSPI    C110623  16.819   3.787   5.365  0.0802 -0.1471  0.1400
  687PSPI    C210624  17.011   4.079   5.171 -0.1017  0.0111  0.1944
  687PSPI    C310625  16.992   3.713   5.012 -0.1155  0.1001 -0.0115
  687PSPI   PO410626  16.932   3.937   5.652  0.1589 -0.1388  0.0783
  687PSPI   GL110627  17.049   4.021   6.003 -0.2244 -0.1853 -0.1805
  687PSPI   GL210628  17.002   3.739   6.132  0.0235 -0.0194  0.0344
  687PSPI   C1A10629  17.272   4.246   6.392  0.0982  0.1046 -0.0268
  687PSPI   C2A10630  17.218   4.033   6.795 -0.1996 -0.1623 -0.2597
  687PSPI   C3A10631  17.515   3.816   7.098 -0.1792 -0.1508  0.0188
  687PSPI   C4A10632  17.678   3.521   7.348 -0.2430  0.0167 -0.0668
  687PSPI   C1B10633  16.770   3.805   6.507  0.0987  0.2480 -0.0503
  687PSPI   C2B10634  16.640   3.991   6.800  0.0203  0.0170  0.2570
  687PSPI   C3B10635  16.685   4.002   7.190 -0.0131 -0.2200  0.3047
  687PSPI   C4B10636  16.772   4.356   7.590 -0.2853  0.3335  0.3673
  688PSPI    C110637   8.290  14.216   5.921 -0.1134  0.3240  0.1047
  688PSPI    C210638   8.196  14.198   5.533 -0.0868  0.2089  0.1032
  688PSPI    C310639   8.568  14.296   5.645 -0.0369  0.0350  0.0939
  688PSPI   PO410640   8.182  14.355   6.096  0.0345  0.2598 -0.1078
  688PSPI   GL110641   8.176  14.477   6.585  0.0977  0.2143  0.2400
  688PSPI   GL210642   7.954  14.340   6.641 -0.0961  0.1769 -0.0941
  688PSPI   C1A10643   8.368  14.771   6.753 -0.0865 -0.0979  0.2577
  688PSPI   C2A10644   8.787  14.873   6.834 -0.2466 -0.3555  0.0949
  688PSPI   C3A10645   9.166  15.161   7.098 -0.1398 -0.0546  0.0262
  688PSPI   C4A10646   9.556  15.366   7.021  0.0229  0.3722  0.0377
  688PSPI   C1B10647   8.113  14.205   6.971  0.4362 -0.0033  0.1241
  688PSPI   C2B10648   8.462  14.048   7.173  0.1233  0.0646 -0.2420
  688PSPI   C3B10649   8.565  13.681   7.507  0.0509 -0.1735 -0.4469
  688PSPI   C4B10650   8.873  13.477   7.628  0.0317 -0.1435  0.0605
  689PSPI    C110651   6.682   6.258   5.611 -0.0188  0.3064  0.1686
  689PSPI    C210652   6.407   6.129   5.871  0.0350 -0.1239  0.0209
  689PSPI    C310653   6.344   6.090   5.478  0.3209 -0.2612 -0.0132
  689PSPI   PO410654   6.900   6.199   5.785  0.1193 -0.3362  0.2473
  689PSPI   GL110655   6.798   5.950   6.212 -0.2617  0.1764 -0.1227
  689PSPI   GL210656   6.868   6.341   6.260  0.1012  0.1851 -0.4118
  689PSPI   C1A10657   6.776   5.990   6.625 -0.0886  0.0864  0.0889
  689PSPI   C2A10658   6.943   5.999   6.902  0.3185 -0.1123 -0.0066
  689PSPI   C3A10659   7.077   5.874   7.280 -0.0324  0.2706 -0.1871
  689PSPI   C4A10660   7.042   5.747   7.742  0.5089  0.1488  0.0053
  689PSPI   C1B10661   6.701   6.686   6.487 -0.1305 -0.3886  0.1228
  689PSPI   C2B10662   6.577   6.674   6.916  0.0156 -0.1344 -0.1655
  689PSPI   C3B10663   6.571   6.391   7.190 -0.0623 -0.4090  0.0769
  689PSPI   C4B10664   6.766   6.165   7.626 -0.3002 -0.0375  0.1298
  690PSPI    C110665   0.217  10.199   5.835  0.1251 -0.0912  0.0485
  690PSPI    C210666  -0.156  10.329   5.773 -0.0232 -0.4314  0.2007
  690PSPI    C310667   0.114  10.350   5.479 -0.0835  0.0627  0.1716
  690PSPI   PO410668   0.304  10.032   6.084  0.0651  0.1706  0.1338
  690PSPI   GL110669   0.218   9.725   6.453  0.0085  0.0608  0.2210
  690PSPI   GL210670   0.110   9.449   6.631  0.2885 -0.1452 -0.1654
  690PSPI   C1A10671   0.158  10.107   6.782  0.0757  0.3014 -0.2234
  690PSPI   C2A10672   0.335  10.008   7.138 -0.1149  0.1395 -0.0219
  690PSPI   C3A10673   0.498  10.153   7.596  0.0808 -0.0018  0.2278
  690PSPI   C4A10674   0.453  10.418   8.003  0.2349  0.0095  0.3815
  690PSPI   C1B10675   0.265   9.523   6.979  0.2309 -0.2192 -0.1923
  690PSPI   C2B10676   0.526   9.487   7.196 -0.1173  0.1168  0.0239
  690PSPI   C3B10677   0.989   9.477   7.218 -0.1431  0.1046 -0.0729
  690PSPI   C4B10678   1.214   9.512   7.672 -0.0273  0.1107  0.1613
  691PSPI    C110679   5.243  14.079   5.885 -0.1375  0.0949  0.0689
  691PSPI    C210680   4.904  14.072   5.672  0.0713  0.0127 -0.2686
  691PSPI    C310681   5.100  13.731   5.748  0.0158  0.0451  0.0330
  691PSPI   PO410682   5.058  14.193   6.169 -0.2276  0.0483 -0.0714
  691PSPI   GL110683   5.148  14.506   6.403  0.2639  0.0964 -0.0928
  691PSPI   GL210684   5.358  14.901   6.343 -0.0169  0.1575 -0.0642
  691PSPI   C1A10685   5.065  14.658   6.839  0.2390  0.2683  0.0056
  691PSPI   C2A10686   5.127  14.916   7.165  0.0575  0.1233  0.2281
  691PSPI   C3A10687   5.033  14.966   7.625  0.3726 -0.1577 -0.2867
  691PSPI   C4A10688   5.054  15.065   8.066 -0.3380 -0.5375  0.1043
  691PSPI   C1B10689   5.580  14.643   6.643  0.2185  0.0900  0.0048
  691PSPI   C2B10690   5.577  14.595   7.025 -0.1476  0.1764  0.2295
  691PSPI   C3B10691   5.570  14.673   7.465 -0.1819  0.2077 -0.1053
  691PSPI   C4B10692   5.645  14.533   7.905 -0.0326  0.0819  0.2091
  692PSPI    C110693  11.913   0.728   5.817  0.0555 -0.2035  0.2041
  692PSPI    C210694  12.072   0.379   5.701  0.1926 -0.0679 -0.0224
  692PSPI    C310695  11.953   0.646   5.428  0.1884  0.1083  0.1494
  692PSPI   PO410696  11.846   0.652   6.034  0.2448 -0.0220  0.0231
  692PSPI   GL110697  12.023   0.499   6.393 -0.0746  0.1825 -0.0894
  692PSPI   GL210698  11.992   0.386   6.694  0.0424  0.2730  0.0458
  692PSPI   C1A10699  12.283   0.800   6.593 -0.1252 -0.1313 -0.3467
  692PSPI   C2A10700  12.362   0.747   7.036  0.1769 -0.0828 -0.0404
  692PSPI   C3A10701  12.462   0.795   7.459  0.2485  0.0381 -0.0842
  692PSPI   C4A10702  12.578   0.868   7.894  0.1360 -0.0923  0.7452
  692PSPI   C1B10703  12.088   0.308   7.082  0.0482 -0.4382 -0.2291
  692PSPI   C2B10704  11.753   0.259   7.349  0.0052  0.0303 -0.0772
  692PSPI   C3B10705  11.563   0.037   7.649  0.0676  0.0129 -0.1426
  692PSPI   C4B10706  11.629  -0.240   7.911  0.2228  0.4627  0.0431
  693POPI    C110707   2.351  14.241   5.639 -0.0316  0.0643 -0.0169
  693POPI    C210708   2.233  14.315   5.264  0.1875 -0.0249 -0.1047
  693POPI    C310709   2.613  14.216   5.339  0.1601  0.0543  0.1495
  693POPI   PO410710   2.050  14.076   5.815 -0.1044  0.0063  0.1145
  693POPI   GL110711   1.949  13.997   6.238 -0.0377  0.1071 -0.2923
  693POPI   GL210712   2.098  13.796   6.454  0.0356  0.0229 -0.1771
  693POPI   C1A10713   1.779  14.165   6.595 -0.2600 -0.1855 -0.2185
  693POPI   D2A10714   1.688  14.250   6.949 -0.3349 -0.1237  0.1672
  693POPI   C3A10715   1.929  14.502   7.193  0.4996 -0.2600 -0.0783
  693POPI   C4A10716   2.213  14.783   7.072 -0.0946  0.3650  0.2876
  693POPI   C1B10717   2.173  13.807   6.898  0.2689  0.1953  0.1130
  693POPI   C2B10718   2.283  13.854   7.303  0.0467 -0.3295 -0.1158
  693POPI   C3B10719   2.060  14.082   7.585  0.0988 -0.0240 -0.1893
  693POPI   C4B10720   1.970  14.454   7.727 -0.0371 -0.1414 -0.1682
  694POPI    C110721  13.534   9.573   5.408 -0.1695  0.0285 -0.1892
  694POPI    C210722  13.593   9.755   5.056  0.0889 -0.2747 -0.3076
  694POPI    C310723  13.905   9.664   5.290 -0.0602 -0.3104 -0.1194
  694POPI   PO410724  13.410   9.664   5.581 -0.0254  0.2290 -0.0025
  694POPI   GL110725  13.363   9.886   5.991  0.1952  0.0711  0.2181
  694POPI   GL210726  13.035   9.818   6.086 -0.1724 -0.1334 -0.1244
  694POPI   C1A10727  13.566  10.089   6.273  0.0637  0.0181 -0.1240
  694POPI   D2A10728  13.474  10.461   6.116 -0.1448 -0.0513  0.0315
  694POPI   C3A10729  13.227  10.878   6.204  0.0773  0.0050  0.2929
  694POPI   C4A10730  12.857  11.142   6.203 -0.1236  0.1329 -0.0692
  694POPI   C1B10731  13.233   9.812   6.500 -0.1338 -0.1017  0.0277
  694POPI   C2B10732  13.337  10.125   6.915  0.1133  0.4073  0.0884
  694POPI   C3B10733  13.652  10.231   7.046  0.2326  0.0130  0.0175
  694POPI   C4B10734  13.797  10.324   7.512  0.2866 -0.1253 -0.0218
  695POPI    C110735  17.727   6.916   5.761  0.0219  0.2451  0.0771
  695POPI    C210736  18.000   7.179   5.633  0.0682  0.0812 -0.1668
  695POPI    C310737  18.069   6.787   5.599 -0.1185  0.0374 -0.0577
  695POPI   PO410738  17.670   6.881   5.965 -0.1473 -0.1344 -0.2018
  695POPI   GL110739  17.410   6.938   6.241 -0.0966  0.2762 -0.0498
  695POPI   GL210740  17.414   7.192   6.332  0.1917  0.0827 -0.1794
  695POPI   C1A10741  17.449   6.805   6.715 -0.0156  0.0148 -0.0479
  695POPI   D2A10742  17.281   6.791   7.108  0.4302  0.4203 -0.0189
  695POPI   C3A10743  17.175   6.518   7.438 -0.2103 -0.0569  0.1302
  695POPI   C4A10744  17.229   6.757   7.871  0.1569 -0.0688  0.2012
  695POPI   C1B10745  17.119   7.170   6.669 -0.3975 -0.0226 -0.0604
  695POPI   C2B10746  17.186   7.288   7.057 -0.0981 -0.2473 -0.1145
  695POPI   C3B10747  17.403   7.569   7.421 -0.0395  0.0584  0.0355
  695POPI   C4B10748  17.448   7.688   7.849  0.0609  0.2711 -0.0618
  696POPI    C110749   7.751  15.225   6.079 -0.0537 -0.1325 -0.0208
  696POPI    C210750   7.772  14.908   5.835  0.1348  0.0793 -0.2858
  696POPI    C310751   8.078  15.165   5.857  0.1777 -0.0070  0.2802
  696POPI   PO410752   7.555  15.128   6.291 -0.3465 -0.1982  0.0493
  696POPI   GL110753   7.522  15.351   6.660  0.0795  0.4611 -0.1691
  696POPI   GL210754   7.894  15.378   6.812 -0.2422  0.0439 -0.0087
  696POPI   C1A10755   7.507  15.047   7.046  0.1772 -0.0281  0.1484
  696POPI   D2A10756   7.405  14.791   7.410  0.3093  0.1539 -0.1754
  696POPI   C3A10757   7.682  14.667   7.780 -0.0001  0.0707  0.1081
  696POPI   C4A10758   7.723  14.614   8.110  0.1047  0.1473 -0.1334
  696POPI   C1B10759   7.820  15.422   7.228 -0.0324 -0.1736 -0.1622
  696POPI   C2B10760   7.619  15.194   7.625 -0.0220  0.0692 -0.1131
  696POPI   C3B10761   7.525  15.108   7.988  0.0346 -0.0788 -0.3446
  696POPI   C4B10762   7.251  14.991   8.339 -0.2164 -0.0447 -0.1464
  697POPI    C110763  13.820  12.853   5.827 -0.0232  0.1289  0.0687
  697POPI    C210764  13.837  12.477   5.692  0.0502  0.0359  0.3322
  697POPI    C310765  14.142  12.727   5.626 -0.0744  0.1053  0.0010
  697POPI   PO410766  13.806  12.827   6.074  0.0591 -0.0614  0.2680
  697POPI   GL110767  13.928  12.735   6.476 -0.0287  0.0204  0.0586
  697POPI   GL210768  13.923  13.007   6.507  0.0445 -0.1560 -0.3321
  697POPI   C1A10769  13.665  12.661   6.784  0.5082 -0.0039 -0.0188
  697POPI   D2A10770  13.311  12.933   6.867 -0.4089 -0.1218 -0.3269
  697POPI   C3A10771  13.183  13.037   7.288  0.1847 -0.3152 -0.1567
  697POPI   C4A10772  12.922  12.921   7.618  0.1787 -0.2587  0.0022
  697POPI   C1B10773  13.890  13.035   6.979 -0.1370  0.0716  0.0315
  697POPI   C2B10774  13.821  13.166   7.383  0.1131  0.0077  0.0070
  697POPI   C3B10775  13.691  13.342   7.730 -0.2933 -0.7624 -0.3404
  697POPI   C4B10776  13.534  13.537   8.112 -0.2078  0.1804 -0.0063
  698POPI    C110777   4.858   6.050   5.513  0.1681  0.0406  0.0043
  698POPI    C210778   4.899   5.672   5.638  0.2970  0.0993  0.1432
  698POPI    C310779   4.711   5.750   5.294  0.2340 -0.0881  0.1341
  698POPI   PO410780   4.898   6.143   5.874  0.2217 -0.0500  0.0435
  698POPI   GL110781   4.954   6.397   6.279  0.1184  0.0948 -0.1708
  698POPI   GL210782   5.206   6.433   6.188 -0.1560  0.0110  0.2357
  698POPI   C1A10783   4.767   6.377   6.732 -0.0200  0.1690  0.0756
  698POPI   D2A10784   4.642   6.358   7.137 -0.2909  0.0974  0.4040
  698POPI   C3A10785   4.429   6.040   7.349 -0.1046  0.1677 -0.2305
  698POPI   C4A10786   4.431   5.868   7.784  0.2606 -0.0882  0.2280
  698POPI   C1B10787   5.259   6.240   6.680 -0.0327  0.0870  0.0936
  698POPI   C2B10788   5.127   6.267   7.088 -0.1229  0.1835 -0.1326
  698POPI   C3B10789   4.922   6.184   7.485 -0.1964 -0.0883 -0.2725
  698POPI   C4B10790   5.194   6.048   7.854 -0.2938  0.2475 -0.2000
  699POPI    C110791   2.065   5.076   5.648  0.0259 -0.2023  0.1052
  699POPI    C210792   2.322   4.912   5.389 -0.0911  0.3464 -0.3800
  699POPI    C310793   1.935   4.812   5.376  0.0232 -0.2189  0.1227
  699POPI   PO410794   2.198   5.257   5.828  0.0106  0.0520 -0.1457
  699POPI   GL110795   2.524   5.105   6.040  0.0249 -0.4330  0.0719
  699POPI   GL210796   2.760   4.882   6.149  0.0173  0.4119  0.2245
  699POPI   C1A10797   2.331   4.919   6.414 -0.0546 -0.0410  0.3369
  699POPI   D2A10798   2.128   4.971   6.823  0.0959 -0.2019 -0.1960
  699POPI   C3A10799   2.396   4.712   7.063 -0.2453  0.0582 -0.0638
  699POPI   C4A10800   2.743   4.548   7.094 -0.0369  0.1484 -0.2833
  699POPI   C1B10801   3.139   4.927   6.359  0.2075  0.1195 -0.0524
  699POPI   C2B10802   3.440   4.709   6.545 -0.1685  0.2993  0.0523
  699POPI   C3B10803   3.520   4.392   6.707 -0.0993  0.1175 -0.2658
  699POPI   C4B10804   3.843   4.102   6.722  0.2516  0.2315  0.0072
  700POPI    C110805   7.102  12.853   5.903 -0.0828  0.0081  0.3033
  700POPI    C210806   7.059  12.855   5.506  0.2377 -0.0029  0.2660
  700POPI    C310807   6.773  13.008   5.738 -0.0179 -0.1283  0.0396
  700POPI   PO410808   7.299  13.011   5.951 -0.0429  0.0322 -0.0195
  700POPI   GL110809   7.408  13.192   6.273 -0.3135  0.0274  0.2737
  700POPI   GL210810   7.179  13.047   6.457 -0.0391  0.0578 -0.0566
  700POPI   C1A10811   7.708  13.160   6.599  0.4709  0.1134 -0.0015
  700POPI   D2A10812   8.050  13.045   6.816 -0.2501  0.0070  0.2142
  700POPI   C3A10813   8.081  13.124   7.138 -0.3152 -0.0750  0.0784
  700POPI   C4A10814   8.187  13.443   7.357  0.4067  0.3369  0.4193
  700POPI   C1B10815   7.212  13.217   6.854  0.0103  0.2847  0.1524
  700POPI   C2B10816   7.199  13.395   7.234  0.1415  0.1826  0.2661
  700POPI   C3B10817   7.135  13.452   7.583 -0.0794 -0.2219 -0.1513
  700POPI   C4B10818   7.197  13.413   8.044 -0.3136  0.0852  0.0201
  701POPI    C110819   6.788  16.761   5.944  0.0185 -0.0026 -0.1439
  701POPI    C210820   7.026  16.469   5.811 -0.1156 -0.1365 -0.0933
  701POPI    C310821   6.629  16.426   5.794 -0.1376  0.0883 -0.1844
  701POPI   PO410822   6.855  16.780   6.309 -0.1393  0.3894 -0.1831
  701POPI   GL110823   6.933  16.681   6.744 -0.0494 -0.0959 -0.1813
  701POPI   GL210824   6.733  16.809   6.993  0.0215  0.2739  0.1932
  701POPI   C1A10825   6.754  16.298   6.920 -0.1877 -0.1818 -0.0222
  701POPI   D2A10826   6.753  16.068   7.334  0.1049  0.3229  0.2315
  701POPI   C3A10827   6.804  16.167   7.763 -0.1775 -0.3347 -0.0834
  701POPI   C4A10828   7.052  16.070   8.190 -0.1611 -0.0861 -0.2307
  701POPI   C1B10829   6.708  16.817   7.459 -0.2144  0.0909 -0.2554
  701POPI   C2B10830   6.880  16.684   7.851 -0.1240  0.0631 -0.1276
  701POPI   C3B10831   6.677  16.420   8.204  0.0743  0.1031 -0.1819
  701POPI   C4B10832   6.315  16.326   8.257  0.0373 -0.1046  0.1269
  702POPI    C110833  13.821   7.157   5.475 -0.0139 -0.0464  0.0029
  702POPI    C210834  14.141   7.348   5.330 -0.0100  0.0715  0.1643
  702POPI    C310835  14.070   6.969   5.226  0.1731  0.0500  0.1149
  702POPI   PO410836  13.757   7.066   5.822  0.1663 -0.0452 -0.1327
  702POPI   GL110837  13.868   6.832   6.147 -0.1478 -0.1978 -0.0802
  702POPI   GL210838  13.829   7.062   6.362  0.4781  0.0890 -0.2176
  702POPI   C1A10839  14.311   6.844   6.268  0.2316 -0.0851 -0.3093
  702POPI   D2A10840  14.691   7.025   6.411  0.2680 -0.1827 -0.0652
  702POPI   C3A10841  14.933   6.649   6.633 -0.4239 -0.1352 -0.2031
  702POPI   C4A10842  15.409   6.596   6.879 -0.2214  0.1131  0.4133
  702POPI   C1B10843  13.727   7.057   6.779  0.0258 -0.0922  0.0128
  702POPI   C2B10844  13.855   7.029   7.242  0.1502  0.1100  0.1708
  702POPI   C3B10845  14.080   7.298   7.529  0.2541  0.4819 -0.1030
  702POPI   C4B10846  14.321   7.136   7.822 -0.2675 -0.1074  0.1189
  703POPI    C110847   2.495  15.987   5.381  0.1163 -0.2603  0.1902
  703POPI    C210848   2.274  15.800   5.105 -0.2052  0.2423  0.0940
  703POPI    C310849   2.542  16.075   4.993 -0.0859  0.1968  0.2640
  703POPI   PO410850   2.472  15.806   5.676  0.0424  0.0179 -0.1185
  703POPI   GL110851   2.645  15.891   6.209 -0.3960 -0.0406 -0.1836
  703POPI   GL210852   2.539  15.558   6.331 -0.1244 -0.2927 -0.4697
  703POPI   C1A10853   2.496  16.017   6.575  0.1394  0.3544 -0.3684
  703POPI   D2A10854   2.636  16.121   7.009 -0.2198  0.0405 -0.0804
  703POPI   C3A10855   2.711  16.164   7.457 -0.3541 -0.2270  0.2325
  703POPI   C4A10856   2.658  16.198   7.838 -0.0785 -0.3731  0.1567
  703POPI   C1B10857   2.173  15.564   6.489 -0.1453 -0.0107 -0.0479
  703POPI   C2B10858   1.938  15.666   6.831 -0.2018  0.0248 -0.0140
  703POPI   C3B10859   1.854  15.712   7.182 -0.3015  0.1446  0.0417
  703POPI   C4B10860   1.658  15.800   7.620  0.0503  0.1096 -0.0486
  704POPI    C110861   6.755  10.261   5.696  0.1740  0.1433 -0.1439
  704POPI    C210862   6.908   9.924   5.544  0.5008  0.1965  0.0579
  704POPI    C310863   6.764  10.205   5.300 -0.0491 -0.2084 -0.1036
  704POPI   PO410864   7.036  10.400   5.819 -0.0598  0.1591 -0.2395
  704POPI   GL110865   7.158  10.328   6.224 -0.3113  0.1229  0.1759
  704POPI   GL210866   7.272  10.090   6.373 -0.0819 -0.1114 -0.0568
  704POPI   C1A10867   7.174  10.548   6.690  0.1166 -0.0906 -0.4212
  704POPI   D2A10868   7.314  10.934   6.964  0.1516  0.1831 -0.0545
  704POPI   C3A10869   7.173  11.038   7.343  0.2089 -0.0317  0.1554
  704POPI   C4A10870   7.030  11.230   7.796  0.1193 -0.0193 -0.0775
  704POPI   C1B10871   7.340   9.978   6.815  0.0320  0.3160  0.3214
  704POPI   C2B10872   7.130  10.000   7.237  0.0738  0.0774  0.0006
  704POPI   C3B10873   6.942   9.808   7.634 -0.0521 -0.1149  0.1642
  704POPI   C4B10874   6.944   9.603   7.995 -0.1790  0.1105 -0.3640
  705POPI    C110875  16.115   0.839   5.823 -0.3496  0.0695 -0.0754
  705POPI    C210876  16.310   1.187   5.794 -0.1477 -0.0192  0.1755
  705POPI    C310877  16.225   0.978   5.464 -0.0797  0.1628  0.0409
  705POPI   PO410878  15.982   0.923   6.123  0.1879 -0.0111  0.1905
  705POPI   GL110879  16.062   0.961   6.592 -0.1751  0.0047 -0.0792
  705POPI   GL210880  15.952   0.636   6.718  0.0899  0.2655 -0.1162
  705POPI   C1A10881  16.074   1.290   6.862  0.0564 -0.1823  0.1529
  705POPI   D2A10882  15.859   1.415   7.225  0.3225 -0.1504 -0.4133
  705POPI   C3A10883  15.995   1.376   7.613  0.0979 -0.0133  0.0969
  705POPI   C4A10884  15.944   1.623   7.986  0.1589 -0.1353  0.1405
  705POPI   C1B10885  15.677   0.386   6.996  0.1749 -0.0374 -0.0427
  705POPI   C2B10886  15.452   0.441   7.463  0.4620 -0.1109 -0.0152
  705POPI   C3B10887  15.530   0.223   7.879 -0.0603  0.2006 -0.0675
  705POPI   C4B10888  15.723  -0.162   8.020 -0.0741 -0.1988  0.0908
  706POPI    C110889  10.264   2.581   5.980  0.1218 -0.1400  0.1720
  706POPI    C210890  10.147   2.954   5.894  0.0311 -0.1793  0.1240
  706POPI    C310891  10.466   2.798   5.710 -0.1455 -0.2530 -0.1246
  706POPI   PO410892  10.224   2.435   6.211  0.0240 -0.0371 -0.2747
  706POPI   GL110893  10.248   2.591   6.627 -0.3669  0.5507 -0.0277
  706POPI   GL210894  10.092   2.389   6.734 -0.3693  0.2061 -0.0187
  706POPI   C1A10895  10.032   2.831   6.909  0.1713 -0.3990  0.0135
  706POPI   D2A10896  10.032   2.953   7.323 -0.2495 -0.1286  0.2285
  706POPI   C3A10897   9.670   2.760   7.588 -0.1377 -0.1857 -0.0655
  706POPI   C4A10898   9.469   2.390   7.970 -0.1304  0.1009 -0.4163
  706POPI   C1B10899  10.211   2.378   7.124  0.1000 -0.2457  0.1235
  706POPI   C2B10900  10.189   2.533   7.507 -0.3744  0.2691  0.0218
  706POPI   C3B10901   9.998   2.447   7.917  0.2829  0.0441  0.1860
  706POPI   C4B10902   9.981   2.116   8.213 -0.1920 -0.0485 -0.2301
  707POPI    C110903  14.437  11.430   5.955 -0.4039 -0.0458  0.3871
  707POPI    C210904  14.171  11.679   5.789 -0.1706 -0.0521 -0.0061
  707POPI    C310905  14.126  11.284   5.750 -0.0323 -0.0509 -0.1963
  707POPI   PO410906  14.428  11.453   6.186 -0.0342  0.0626  0.3233
  707POPI   GL110907  14.505  11.620   6.616  0.1254  0.3118  0.1564
  707POPI   GL210908  14.811  11.822   6.623 -0.1337  0.1557 -0.1718
  707POPI   C1A10909  14.400  11.262   6.843  0.1927 -0.1498  0.2028
  707POPI   D2A10910  14.263  10.983   7.144  0.2340 -0.1621  0.0730
  707POPI   C3A10911  14.315  10.571   7.197 -0.1256  0.2070  0.1156
  707POPI   C4A10912  14.308  10.261   7.570 -0.2595 -0.1955  0.3671
  707POPI   C1B10913  14.709  12.152   6.993  0.5334  0.0660  0.4918
  707POPI   C2B10914  14.810  12.331   7.416 -0.0224  0.0820  0.3448
  707POPI   C3B10915  14.843  12.337   7.885  0.1601 -0.2379 -0.0161
  707POPI   C4B10916  14.997  12.568   8.196 -0.0815  0.0722  0.0304
  708POPI    C110917  10.666  12.007   5.824 -0.2002  0.1957  0.0449
  708POPI    C210918  10.553  12.102   5.452 -0.1854  0.0844  0.0115
  708POPI    C310919  10.446  11.751   5.609  0.0782 -0.0059 -0.0054
  708POPI   PO410920  10.709  12.241   5.940 -0.0018 -0.3221 -0.2564
  708POPI   GL110921  10.539  12.368   6.268  0.1526 -0.0540  0.0584
  708POPI   GL210922  10.236  12.132   6.355 -0.0351  0.1483  0.1526
  708POPI   C1A10923  10.711  12.465   6.665 -0.2719  0.1058  0.0715
  708POPI   D2A10924  10.830  12.677   7.022 -0.1504  0.0656 -0.1047
  708POPI   C3A10925  11.230  12.600   7.307 -0.2435  0.2474 -0.1547
  708POPI   C4A10926  11.636  12.680   7.568 -0.4150  0.0956  0.2730
  708POPI   C1B10927  10.217  12.237   6.755  0.1443 -0.0186 -0.2251
  708POPI   C2B10928  10.260  12.423   7.182  0.2278 -0.0874  0.3425
  708POPI   C3B10929  10.048  12.647   7.434  0.2323  0.1993 -0.0990
  708POPI   C4B10930   9.857  12.653   7.794  0.1090  0.0038  0.1099
  709POPI    C110931  11.051  12.637   6.265  0.1712 -0.1053 -0.0992
  709POPI    C210932  10.793  12.717   5.970  0.1435 -0.1395 -0.0843
  709POPI    C310933  10.704  12.818   6.346  0.1024 -0.2517 -0.0633
  709POPI   PO410934  11.307  12.746   6.208  0.0870 -0.3017  0.2769
  709POPI   GL110935  11.703  12.825   6.460 -0.1143 -0.2610 -0.0886
  709POPI   GL210936  11.438  13.090   6.574  0.0281  0.2814  0.1323
  709POPI   C1A10937  11.754  12.793   6.977 -0.1313 -0.1729  0.1946
  709POPI   D2A10938  11.601  13.017   7.245  0.1303 -0.1413 -0.0645
  709POPI   C3A10939  11.471  13.432   7.275  0.0554  0.2624 -0.0986
  709POPI   C4A10940  11.234  13.620   7.508  0.4128 -0.0858 -0.0247
  709POPI   C1B10941  11.790  13.215   6.750  0.2356 -0.2907 -0.0355
  709POPI   C2B10942  11.925  13.337   7.093  0.1227 -0.2293  0.1046
  709POPI   C3B10943  11.858  13.520   7.549 -0.3016  0.1371  0.2129
  709POPI   C4B10944  12.073  13.685   7.732  0.3717  0.0439  0.4805
  710POPI    C110945  17.524  17.554   5.932 -0.0025  0.0796 -0.0486
  710POPI    C210946  17.298  17.859   6.059  0.0087  0.1098 -0.1005
  710POPI    C310947  17.347  17.797   5.667 -0.1881 -0.1019 -0.0941
  710POPI   PO410948  17.474  17.420   6.173 -0.1961  0.3076  0.1196
  710POPI   GL110949  17.151  17.511   6.463 -0.0623  0.1641 -0.0654
  710POPI   GL210950  17.282  17.826   6.613 -0.3589  0.2124  0.2794
  710POPI   C1A10951  17.016  17.498   6.852 -0.1672 -0.3756  0.0714
  710POPI   D2A10952  16.988  17.491   7.284 -0.1931 -0.1256 -0.3703
  710POPI   C3A10953  17.259  17.308   7.584 -0.0086 -0.2226 -0.0501
  710POPI   C4A10954  17.513  17.044   7.940 -0.2651 -0.0164 -0.0212
  710POPI   C1B10955  17.439  17.693   7.047 -0.0353  0.1028 -0.1636
  710POPI   C2B10956  17.711  17.512   7.449  0.1018  0.0044 -0.2469
  710POPI   C3B10957  17.932  17.375   7.779 -0.0211 -0.0963 -0.1054
  710POPI   C4B10958  18.290  17.507   8.004  0.1787 -0.1819  0.0386
  711POPI    C110959   9.925   6.842   5.614 -0.2471 -0.0960 -0.0283
  711POPI    C210960   9.636   6.702   5.375 -0.0585 -0.4860 -0.0360
  711POPI    C310961  10.013   6.579   5.325  0.0904 -0.0836  0.0597
  711POPI   PO410962   9.794   6.828   5.882 -0.0543  0.1927  0.2073
  711POPI   GL110963   9.882   6.781   6.411 -0.0232  0.1367  0.0789
  711POPI   GL210964   9.594   6.698   6.425 -0.2252 -0.0450  0.2968
  711POPI   C1A10965  10.274   6.752   6.830  0.1855  0.2222  0.1458
  711POPI   D2A10966  10.386   6.572   7.238 -0.0535 -0.5316 -0.2445
  711POPI   C3A10967  10.224   6.741   7.487 -0.0697 -0.1016 -0.4029
  711POPI   C4A10968   9.920   6.852   7.674  0.0696  0.1765  0.6475
  711POPI   C1B10969   9.378   6.768   6.735  0.1976 -0.0836 -0.0093
  711POPI   C2B10970   9.071   6.797   7.021  0.1893 -0.2921  0.2074
  711POPI   C3B10971   8.715   6.505   6.997 -0.1892  0.3608 -0.1243
  711POPI   C4B10972   8.409   6.328   7.002  0.2720  0.1595 -0.0816
  712POPI    C110973   7.883  12.787   5.680  0.2188  0.1770 -0.1876
  712POPI    C210974   7.515  12.631   5.705  0.2354  0.1817  0.1271
  712POPI    C310975   7.570  12.986   5.529  0.1512 -0.0082 -0.2944
  712POPI   PO410976   7.981  12.540   5.961 -0.1619  0.2838  0.1222
  712POPI   GL110977   8.241  12.390   6.350  0.1791 -0.0989 -0.0581
  712POPI   GL210978   7.946  12.602   6.438  0.0468  0.1021  0.0699
  712POPI   C1A10979   8.203  12.425   6.854 -0.0332 -0.0392 -0.1294
  712POPI   D2A10980   8.070  12.653   7.183  0.3150  0.0122  0.2319
  712POPI   C3A10981   8.306  12.826   7.515  0.0193  0.0604  0.0859
  712POPI   C4A10982   8.570  13.073   7.522  0.1802 -0.1299 -0.0380
  712POPI   C1B10983   7.770  12.285   6.727 -0.2253  0.1594 -0.1131
  712POPI   C2B10984   7.546  12.363   7.130 -0.3307  0.2616 -0.1158
  712POPI   C3B10985   7.493  12.393   7.576 -0.0206  0.0704 -0.2061
  712POPI   C4B10986   7.464  12.516   7.948 -0.1817 -0.0932  0.0538
  713POPI    C110987  12.000   5.564   6.024 -0.0465 -0.1528 -0.1633
  713POPI    C210988  11.625   5.695   5.976 -0.0652 -0.1473 -0.0049
  713POPI    C310989  11.908   5.798   5.713 -0.0943  0.1541  0.0777
  713POPI   PO410990  12.002   5.564   6.364  0.1306 -0.2144  0.1043
  713POPI   GL110991  12.293   5.565   6.653 -0.3280  0.1909 -0.2250
  713POPI   GL210992  12.425   5.208   6.670 -0.0194  0.1036 -0.2439
  713POPI   C1A10993  12.114   5.603   7.005 -0.2766  0.0238 -0.0398
  713POPI   D2A10994  12.224   5.422   7.392  0.0246  0.2668 -0.3754
  713POPI   C3A10995  12.623   5.461   7.583 -0.1342  0.4176 -0.0470
  713POPI   C4A10996  12.999   5.664   7.785 -0.2262 -0.0209  0.2576
  713POPI   C1B10997  12.318   5.068   7.057 -0.1169  0.2531 -0.2054
  713POPI   C2B10998  12.455   4.962   7.525 -0.1348  0.2624 -0.1124
  713POPI   C3B10999  12.835   5.041   7.700 -0.0053  0.3686  0.0540
  713POPI   C4B11000  13.134   5.229   7.982 -0.1052  0.2278 -0.1843
  714POPI    C111001   9.249   4.338   5.967  0.1689 -0.0803  0.2422
  714POPI    C211002   9.239   3.989   6.161 -0.3728 -0.1681  0.0762
  714POPI    C311003   9.209   3.997   5.763 -0.3055  0.0671  0.0741
  714POPI   PO411004   9.110   4.482   6.184  0.0873 -0.3216  0.2663
  714POPI   GL111005   9.256   4.515   6.563  0.0770  0.0348  0.1879
  714POPI   GL211006   9.416   4.861   6.615 -0.3229  0.1900 -0.0666
  714POPI   C1A11007   8.946   4.373   6.808  0.0906  0.6647 -0.3207
  714POPI   D2A11008   8.617   4.456   7.109  0.2912  0.0201  0.1241
  714POPI   C3A11009   8.588   4.449   7.445 -0.0131 -0.0763 -0.2371
  714POPI   C4A11010   8.656   4.754   7.676  0.2429 -0.0460  0.2781
  714POPI   C1B11011   9.225   4.762   6.949 -0.2221  0.1383 -0.0405
  714POPI   C2B11012   9.059   4.439   7.316 -0.1140  0.0054 -0.0180
  714POPI   C3B11013   9.123   4.484   7.764 -0.0228  0.1492 -0.0180
  714POPI   C4B11014   8.962   4.835   8.071 -0.1001 -0.0568 -0.0527
  715POPI    C111015  10.484  17.742   6.047  0.0142  0.0277 -0.0988
  715POPI    C211016  10.246  17.448   5.917 -0.1465  0.1340 -0.0485
  715POPI    C311017  10.428  17.688   5.654 -0.0659  0.0306 -0.0879
  715POPI   PO411018  10.339  17.908   6.335  0.2079 -0.1535  0.3584
  715POPI   GL111019  10.151  17.905   6.740  0.1577 -0.3222 -0.0388
  715POPI   GL211020  10.392  17.663   6.869  0.3210  0.0948  0.0899
  715POPI   C1A11021   9.973  18.243   6.856  0.1126 -0.0317 -0.1440
  715POPI   D2A11022   9.896  18.635   7.047  0.2203 -0.1206  0.3464
  715POPI   C3A11023   9.777  18.491   7.431 -0.0086 -0.3300 -0.1125
  715POPI   C4A11024   9.426  18.635   7.818 -0.1543  0.1437 -0.0374
  715POPI   C1B11025  10.213  17.622   7.331  0.1172 -0.0577  0.0737
  715POPI   C2B11026  10.112  17.670   7.765 -0.2250  0.1089  0.0666
  715POPI   C3B11027  10.333  17.541   8.138 -0.1318 -0.0189  0.1928
  715POPI   C4B11028  10.343  17.422   8.549 -0.0232 -0.1802 -0.1511
  716POPI    C111029  17.657   9.674   5.710 -0.0478 -0.2182  0.1635
  716POPI    C211030  17.310   9.546   5.559 -0.0514  0.2672 -0.2681
  716POPI    C311031  17.654   9.440   5.385  0.0056  0.0231 -0.0136
  716POPI   PO411032  17.628   9.620   5.954  0.1039  0.0727 -0.1058
  716POPI   GL111033  17.734   9.288   6.202  0.1056 -0.0372  0.0177
  716POPI   GL211034  17.960   9.540   6.339 -0.1439  0.1777  0.0246
  716POPI   C1A11035  17.513   9.125   6.539 -0.1778 -0.3428 -0.0558
  716POPI   D2A11036  17.539   9.027   6.979  0.2339  0.1682 -0.5217
  716POPI   C3A11037  17.460   8.588   7.104  0.0354  0.1006  0.1148
  716POPI   C4A11038  17.429   8.183   6.769 -0.0579  0.1391  0.1327
  716POPI   C1B11039  17.909   9.277   6.715 -0.0351 -0.0964 -0.0541
  716POPI   C2B11040  18.037   9.236   7.064  0.0792 -0.1274 -0.2625
  716POPI   C3B11041  18.253   9.343   7.358 -0.0303  0.1181  0.1211
  716POPI   C4B11042  18.462   9.340   7.795 -0.0132  0.0575  0.1348
  717POPI    C111043  17.236   3.587   5.733 -0.3472 -0.0550  0.0152
  717POPI    C211044  17.349   3.743   5.383  0.2003 -0.4289  0.0121
  717POPI    C311045  17.191   3.376   5.397  0.0037 -0.3414  0.1413
  717POPI   PO411046  17.487   3.660   5.865  0.0849  0.1616  0.1788
  717POPI   GL111047  17.537   3.684   6.342 -0.1895  0.0284  0.0960
  717POPI   GL211048  17.645   3.805   6.594  0.1763  0.3036  0.4423
  717POPI   C1A11049  17.141   3.453   6.644  0.2554 -0.0667  0.0752
  717POPI   D2A11050  17.169   3.065   6.990  0.1326 -0.0136  0.1217
  717POPI   C3A11051  17.150   3.114   7.397 -0.0320 -0.0277  0.3447
  717POPI   C4A11052  16.922   3.173   7.838  0.4613  0.3310 -0.0897
  717POPI   C1B11053  17.970   3.640   6.820 -0.1816 -0.0782  0.0885
  717POPI   C2B11054  18.143   3.586   7.164 -0.4226 -0.1124  0.0921
  717POPI   C3B11055  18.160   3.627   7.563  0.1267 -0.1323 -0.1097
  717POPI   C4B11056  18.090   3.790   7.977  0.1593 -0.1486 -0.2242
  718POPI    C111057  17.833  10.903   6.064 -0.0640  0.0942  0.0892
  718POPI    C211058  17.938  10.764   5.703  0.2687 -0.1312  0.2673
  718POPI    C311059  17.667  10.568   5.922  0.0505  0.0176  0.1338
  718POPI   PO411060  17.797  11.235   6.023  0.1444 -0.0946  0.0286
  718POPI   GL111061  17.495  11.275   6.368 -0.1678  0.3478  0.0384
  718POPI   GL211062  17.434  11.554   6.241 -0.1840  0.0158 -0.0036
  718POPI   C1A11063  17.666  10.969   6.634 -0.0775  0.1626 -0.0878
  718POPI   D2A11064  17.704  10.879   7.107 -0.2060 -0.1217 -0.2671
  718POPI   C3A11065  17.878  10.701   7.431 -0.3734 -0.3003  0.3034
  718POPI   C4A11066  17.779  10.341   7.688  0.0277 -0.3316 -0.1593
  718POPI   C1B11067  17.661  11.609   6.628  0.0547 -0.2118  0.0958
  718POPI   C2B11068  17.786  11.504   7.053 -0.0047 -0.0709  0.1289
  718POPI   C3B11069  17.762  11.257   7.389  0.0090  0.1227  0.1550
  718POPI   C4B11070  17.581  11.185   7.744 -0.0672  0.0845  0.1096
  719POPI    C111071   3.920   7.217   5.799 -0.0763 -0.0151  0.0022
  719POPI    C211072   4.278   7.384   5.861  0.0300 -0.2129 -0.0680
  719POPI    C311073   4.056   7.497   5.548 -0.0408  0.0237  0.0644
  719POPI   PO411074   3.911   7.081   6.044  0.0289  0.0320  0.1666
  719POPI   GL111075   3.948   7.229   6.432 -0.3144 -0.1931 -0.0538
  719POPI   GL211076   4.094   7.478   6.378 -0.0789  0.2465 -0.0636
  719POPI   C1A11077   4.122   7.117   6.845  0.3067  0.1164 -0.1169
  719POPI   D2A11078   3.860   6.998   7.271  0.0956 -0.3367  0.1045
  719POPI   C3A11079   4.043   6.886   7.712  0.1015 -0.0344 -0.0481
  719POPI   C4A11080   4.112   6.661   8.061  0.1574  0.0910 -0.2165
  719POPI   C1B11081   4.090   7.662   6.837 -0.0076 -0.0607  0.1119
  719POPI   C2B11082   4.307   7.803   7.226  0.2973 -0.0312 -0.0562
  719POPI   C3B11083   4.573   7.753   7.519 -0.0479  0.1703 -0.0189
  719POPI   C4B11084   4.946   7.720   7.635  0.0309  0.1007  0.3949
  720POPI    C111085   6.333  13.250   5.991  0.2147 -0.0608 -0.1218
  720POPI    C211086   6.089  12.985   6.166  0.2320  0.0122  0.0148
  720POPI    C311087   6.338  12.867   5.876  0.1452 -0.0937 -0.0173
  720POPI   PO411088   6.401  13.490   6.170 -0.0013 -0.1005 -0.1305
  720POPI   GL111089   6.286  13.268   6.485 -0.1941 -0.0756  0.0053
  720POPI   GL211090   5.913  13.197   6.655  0.0947  0.0714 -0.4193
  720POPI   C1A11091   6.383  13.321   6.853  0.2608 -0.0992 -0.1275
  720POPI   D2A11092   6.167  13.229   7.233  0.0924 -0.2912 -0.0052
  720POPI   C3A11093   6.291  13.354   7.591 -0.0081  0.1152  0.1287
  720POPI   C4A11094   6.063  13.594   7.833 -0.0586  0.2727 -0.1238
  720POPI   C1B11095   5.704  13.028   6.944  0.0656  0.0483 -0.2947
  720POPI   C2B11096   5.637  12.778   7.305  0.3066 -0.1757 -0.0369
  720POPI   C3B11097   5.354  12.800   7.677 -0.0321  0.0486 -0.0679
  720POPI   C4B11098   4.968  12.681   7.893  0.1643 -0.0296  0.1405
  721POPI    C111099  17.471  15.984   5.947  0.0535 -0.0510  0.1724
  721POPI    C211100  17.809  15.816   6.080  0.0767 -0.1422  0.0007
  721POPI    C311101  17.695  15.763   5.700 -0.0681 -0.0109  0.0249
  721POPI   PO411102  17.248  15.858   6.087  0.0960 -0.2042 -0.1438
  721POPI   GL111103  17.096  15.605   6.323  0.2323  0.2559  0.1537
  721POPI   GL211104  16.851  15.802   6.471  0.0905  0.2032  0.0863
  721POPI   C1A11105  17.014  15.387   6.711 -0.1202  0.1194  0.1873
  721POPI   D2A11106  16.862  15.604   7.102  0.2459 -0.2698 -0.0027
  721POPI   C3A11107  16.894  15.580   7.489  0.1753 -0.2976  0.1043
  721POPI   C4A11108  16.976  15.912   7.911 -0.1037  0.1963  0.2674
  721POPI   C1B11109  17.038  16.014   6.923  0.1351  0.1085 -0.3456
  721POPI   C2B11110  17.193  15.962   7.390  0.1810  0.1670  0.1042
  721POPI   C3B11111  17.477  16.148   7.623  0.3171  0.4171  0.0323
  721POPI   C4B11112  17.906  16.224   7.825 -0.1904 -0.0839 -0.4322
  722POPI    C111113   6.403  12.462   6.190  0.0176  0.1520  0.1493
  722POPI    C211114   6.513  12.193   5.914 -0.1436 -0.0240  0.2543
  722POPI    C311115   6.715  12.536   5.950  0.0742 -0.1367  0.1291
  722POPI   PO411116   6.125  12.448   6.167  0.2053 -0.2058  0.1962
  722POPI   GL111117   5.786  12.460   6.498  0.3888  0.0122  0.2104
  722POPI   GL211118   6.112  12.723   6.610  0.0848 -0.2802 -0.2992
  722POPI   C1A11119   5.592  12.422   6.919  0.0971 -0.0583 -0.1754
  722POPI   D2A11120   5.117  12.356   7.085  0.1879 -0.2175  0.0266
  722POPI   C3A11121   4.954  12.305   7.507  0.2772  0.3224 -0.2185
  722POPI   C4A11122   4.842  12.174   7.855  0.3898  0.1736  0.1001
  722POPI   C1B11123   6.118  12.789   6.985 -0.0538 -0.2118  0.0078
  722POPI   C2B11124   6.317  12.802   7.325  0.0308  0.0896 -0.0260
  722POPI   C3B11125   6.353  12.492   7.675  0.2679  0.1358 -0.0560
  722POPI   C4B11126   6.653  12.197   7.432  0.0799  0.1263 -0.0637
  723POPI    C111127  15.059   9.998   5.570 -0.0745  0.1339  0.0951
  723POPI    C211128  15.071  10.329   5.794 -0.1078  0.0819  0.1743
  723POPI    C311129  14.740  10.240   5.587 -0.0114  0.2281 -0.0467
  723POPI   PO411130  15.217   9.869   5.690 -0.2567 -0.0442  0.3929
  723POPI   GL111131  15.076   9.663   5.956  0.2153 -0.0206 -0.1086
  723POPI   GL211132  15.391   9.566   6.071  0.2161  0.0960  0.0850
  723POPI   C1A11133  14.875   9.595   6.279  0.0091  0.0354 -0.3838
  723POPI   D2A11134  14.927   9.952   6.681  0.3154 -0.0062 -0.1165
  723POPI   C3A11135  15.062   9.809   7.010  0.0067  0.0787 -0.0167
  723POPI   C4A11136  15.083   9.622   7.282  0.0850 -0.2672  0.0192
  723POPI   C1B11137  15.327   9.660   6.490 -0.1196 -0.0918  0.1566
  723POPI   C2B11138  15.110   9.409   6.767 -0.3552 -0.2696  0.1402
  723POPI   C3B11139  14.844   9.270   7.055  0.0105 -0.0992 -0.2714
  723POPI   C4B11140  14.610   9.041   7.397  0.0561 -0.2793  0.2051
  724POPI    C111141  17.229   7.650   5.650  0.0823  0.2488 -0.0076
  724POPI    C211142  16.862   7.549   5.772  0.0319  0.3694 -0.0582
  724POPI    C311143  17.002   7.409   5.425  0.0915  0.2033  0.0319
  724POPI   PO411144  17.163   7.924   5.642 -0.0677 -0.0128  0.0802
  724POPI   GL111145  17.175   8.017   6.064  0.2095  0.1143 -0.0320
  724POPI   GL211146  17.193   7.704   6.154  0.0354 -0.1109  0.2226
  724POPI   C1A11147  17.374   8.357   6.265  0.0901  0.1504 -0.1771
  724POPI   D2A11148  17.231   8.645   6.626  0.0776  0.0215 -0.0233
  724POPI   C3A11149  16.900   8.717   6.801  0.2304 -0.1797  0.0147
  724POPI   C4A11150  16.692   8.752   7.203 -0.0590  0.0415  0.0397
  724POPI   C1B11151  17.247   7.648   6.515  0.0177 -0.1878 -0.1374
  724POPI   C2B11152  17.417   7.735   6.953 -0.1647 -0.0957  0.0733
  724POPI   C3B11153  17.468   8.054   7.245  0.1710  0.0668  0.1145
  724POPI   C4B11154  17.404   8.188   7.691 -0.2329  0.1133  0.0065
  725POPI    C111155  17.709   4.937   5.829 -0.0710  0.1623  0.0102
  725POPI    C211156  17.948   4.874   5.515 -0.1731 -0.0519 -0.0265
  725POPI    C311157  17.736   5.212   5.540  0.2033  0.1848  0.0543
  725POPI   PO411158  17.781   4.960   6.043 -0.0599  0.1115  0.1636
  725POPI   GL111159  18.115   4.951   6.348 -0.1779  0.0322  0.1059
  725POPI   GL211160  18.392   5.038   6.245 -0.0118 -0.0429 -0.0213
  725POPI   C1A11161  18.310   5.073   6.759 -0.1777 -0.0421  0.0864
  725POPI   D2A11162  18.622   5.180   7.034 -0.1157 -0.0512  0.1165
  725POPI   C3A11163  18.559   5.278   7.434  0.1075 -0.0032 -0.1456
  725POPI   C4A11164  18.681   5.443   7.819 -0.2640  0.1837  0.2239
  725POPI   C1B11165  18.687   5.229   6.390  0.0584 -0.0818 -0.1654
  725POPI   C2B11166  18.869   5.507   6.677  0.0575  0.2394  0.0798
  725POPI   C3B11167  19.006   5.514   7.077 -0.0385  0.1751  0.3628
  725POPI   C4B11168  19.107   5.504   7.473 -0.0599 -0.3286  0.1415
  726POPI    C111169  11.601  12.173   5.528 -0.2276 -0.0325 -0.0369
  726POPI    C211170  11.384  12.477   5.387  0.1056  0.2059 -0.0483
  726POPI    C311171  11.571  12.231   5.134 -0.1368  0.0078 -0.0383
  726POPI   PO411172  11.571  12.122   5.773  0.1162 -0.3315  0.3428
  726POPI   GL111173  11.552  11.980   6.181  0.0966  0.4843 -0.3603
  726POPI   GL211174  11.566  12.303   6.270  0.2316 -0.0769  0.1465
  726POPI   C1A11175  11.533  11.775   6.556  0.4273  0.1638 -0.0438
  726POPI   D2A11176  11.583  11.604   6.940 -0.1205  0.2511  0.3704
  726POPI   C3A11177  11.172  11.463   7.048  0.0189 -0.2512  0.0609
  726POPI   C4A11178  10.859  11.225   7.223 -0.2403  0.0894 -0.0538
  726POPI   C1B11179  11.644  12.255   6.716 -0.0596 -0.4417  0.0438
  726POPI   C2B11180  11.607  12.311   7.127 -0.1709  0.2597 -0.2083
  726POPI   C3B11181  11.526  12.210   7.555  0.4248  0.1167  0.2617
  726POPI   C4B11182  11.466  11.953   7.824  0.1676 -0.0929 -0.0884
  727POPI    C111183   5.896   9.347   5.590  0.1784 -0.0939 -0.2850
  727POPI    C211184   5.614   9.629   5.609  0.2095 -0.0634 -0.2769
  727POPI    C311185   5.551   9.298   5.393  0.0986 -0.1350 -0.1364
  727POPI   PO411186   5.892   9.248   5.945 -0.0437 -0.0708  0.0902
  727POPI   GL111187   5.639   9.214   6.275  0.0487  0.2496 -0.3290
  727POPI   GL211188   5.853   9.289   6.448 -0.1192 -0.0177  0.0573
  727POPI   C1A11189   5.451   9.124   6.688  0.2375  0.1190 -0.1189
  727POPI   D2A11190   5.520   9.066   7.159 -0.0343  0.1688 -0.2413
  727POPI   C3A11191   5.269   9.161   7.419 -0.4196 -0.2835  0.2347
  727POPI   C4A11192   5.116   9.040   7.774 -0.0691 -0.1261  0.0926
  727POPI   C1B11193   5.882   9.233   6.890 -0.0212  0.4664  0.0325
  727POPI   C2B11194   6.031   9.101   7.241  0.4307  0.0818  0.2808
  727POPI   C3B11195   6.148   9.304   7.592 -0.2307  0.4440  0.2869
  727POPI   C4B11196   6.401   9.467   7.932  0.3085  0.0224  0.1592
  728POPI    C111197   8.608  10.253   5.790  0.0395  0.2536 -0.0782
  728POPI    C211198   8.588   9.857   5.846 -0.0880  0.3020  0.2402
  728POPI    C311199   8.515  10.012   5.485  0.3103  0.0101  0.0259
  728POPI   PO411200   8.569  10.295   6.021  0.0690  0.2748  0.0026
  728POPI   GL111201   8.747  10.430   6.462  0.0906  0.1187  0.2591
  728POPI   GL211202   8.730  10.242   6.605 -0.0582  0.1171 -0.2689
  728POPI   C1A11203   8.612  10.711   6.662  0.2971  0.2145 -0.1449
  728POPI   D2A11204   8.758  11.030   7.069 -0.4032 -0.1604  0.0893
  728POPI   C3A11205   8.485  11.145   7.508  0.1613 -0.2993  0.0738
  728POPI   C4A11206   8.203  11.210   7.747 -0.0658 -0.0726 -0.1069
  728POPI   C1B11207   8.684  10.089   7.027  0.0569  0.2220 -0.1306
  728POPI   C2B11208   8.524  10.078   7.465  0.3866 -0.1471 -0.0836
  728POPI   C3B11209   8.471   9.863   7.938  0.2101 -0.1221  0.0931
  728POPI   C4B11210   8.188   9.801   8.344  0.0229  0.1596  0.1132
  729POPI    C111211  12.007  12.966   6.084 -0.0312 -0.5076 -0.0433
  729POPI    C211212  11.918  13.229   5.796  0.1935 -0.4327 -0.0462
  729POPI    C311213  11.630  13.093   6.038  0.0356 -0.3584 -0.1898
  729POPI   PO411214  12.175  13.142   6.234  0.1218 -0.1921 -0.2975
  729POPI   GL111215  12.380  13.286   6.586  0.0798  0.1073 -0.2121
  729POPI   GL211216  12.231  13.008   6.683  0.0605  0.0007 -0.1397
  729POPI   C1A11217  12.682  13.426   6.902 -0.0314  0.0023 -0.1112
  729POPI   D2A11218  12.698  13.227   7.285  0.2083  0.1071  0.0383
  729POPI   C3A11219  12.471  13.423   7.598  0.0546 -0.0242  0.0552
  729POPI   C4A11220  12.532  13.645   7.947  0.0596  0.1695  0.2382
  729POPI   C1B11221  12.294  13.006   7.169  0.0553 -0.0865  0.1166
  729POPI   C2B11222  12.088  13.089   7.568  0.1002  0.0051  0.0670
  729POPI   C3B11223  12.184  13.195   7.945  0.2043  0.3076 -0.0813
  729POPI   C4B11224  12.629  13.176   8.109  0.2420  0.2194  0.3076
  730POPI    C111225   1.674   7.821   5.299  0.3145  0.0587 -0.1682
  730POPI    C211226   1.561   8.193   5.204 -0.0642 -0.0500 -0.1618
  730POPI    C311227   1.330   7.882   5.105  0.3013 -0.2968 -0.2640
  730POPI   PO411228   1.678   7.802   5.650  0.1873  0.1921  0.1971
  730POPI   GL111229   1.973   7.934   5.983 -0.1632  0.2327  0.0122
  730POPI   GL211230   2.075   8.128   6.199  0.0534 -0.3173  0.1697
  730POPI   C1A11231   1.994   7.601   6.279 -0.2273 -0.1840 -0.2828
  730POPI   D2A11232   1.853   7.551   6.681 -0.2209  0.0750  0.1377
  730POPI   C3A11233   1.837   7.115   6.867  0.0828  0.0604 -0.0521
  730POPI   C4A11234   1.976   6.990   7.306  0.2210 -0.0250  0.1970
  730POPI   C1B11235   1.898   8.005   6.573  0.0647 -0.1777  0.0229
  730POPI   C2B11236   1.783   8.251   7.028 -0.3160  0.1597 -0.1501
  730POPI   C3B11237   2.119   8.403   7.320 -0.0575  0.1400  0.0985
  730POPI   C4B11238   2.290   8.600   7.536 -0.3742  0.0706  0.4868
  731POPI    C111239   0.697   1.693   5.880 -0.2322  0.2780 -0.0518
  731POPI    C211240   1.060   1.736   6.043 -0.2264  0.1930 -0.0422
  731POPI    C311241   1.009   1.797   5.651 -0.1553 -0.0186 -0.0861
  731POPI   PO411242   0.546   1.830   6.102  0.0281  0.0253 -0.2012
  731POPI   GL111243   0.333   1.743   6.494 -0.3526  0.0912 -0.0963
  731POPI   GL211244   0.535   1.527   6.618 -0.0976 -0.0127 -0.1924
  731POPI   C1A11245  -0.032   2.012   6.497 -0.0081  0.1561 -0.0019
  731POPI   D2A11246  -0.263   2.354   6.677  0.0374 -0.0162  0.0299
  731POPI   C3A11247  -0.611   2.225   7.007 -0.2439  0.2388 -0.0686
  731POPI   C4A11248  -0.785   1.953   7.265 -0.3614 -0.1494 -0.1373
  731POPI   C1B11249   0.861   1.504   6.919 -0.1485 -0.1231  0.0552
  731POPI   C2B11250   1.045   1.485   7.304 -0.0971 -0.1227  0.3564
  731POPI   C3B11251   1.030   1.300   7.614 -0.1779  0.0315 -0.1319
  731POPI   C4B11252   0.993   1.030   8.030  0.1385 -0.5043 -0.3546
  732POPI    C111253   2.045  14.981   5.890 -0.0928 -0.0714  0.0078
  732POPI    C211254   2.075  14.648   5.671 -0.2116  0.0918 -0.2624
  732POPI    C311255   2.072  15.005   5.492  0.1659  0.2548  0.0404
  732POPI   PO411256   2.157  14.964   6.095  0.0127  0.2807  0.0578
  732POPI   GL111257   2.212  14.985   6.500  0.3308 -0.2647 -0.1491
  732POPI   GL211258   2.068  14.744   6.588 -0.0627 -0.2783  0.0212
  732POPI   C1A11259   2.214  15.222   6.824 -0.3906  0.1949  0.2238
  732POPI   D2A11260   1.962  15.236   7.162  0.5496  0.1533  0.1031
  732POPI   C3A11261   1.904  14.962   7.418  0.1753  0.3033 -0.3804
  732POPI   C4A11262   1.520  14.799   7.582 -0.2588 -0.1350 -0.0146
  732POPI   C1B11263   1.794  14.861   6.861  0.1682  0.1661  0.0663
  732POPI   C2B11264   1.500  14.876   7.070 -0.1128  0.0523 -0.2080
  732POPI   C3B11265   1.331  14.527   7.183  0.1296 -0.2573  0.0192
  732POPI   C4B11266   1.586  14.237   7.513 -0.2133 -0.0050  0.0128
  733POPI    C111267   5.471  10.107   5.820  0.2504  0.1913 -0.0165
  733POPI    C211268   5.282  10.021   5.478 -0.1162 -0.0312  0.2350
  733POPI    C311269   5.178  10.345   5.688  0.2239  0.1997  0.0571
  733POPI   PO411270   5.716  10.091   5.791 -0.2978 -0.1869  0.1442
  733POPI   GL111271   5.862  10.138   6.253 -0.1671 -0.1774 -0.2991
  733POPI   GL211272   6.090  10.388   6.271 -0.0776  0.3858  0.3283
  733POPI   C1A11273   5.762  10.127   6.713  0.0084 -0.0302 -0.3450
  733POPI   D2A11274   5.707  10.028   7.212  0.1237  0.0984 -0.0404
  733POPI   C3A11275   5.459   9.962   7.654  0.2003  0.0022  0.1246
  733POPI   C4A11276   5.451   9.467   7.738 -0.1248  0.1934  0.0895
  733POPI   C1B11277   6.157  10.344   6.686 -0.3223 -0.0533  0.0798
  733POPI   C2B11278   6.053  10.367   7.143  0.1163  0.1647 -0.1511
  733POPI   C3B11279   5.930  10.245   7.589  0.0477 -0.2466  0.0059
  733POPI   C4B11280   5.648  10.418   7.835  0.1377  0.0849  0.1542
  734POPI    C111281   4.771   4.329   5.488 -0.0180 -0.2387 -0.0460
  734POPI    C211282   4.638   4.705   5.451  0.2985 -0.1113  0.0802
  734POPI    C311283   4.529   4.427   5.185 -0.1407  0.0081  0.1281
  734POPI   PO411284   4.670   4.252   5.755  0.1963 -0.1873 -0.1233
  734POPI   GL111285   4.731   4.550   6.116  0.1917  0.2068  0.0869
  734POPI   GL211286   4.662   4.380   6.300 -0.1516 -0.0418 -0.0409
  734POPI   C1A11287   5.111   4.528   6.329 -0.2151 -0.1287  0.3904
  734POPI   D2A11288   5.184   4.310   6.635 -0.2536  0.0165  0.2408
  734POPI   C3A11289   5.094   4.522   7.026 -0.0192  0.1651 -0.4671
  734POPI   C4A11290   5.004   4.919   7.052 -0.0118  0.0486 -0.1300
  734POPI   C1B11291   4.717   4.559   6.668  0.3180 -0.4774  0.0465
  734POPI   C2B11292   4.588   4.600   7.085 -0.1182 -0.2001 -0.2328
  734POPI   C3B11293   4.843   4.624   7.417  0.0446 -0.2680 -0.2676
  734POPI   C4B11294   5.049   4.689   7.698  0.1889  0.2187  0.1892
  735POPI    C111295  12.252   3.071   5.618  0.2546  0.2710  0.0525
  735POPI    C211296  12.618   2.923   5.681  0.2040  0.0735 -0.1082
  735POPI    C311297  12.357   2.722   5.455 -0.0911  0.0873  0.2120
  735POPI   PO411298  12.168   3.175   5.831 -0.0720 -0.3429 -0.1393
  735POPI   GL111299  12.473   3.433   6.096 -0.2577  0.0040 -0.2486
  735POPI   GL211300  12.693   3.229   6.085  0.1919 -0.1166  0.1789
  735POPI   C1A11301  12.484   3.445   6.563  0.0322  0.0252 -0.3434
  735POPI   D2A11302  12.736   3.654   6.967  0.2162  0.1699 -0.0447
  735POPI   C3A11303  12.723   3.585   7.374  0.1270  0.2741  0.0893
  735POPI   C4A11304  12.428   3.545   7.591  0.1700 -0.4066  0.1328
  735POPI   C1B11305  12.758   3.039   6.412 -0.3527 -0.0820 -0.1211
  735POPI   C2B11306  13.022   3.068   6.680 -0.2039 -0.0877 -0.0102
  735POPI   C3B11307  13.149   3.457   6.814  0.0695  0.0573 -0.1692
  735POPI   C4B11308  13.587   3.566   7.063  0.1128  0.1712 -0.0203
  736POPI    C111309  16.050  13.729   5.509  0.1315 -0.3191  0.0933
  736POPI    C211310  16.294  14.005   5.666  0.0451 -0.2314  0.0744
  736POPI    C311311  16.153  14.051   5.294 -0.0660 -0.2404  0.1152
  736POPI   PO411312  15.839  13.612   5.703 -0.1777 -0.1742  0.2155
  736POPI   GL111313  15.939  13.632   6.110  0.2101 -0.0922  0.2172
  736POPI   GL211314  16.263  13.917   6.104  0.3594  0.5155 -0.1448
  736POPI   C1A11315  15.982  13.789   6.581 -0.0840  0.0061  0.1475
  736POPI   D2A11316  16.136  13.907   6.953  0.2005  0.2463 -0.0010
  736POPI   C3A11317  15.885  13.925   7.283  0.0045  0.1778  0.0639
  736POPI   C4A11318  15.651  14.060   7.754  0.0842  0.1208  0.2123
  736POPI   C1B11319  16.442  14.046   6.398 -0.0806  0.0485  0.0884
  736POPI   C2B11320  16.371  14.261   6.769  0.1735 -0.2260 -0.0115
  736POPI   C3B11321  16.402  14.299   7.214  0.0703  0.2079 -0.0538
  736POPI   C4B11322  16.305  14.230   7.611 -0.0916  0.1086 -0.1112
  737POPS   CNO11323  10.970  17.487   6.057  0.3183 -0.2695  0.3908
  737POPS   PO411324  10.662  17.163   6.164  0.2363 -0.0900 -0.2451
  737POPS   GL111325  10.782  16.968   6.524  0.0247  0.0001  0.1283
  737POPS   GL211326  10.652  17.130   6.709 -0.0924  0.0625 -0.0625
  737POPS   C1A11327  10.862  16.624   6.821  0.1599 -0.3812 -0.0506
  737POPS   D2A11328  11.014  16.183   6.806 -0.4528 -0.0814 -0.1989
  737POPS   C3A11329  10.782  15.948   7.036  0.1182  0.1287  0.0537
  737POPS   C4A11330  10.425  15.908   6.969 -0.0369  0.0566 -0.0490
  737POPS   C1B11331  10.746  17.301   7.073 -0.2326  0.2496  0.1394
  737POPS   C2B11332  10.586  17.205   7.406  0.1832 -0.4195 -0.2294
  737POPS   C3B11333  10.672  17.381   7.680 -0.0620  0.1404 -0.1040
  737POPS   C4B11334  10.829  17.398   8.071  0.1084  0.3854 -0.0385
  738POPS   CNO11335  15.264   2.929   5.762 -0.0558 -0.1036  0.4923
  738POPS   PO411336  15.318   3.349   5.923  0.2436 -0.2378  0.1425
  738POPS   GL111337  15.355   3.303   6.352 -0.0531  0.3204 -0.1200
  738POPS   GL211338  15.230   3.460   6.561 -0.1956 -0.0092  0.1875
  738POPS   C1A11339  15.683   3.075   6.636 -0.3423  0.2319 -0.0107
  738POPS   D2A11340  15.735   2.668   6.794  0.0171 -0.2230 -0.2021
  738POPS   C3A11341  15.497   2.472   7.116  0.0309  0.3252  0.1905
  738POPS   C4A11342  15.337   2.511   7.527  0.0010  0.4152 -0.0757
  738POPS   C1B11343  15.080   3.407   7.025  0.1281 -0.1043  0.2402
  738POPS   C2B11344  14.828   2.997   7.081 -0.3320 -0.0050  0.2230
  738POPS   C3B11345  14.924   2.551   7.248  0.0365 -0.0924 -0.2971
  738POPS   C4B11346  14.950   2.238   7.466  0.1861  0.2779 -0.0865
  739POPS   CNO11347   7.201  16.222   6.699  0.0796 -0.0332 -0.2281
  739POPS   PO411348   6.913  16.208   6.303  0.1000 -0.1976  0.0256
  739POPS   GL111349   6.664  16.000   6.512  0.1704  0.1661 -0.3320
  739POPS   GL211350   6.813  15.794   6.573  0.4129 -0.2494 -0.0515
  739POPS   C1A11351   6.487  15.514   6.736  0.1300 -0.1060  0.3274
  739POPS   D2A11352   6.400  15.197   7.019 -0.0619  0.3635  0.1226
  739POPS   C3A11353   6.500  15.200   7.452  0.2464  0.1306  0.1801
  739POPS   C4A11354   6.501  14.958   7.844  0.2133 -0.1830 -0.2663
  739POPS   C1B11355   6.918  15.825   6.944  0.0897 -0.1514  0.4421
  739POPS   C2B11356   6.628  15.598   7.211 -0.0203 -0.0920  0.1972
  739POPS   C3B11357   6.691  15.679   7.706  0.0312  0.2825 -0.0703
  739POPS   C4B11358   6.429  15.891   8.006  0.1665 -0.0275  0.1965
  740POPS   CNO11359  13.450  12.943   6.355  0.0021  0.1321  0.2841
  740POPS   PO411360  13.022  12.866   6.305  0.0808 -0.1488 -0.0012
  740POPS   GL111361  13.113  12.564   6.658  0.0401 -0.0288 -0.1726
  740POPS   GL211362  12.966  12.268   6.661 -0.0049  0.1471 -0.1739
  740POPS   C1A11363  13.282  12.507   7.092  0.1731 -0.0268  0.2434
  740POPS   D2A11364  13.402  12.454   7.569  0.1104  0.4155 -0.0590
  740POPS   C3A11365  13.139  12.451   7.929 -0.1368 -0.3524  0.4579
  740POPS   C4A11366  12.935  12.681   8.144  0.0377  0.3173  0.0055
  740POPS   C1B11367  12.700  12.060   6.895  0.2089  0.1832 -0.0414
  740POPS   C2B11368  12.411  12.024   7.221  0.0468  0.3134 -0.2023
  740POPS   C3B11369  12.330  12.156   7.630 -0.0001  0.1872  0.0266
  740POPS   C4B11370  12.643  12.344   7.947 -0.0738 -0.2080 -0.0270
  741POPS   CNO11371  11.421  10.945   6.012  0.0086  0.0281  0.0138
  741POPS   PO411372  11.738  10.608   5.832  0.1292  0.0306  0.2291
  741POPS   GL111373  11.725  10.551   6.296  0.0725 -0.0792  0.2309
  741POPS   GL211374  11.591  10.773   6.464 -0.0715  0.4693  0.0024
  741POPS   C1A11375  12.034  10.326   6.576 -0.1411  0.0576 -0.1236
  741POPS   D2A11376  12.276  10.118   6.902 -0.1617 -0.0799 -0.3341
  741POPS   C3A11377  12.289  10.063   7.311 -0.0763 -0.2132 -0.2074
  741POPS   C4A11378  12.285   9.793   7.666 -0.1701  0.1269  0.1532
  741POPS   C1B11379  11.538  10.416   6.770 -0.0841  0.0233  0.0466
  741POPS   C2B11380  11.271  10.212   6.925 -0.0401  0.0585  0.0492
  741POPS   C3B11381  11.069  10.078   7.305 -0.0384  0.2975 -0.0132
  741POPS   C4B11382  11.146   9.755   7.634 -0.1924  0.3348  0.0489
  742POPS   CNO11383   2.964  16.028   5.389 -0.1025 -0.0118  0.0383
  742POPS   PO411384   3.046  15.939   5.786  0.1266  0.2277 -0.0459
  742POPS   GL111385   3.192  16.023   6.173 -0.1382  0.1293  0.1736
  742POPS   GL211386   3.126  15.722   6.377 -0.2096 -0.0152 -0.0394
  742POPS   C1A11387   3.306  16.419   6.532 -0.0058  0.0600  0.1696
  742POPS   D2A11388   3.559  16.769   6.461  0.2950 -0.0239  0.2489
  742POPS   C3A11389   3.772  16.806   6.819  0.0903 -0.0996  0.2931
  742POPS   C4A11390   4.058  16.681   7.131  0.1102 -0.0907 -0.2394
  742POPS   C1B11391   2.869  15.627   6.657  0.0199 -0.3273  0.0611
  742POPS   C2B11392   2.467  15.645   6.948  0.0337  0.0274 -0.2205
  742POPS   C3B11393   2.326  15.857   7.278 -0.0963 -0.3076  0.1410
  742POPS   C4B11394   2.219  16.048   7.629  0.0143 -0.0319  0.1749
  743POPS   CNO11395   2.704  17.045   5.331 -0.1429  0.0017  0.1427
  743POPS   PO411396   2.815  16.737   5.646  0.2341 -0.0677  0.0213
  743POPS   GL111397   2.877  16.806   6.005 -0.2201 -0.0708 -0.0459
  743POPS   GL211398   2.943  16.486   6.233  0.1569 -0.1609 -0.1984
  743POPS   C1A11399   3.060  16.996   6.402 -0.1589 -0.1532 -0.1290
  743POPS   D2A11400   2.811  17.126   6.723  0.2084 -0.1636  0.2608
  743POPS   C3A11401   3.047  17.305   7.105 -0.0593  0.0936 -0.0332
  743POPS   C4A11402   3.402  17.398   7.373 -0.2428 -0.0491 -0.1362
  743POPS   C1B11403   2.765  16.590   6.575 -0.0513  0.2162 -0.1279
  743POPS   C2B11404   2.359  16.501   6.783 -0.0713 -0.0185 -0.1058
  743POPS   C3B11405   2.153  16.457   7.183 -0.0168  0.0695  0.1867
  743POPS   C4B11406   1.928  16.493   7.570  0.1876 -0.0352  0.3641
  744POPS   CNO11407   7.003  11.117   5.663 -0.3021  0.0541  0.2103
  744POPS   PO411408   7.330  11.344   5.803 -0.1948  0.0119 -0.0441
  744POPS   GL111409   7.461  11.250   6.192 -0.1189 -0.0361 -0.3398
  744POPS   GL211410   7.197  11.200   6.272  0.2095 -0.0096 -0.0913
  744POPS   C1A11411   7.605  11.072   6.641  0.0627 -0.0111  0.0920
  744POPS   D2A11412   7.797  10.890   7.032  0.2117 -0.0371  0.1996
  744POPS   C3A11413   7.557  10.785   7.456 -0.0299 -0.2460 -0.0088
  744POPS   C4A11414   7.257  10.747   7.751 -0.0864 -0.2158  0.1951
  744POPS   C1B11415   7.184  11.362   6.698  0.4206  0.0396  0.0380
  744POPS   C2B11416   7.298  11.451   7.068 -0.2783  0.2404  0.0554
  744POPS   C3B11417   7.580  11.296   7.325 -0.0319 -0.0433 -0.1668
  744POPS   C4B11418   7.702  11.162   7.743  0.1156  0.0285  0.1070
  745POPS   CNO11419  11.946  10.023   5.727 -0.3225 -0.1317  0.0298
  745POPS   PO411420  11.505  10.007   5.600  0.0207 -0.0783  0.0517
  745POPS   GL111421  11.211   9.829   5.956  0.3424  0.0908  0.2500
  745POPS   GL211422  10.846   9.834   6.122 -0.0652  0.3099 -0.2406
  745POPS   C1A11423  11.243   9.870   6.455 -0.1404  0.0119  0.1744
  745POPS   D2A11424  11.150   9.754   6.849 -0.1733 -0.1603 -0.1697
  745POPS   C3A11425  10.919   9.484   7.138  0.2895  0.3164 -0.1219
  745POPS   C4A11426  10.898   9.190   7.622 -0.3283 -0.1277  0.1744
  745POPS   C1B11427  10.729  10.004   6.473 -0.0408  0.5392 -0.2463
  745POPS   C2B11428  10.673   9.948   6.918 -0.1860 -0.2379  0.1266
  745POPS   C3B11429  10.610   9.914   7.336  0.0514  0.0529  0.0232
  745POPS   C4B11430  10.657  10.023   7.666 -0.2016  0.1481 -0.1891
  746POPS   CNO11431  10.305  12.685   5.916 -0.1633 -0.0029  0.1934
  746POPS   PO411432  10.642  13.237   5.987  0.0080 -0.1923 -0.0714
  746POPS   GL111433  10.451  13.244   6.357 -0.1635 -0.0979  0.0656
  746POPS   GL211434  10.716  13.342   6.468 -0.0285 -0.1447 -0.1286
  746POPS   C1A11435  10.192  13.396   6.594  0.2234  0.2101  0.2101
  746POPS   D2A11436  10.192  13.631   6.898  0.0299 -0.0781  0.4356
  746POPS   C3A11437   9.881  13.585   7.266 -0.2789  0.0542 -0.0478
  746POPS   C4A11438   9.781  13.627   7.639 -0.1272  0.1453  0.1205
  746POPS   C1B11439  10.703  13.396   6.999 -0.1518 -0.2199  0.1359
  746POPS   C2B11440  10.411  13.530   7.331 -0.0791 -0.1549  0.0492
  746POPS   C3B11441  10.335  13.455   7.719 -0.0644  0.0821  0.0275
  746POPS   C4B11442  10.463  13.539   8.196 -0.1646 -0.0420 -0.0931
  747POPS   CNO11443  16.296  17.062   6.372 -0.2935 -0.3627  0.1239
  747POPS   PO411444  16.679  17.034   6.137  0.0015  0.1414  0.0226
  747POPS   GL111445  16.829  17.065   6.554 -0.2298 -0.1459  0.1093
  747POPS   GL211446  17.069  17.019   6.534  0.1230  0.0569 -0.0046
  747POPS   C1A11447  16.888  16.995   7.039 -0.1391  0.1895  0.3087
  747POPS   D2A11448  16.867  16.797   7.433  0.1943  0.0640 -0.0319
  747POPS   C3A11449  17.104  16.870   7.782 -0.0998  0.2122 -0.1247
  747POPS   C4A11450  17.175  16.815   8.237 -0.0512 -0.0793 -0.1495
  747POPS   C1B11451  17.328  16.641   6.698  0.0283 -0.0282 -0.0407
  747POPS   C2B11452  17.537  16.284   6.917  0.1440  0.2892  0.2114
  747POPS   C3B11453  17.697  15.987   7.238 -0.0383 -0.1320  0.0129
  747POPS   C4B11454  17.887  15.782   7.598 -0.2667 -0.1867  0.1077
  748POPS   CNO11455   2.286  18.097   5.637 -0.1398  0.2472 -0.1806
  748POPS   PO411456   1.933  18.026   5.839  0.0399  0.1199  0.3730
  748POPS   GL111457   2.271  18.064   6.243  0.0661  0.1522  0.1778
  748POPS   GL211458   2.518  17.873   6.212 -0.3255  0.1375  0.0003
  748POPS   C1A11459   2.233  18.217   6.762  0.0160 -0.1072  0.0363
  748POPS   D2A11460   1.837  18.158   6.970  0.0760 -0.0406  0.0809
  748POPS   C3A11461   1.765  17.753   7.148  0.0796  0.1258  0.1087
  748POPS   C4A11462   1.424  17.431   7.187  0.0285 -0.1461 -0.1232
  748POPS   C1B11463   2.517  17.750   6.654  0.0363  0.0034 -0.2060
  748POPS   C2B11464   2.627  17.576   7.117  0.1669  0.0686  0.0787
  748POPS   C3B11465   2.559  17.647   7.506  0.0999 -0.4137  0.0266
  748POPS   C4B11466   2.355  17.811   7.889  0.0360 -0.1319 -0.0997
  749POPS   CNO11467   0.376  13.727   5.423 -0.0774 -0.2398 -0.1228
  749POPS   PO411468   0.462  13.594   5.788  0.3076 -0.2464  0.2014
  749POPS   GL111469   0.663  13.771   6.196  0.1226  0.0856  0.2778
  749POPS   GL211470   0.617  14.129   6.287 -0.0651 -0.1921 -0.1536
  749POPS   C1A11471   0.631  13.747   6.681 -0.0011  0.2130  0.3108
  749POPS   D2A11472   0.548  13.848   7.066 -0.0985 -0.2080 -0.0872
  749POPS   C3A11473   0.591  13.643   7.393 -0.0125 -0.1871  0.0420
  749POPS   C4A11474   0.909  13.531   7.680 -0.1280  0.3144 -0.1924
  749POPS   C1B11475   0.315  14.227   6.655 -0.1975  0.1382 -0.1748
  749POPS   C2B11476   0.322  14.293   7.133 -0.1995  0.1082 -0.0994
  749POPS   C3B11477   0.336  14.633   7.413 -0.1850  0.0212 -0.0363
  749POPS   C4B11478   0.421  15.012   7.649 -0.1159 -0.0321  0.2476
  750POPS   CNO11479   4.552   2.347   6.298 -0.2981 -0.2146 -0.0050
  750POPS   PO411480   4.985   2.246   6.301 -0.0169 -0.0268  0.1084
  750POPS   GL111481   4.911   2.611   6.507  0.0533  0.3003  0.1034
  750POPS   GL211482   4.639   2.869   6.502 -0.2555  0.0814  0.2625
  750POPS   C1A11483   4.962   2.709   6.834  0.0092 -0.1282 -0.0820
  750POPS   D2A11484   4.949   2.598   7.230  0.1590 -0.0559 -0.0125
  750POPS   C3A11485   5.030   2.252   7.460  0.1991 -0.0354 -0.2026
  750POPS   C4A11486   5.266   1.958   7.720  0.1877 -0.3177  0.0773
  750POPS   C1B11487   4.606   3.045   6.945 -0.1148 -0.1657 -0.2018
  750POPS   C2B11488   4.775   3.125   7.393 -0.0033 -0.0478 -0.0801
  750POPS   C3B11489   4.954   3.048   7.777  0.0424 -0.1345  0.4533
  750POPS   C4B11490   5.143   2.955   8.131 -0.1185 -0.1970 -0.2477
  751POPS   CNO11491  16.160  11.141   5.525  0.0318 -0.4137  0.2252
  751POPS   PO411492  16.158  11.315   5.900 -0.2399 -0.2118 -0.2588
  751POPS   GL111493  16.169  11.449   6.298 -0.2509 -0.1039  0.0655
  751POPS   GL211494  16.506  11.641   6.417  0.1213 -0.0523 -0.1406
  751POPS   C1A11495  16.116  11.387   6.700  0.1445 -0.0006  0.1414
  751POPS   D2A11496  16.276  11.421   7.073 -0.0170 -0.0889 -0.1299
  751POPS   C3A11497  16.134  11.355   7.482 -0.1713 -0.0843 -0.1525
  751POPS   C4A11498  16.191  11.347   7.939  0.0870  0.0584 -0.0641
  751POPS   C1B11499  16.713  11.623   6.847  0.1063  0.1338 -0.1303
  751POPS   C2B11500  16.803  11.533   7.180 -0.1557  0.2559 -0.2426
  751POPS   C3B11501  17.001  11.333   7.559  0.0261  0.2419 -0.2660
  751POPS   C4B11502  17.216  10.890   7.626  0.0640 -0.0949 -0.1612
  752POPS   CNO11503  16.050  10.584   5.176  0.0244 -0.1158  0.1742
  752POPS   PO411504  15.857  10.708   5.508 -0.0270  0.1581 -0.0604
  752POPS   GL111505  15.927  10.355   5.795 -0.0175 -0.2896  0.0374
  752POPS   GL211506  15.917  10.389   6.151 -0.1672 -0.2720 -0.1427
  752POPS   C1A11507  15.930   9.894   6.057 -0.1161  0.1896  0.3218
  752POPS   D2A11508  15.839   9.547   6.409 -0.3446 -0.1926  0.0389
  752POPS   C3A11509  15.823   9.759   6.692 -0.2079  0.0910  0.1722
  752POPS   C4A11510  15.793   9.706   7.072 -0.0340  0.0604  0.1005
  752POPS   C1B11511  15.949  10.197   6.553 -0.3486  0.1827  0.1961
  752POPS   C2B11512  16.043  10.159   7.057  0.1215 -0.1169  0.1001
  752POPS   C3B11513  15.974  10.140   7.467 -0.2563 -0.0028 -0.0860
  752POPS   C4B11514  15.800  10.248   7.843 -0.2039 -0.3965  0.1799
  753POPS   CNO11515   7.141   8.606   5.503  0.0173 -0.0655 -0.0735
  753POPS   PO411516   6.973   8.166   5.487  0.1652 -0.4324 -0.1827
  753POPS   GL111517   6.951   7.923   5.956 -0.3576 -0.0938 -0.1688
  753POPS   GL211518   7.053   7.638   5.860  0.1546  0.0825  0.1292
  753POPS   C1A11519   6.882   8.003   6.408 -0.0493  0.2257 -0.1073
  753POPS   D2A11520   6.983   7.943   6.804  0.0867  0.2990 -0.0007
  753POPS   C3A11521   7.323   7.712   6.829  0.0183 -0.0771 -0.0052
  753POPS   C4A11522   7.655   7.993   6.988 -0.1170 -0.0858  0.0478
  753POPS   C1B11523   6.747   7.570   6.231 -0.0437 -0.1851 -0.0307
  753POPS   C2B11524   6.644   7.638   6.620  0.1196  0.3463 -0.4071
  753POPS   C3B11525   6.857   7.479   6.997  0.0228 -0.0655 -0.1402
  753POPS   C4B11526   6.861   7.674   7.386 -0.0798 -0.0548  0.0168
  754POPS   CNO11527  14.059   9.196   6.070  0.1759  0.1424  0.0038
  754POPS   PO411528  14.206   9.542   5.753 -0.3508 -0.2424  0.2414
  754POPS   GL111529  14.174   9.649   6.166  0.1942  0.2885  0.1465
  754POPS   GL211530  13.984   9.855   6.362  0.3073  0.0972  0.0639
  754POPS   C1A11531  14.367   9.578   6.543 -0.4962 -0.0036 -0.0206
  754POPS   D2A11532  14.571   9.645   6.873  0.0263 -0.1926 -0.1243
  754POPS   C3A11533  14.451   9.563   7.275 -0.2534 -0.2198 -0.1871
  754POPS   C4A11534  14.736   9.477   7.595 -0.1630 -0.2328 -0.2821
  754POPS   C1B11535  13.701   9.845   6.685  0.1639  0.1632  0.1888
  754POPS   C2B11536  13.494   9.651   6.952 -0.2616  0.0073  0.1319
  754POPS   C3B11537  13.466   9.275   7.286 -0.4130 -0.1789 -0.0102
  754POPS   C4B11538  13.336   8.925   7.463  0.1535 -0.1019 -0.1204
  755POPS   CNO11539  11.742  14.374   6.153  0.0631  0.0749 -0.1880
  755POPS   PO411540  11.990  14.024   6.052 -0.0107  0.0362  0.0279
  755POPS   GL111541  12.168  13.937   6.442  0.1896 -0.3121  0.1285
  755POPS   GL211542  12.383  14.107   6.555 -0.3314 -0.0198 -0.2271
  755POPS   C1A11543  12.202  13.685   6.893  0.2059  0.2174 -0.1469
  755POPS   D2A11544  12.208  13.780   7.297  0.0195 -0.3985  0.1492
  755POPS   C3A11545  12.555  13.985   7.596 -0.0492 -0.0456 -0.1337
  755POPS   C4A11546  12.932  14.014   7.716 -0.0287 -0.3172 -0.2861
  755POPS   C1B11547  12.278  14.187   6.943 -0.3194 -0.0304  0.0548
  755POPS   C2B11548  12.209  14.366   7.359 -0.3949 -0.0527  0.2999
  755POPS   C3B11549  12.127  14.799   7.472 -0.0542  0.2478  0.0869
  755POPS   C4B11550  12.096  15.205   7.725 -0.0485  0.0134 -0.4239
  756POPS   CNO11551  12.429   0.038   5.549 -0.0683 -0.1215  0.0824
  756POPS   PO411552  12.260   0.014   5.987  0.0996  0.1880 -0.0421
  756POPS   GL111553  12.421   0.185   6.338  0.3708 -0.3576  0.2809
  756POPS   GL211554  12.151  -0.037   6.488 -0.0258  0.0865  0.2059
  756POPS   C1A11555  12.495   0.324   6.786 -0.1647  0.0935  0.0413
  756POPS   D2A11556  12.574   0.318   7.234 -0.1488 -0.1686 -0.1659
  756POPS   C3A11557  12.177   0.420   7.557  0.1059  0.1160 -0.3055
  756POPS   C4A11558  11.868   0.554   7.828  0.0020  0.1693 -0.0990
  756POPS   C1B11559  12.212  -0.157   6.960 -0.0923  0.1206 -0.0693
  756POPS   C2B11560  12.244  -0.061   7.381 -0.1511  0.0802 -0.4148
  756POPS   C3B11561  12.300  -0.311   7.740 -0.2265 -0.1282  0.0498
  756POPS   C4B11562  12.262  -0.666   8.134  0.0136 -0.0456 -0.1729
  757POPS   CNO11563   9.411   7.792   6.343 -0.0656 -0.0605 -0.4020
  757POPS   PO411564   9.605   8.059   6.113  0.0876  0.1929 -0.0861
  757POPS   GL111565   9.566   8.313   6.472 -0.2166  0.1238 -0.1073
  757POPS   GL211566   9.742   8.501   6.570 -0.0093  0.1146 -0.1421
  757POPS   C1A11567   9.435   8.316   6.891  0.3628 -0.1343  0.1807
  757POPS   D2A11568   9.386   8.401   7.240  0.0096 -0.1928  0.0693
  757POPS   C3A11569   9.177   8.207   7.574 -0.1317 -0.1449  0.4555
  757POPS   C4A11570   9.060   7.785   7.597  0.1469 -0.0361  0.0385
  757POPS   C1B11571   9.725   8.721   7.060 -0.1177  0.3468 -0.2341
  757POPS   C2B11572  10.129   8.760   7.444 -0.1955  0.0274  0.1073
  757POPS   C3B11573  10.288   8.767   7.797  0.1821 -0.1491 -0.0915
  757POPS   C4B11574  10.670   8.996   8.009 -0.2700  0.1556 -0.0092
  758POPS   CNO11575   8.026  17.519   6.399 -0.0206 -0.3725 -0.1865
  758POPS   PO411576   7.879  17.948   6.220  0.2963  0.0759 -0.0522
  758POPS   GL111577   7.567  17.910   6.573 -0.2099 -0.0288 -0.1844
  758POPS   GL211578   7.287  17.983   6.535 -0.0161  0.4088  0.2549
  758POPS   C1A11579   7.488  17.911   6.966 -0.2532 -0.1029  0.2212
  758POPS   D2A11580   7.247  17.725   7.177  0.0914  0.1001 -0.2060
  758POPS   C3A11581   7.187  17.747   7.633  0.1558  0.1510  0.2605
  758POPS   C4A11582   7.377  17.659   7.992 -0.1738  0.2675  0.1532
  758POPS   C1B11583   7.230  18.294   6.879  0.3243  0.1025  0.3290
  758POPS   C2B11584   7.228  18.296   7.270  0.1099  0.2684  0.0683
  758POPS   C3B11585   7.552  18.076   7.460 -0.0440 -0.0044 -0.1537
  758POPS   C4B11586   7.726  17.761   7.598 -0.1285 -0.1731  0.3284
  759POPS   CNO11587   7.622   9.401   5.797  0.0396  0.0387 -0.1119
  759POPS   PO411588   8.010   9.244   5.888 -0.1796  0.0731 -0.0591
  759POPS   GL111589   8.203   9.232   6.325  0.1304  0.1969 -0.0011
  759POPS   GL211590   8.000   9.170   6.523 -0.1463 -0.2009 -0.0419
  759POPS   C1A11591   8.402   9.353   6.729 -0.1258  0.0780 -0.0536
  759POPS   D2A11592   8.400   9.254   7.123  0.1533  0.1786  0.2326
  759POPS   C3A11593   8.134   9.093   7.489  0.1514  0.0663  0.0614
  759POPS   C4A11594   8.051   9.018   7.905  0.2532  0.0936  0.1389
  759POPS   C1B11595   8.098   8.970   6.830  0.1217 -0.0964  0.0321
  759POPS   C2B11596   7.872   8.782   7.101  0.2392  0.0357 -0.1604
  759POPS   C3B11597   7.596   8.477   7.240 -0.1236 -0.3195  0.6229
  759POPS   C4B11598   7.422   8.398   7.617 -0.2512  0.1238  0.0283
  760POPS   CNO11599  10.834   0.079   6.202 -0.1795 -0.1067  0.2532
  760POPS   PO411600  10.708  -0.233   6.602 -0.1398  0.1422 -0.1281
  760POPS   GL111601  10.947  -0.423   6.896 -0.1105 -0.0222  0.2137
  760POPS   GL211602  11.168  -0.676   6.822  0.1261 -0.2371  0.0755
  760POPS   C1A11603  10.779  -0.535   7.326 -0.1459 -0.1436 -0.1277
  760POPS   D2A11604  10.755  -0.419   7.773 -0.2872  0.3835  0.0213
  760POPS   C3A11605  10.531  -0.248   8.282  0.2783 -0.0065  0.2881
  760POPS   C4A11606  10.179  -0.331   8.658 -0.1298  0.4749 -0.0310
  760POPS   C1B11607  11.212  -0.729   7.193  0.0805  0.1749 -0.0774
  760POPS   C2B11608  11.270  -0.583   7.620 -0.2790  0.1783 -0.1465
  760POPS   C3B11609  11.300  -0.621   8.092 -0.3023  0.0852  0.0795
  760POPS   C4B11610  11.208  -0.818   8.427  0.1003  0.0889 -0.0294
  761POPS   CNO11611   7.073   2.405   6.497  0.1013  0.2750  0.2691
  761POPS   PO411612   6.644   2.575   6.309 -0.3876 -0.1054 -0.1351
  761POPS   GL111613   6.573   2.716   6.689 -0.2368  0.1151 -0.1071
  761POPS   GL211614   6.530   2.963   6.798  0.3006  0.0284 -0.1638
  761POPS   C1A11615   6.619   2.591   7.111 -0.1076 -0.0085  0.1734
  761POPS   D2A11616   6.498   2.575   7.493  0.2303  0.1102 -0.0921
  761POPS   C3A11617   6.679   2.718   7.809 -0.1334 -0.4680 -0.3522
  761POPS   C4A11618   6.800   2.461   8.165  0.4080  0.1174  0.1989
  761POPS   C1B11619   6.531   3.123   7.244 -0.1425  0.2418 -0.1166
  761POPS   C2B11620   6.340   3.028   7.512 -0.0320 -0.3391  0.0411
  761POPS   C3B11621   6.186   3.380   7.812 -0.0046  0.0619  0.1281
  761POPS   C4B11622   6.352   3.600   8.179  0.2256 -0.2228 -0.0358
  762POPS   CNO11623  13.261  15.362   6.226 -0.1532 -0.0527 -0.1041
  762POPS   PO411624  13.104  14.941   6.121 -0.2577 -0.3654 -0.2621
  762POPS   GL111625  13.337  14.844   6.378  0.0275 -0.3795 -0.0176
  762POPS   GL211626  13.535  15.045   6.537 -0.0143  0.2780  0.0786
  762POPS   C1A11627  13.046  14.763   6.799  0.6061 -0.1131  0.0886
  762POPS   D2A11628  12.956  14.925   7.239 -0.0619 -0.0428 -0.0901
  762POPS   C3A11629  12.603  14.887   7.449  0.3926  0.0583  0.2156
  762POPS   C4A11630  12.528  14.955   7.844 -0.0429 -0.2642 -0.3160
  762POPS   C1B11631  13.877  14.984   6.906  0.1078  0.1295  0.0733
  762POPS   C2B11632  14.081  15.204   7.216 -0.3163  0.1476  0.1324
  762POPS   C3B11633  14.437  15.372   7.337 -0.1394 -0.3748  0.1097
  762POPS   C4B11634  14.699  15.716   7.324  0.2953  0.2270 -0.0994
  763POPS   CNO11635  17.635   5.498   5.997 -0.2260  0.3733  0.0144
  763POPS   PO411636  17.218   5.417   5.928 -0.2382  0.1429 -0.2019
  763POPS   GL111637  17.269   5.545   6.354  0.3158  0.2236  0.0631
  763POPS   GL211638  17.509   5.757   6.462  0.0995  0.0818 -0.1187
  763POPS   C1A11639  17.328   5.248   6.751  0.2961  0.1090 -0.0367
  763POPS   D2A11640  17.330   5.270   7.134 -0.0367 -0.3389 -0.0160
  763POPS   C3A11641  17.651   5.065   7.409 -0.0881 -0.4288  0.3350
  763POPS   C4A11642  17.715   4.638   7.634 -0.0048  0.2523 -0.2579
  763POPS   C1B11643  17.596   5.799   6.865  0.0248  0.1239 -0.0106
  763POPS   C2B11644  17.709   5.728   7.253  0.2337 -0.0476  0.1838
  763POPS   C3B11645  17.486   5.526   7.583  0.1634  0.0042  0.1478
  763POPS   C4B11646  17.005   5.383   7.548 -0.0786 -0.1074  0.1902
  764POPS   CNO11647   5.873   8.029   5.414 -0.0407  0.0419  0.1916
  764POPS   PO411648   6.096   8.418   5.508 -0.1634 -0.1257 -0.0270
  764POPS   GL111649   6.388   8.546   5.911 -0.1573  0.1607 -0.0712
  764POPS   GL211650   6.699   8.541   5.857 -0.3929  0.0733  0.2612
  764POPS   C1A11651   6.546   8.481   6.333  0.0282  0.0647  0.0405
  764POPS   D2A11652   6.651   8.369   6.705  0.0084  0.1932 -0.3458
  764POPS   C3A11653   6.704   8.596   7.072 -0.2253 -0.1581  0.0675
  764POPS   C4A11654   7.062   8.761   7.331 -0.1432  0.0756  0.0759
  764POPS   C1B11655   6.931   8.414   6.091  0.1484 -0.0188 -0.0661
  764POPS   C2B11656   7.074   8.562   6.443  0.1108 -0.1389  0.1303
  764POPS   C3B11657   7.135   8.415   6.827 -0.0894  0.2968 -0.0529
  764POPS   C4B11658   7.109   8.282   7.210  0.0603 -0.0374 -0.0100
  765POPS   CNO11659   4.290  10.181   5.515  0.0508  0.2973  0.0341
  765POPS   PO411660   4.512  10.518   5.376  0.0931 -0.2974 -0.0773
  765POPS   GL111661   4.582  10.516   5.924  0.0664 -0.0297  0.0179
  765POPS   GL211662   4.868  10.463   6.112  0.2271  0.0658  0.2892
  765POPS   C1A11663   4.441  10.468   6.377  0.1455 -0.0793 -0.4092
  765POPS   D2A11664   4.394  10.443   6.785  0.1661 -0.3355  0.2475
  765POPS   C3A11665   4.496  10.338   7.076  0.1822 -0.0462  0.0775
  765POPS   C4A11666   4.364  10.181   7.403  0.0908 -0.2382 -0.1127
  765POPS   C1B11667   4.885  10.472   6.621  0.1669  0.0358  0.2069
  765POPS   C2B11668   5.002  10.459   6.931 -0.0181 -0.1744 -0.2927
  765POPS   C3B11669   4.959  10.187   7.225 -0.2942 -0.1610 -0.1599
  765POPS   C4B11670   4.977  10.092   7.692  0.1714 -0.3036 -0.0509
  766POPS   CNO11671   3.565   5.365   5.852 -0.0481  0.0068 -0.0272
  766POPS   PO411672   3.947   5.358   5.871 -0.4030 -0.1057 -0.0345
  766POPS   GL111673   4.056   5.677   6.148  0.0756 -0.0099 -0.3898
  766POPS   GL211674   3.767   5.845   6.171  0.0321  0.1836 -0.3246
  766POPS   C1A11675   4.158   5.921   6.519 -0.1127 -0.3662 -0.0894
  766POPS   D2A11676   4.273   6.162   6.809 -0.0752 -0.1352 -0.3297
  766POPS   C3A11677   3.902   6.141   7.007 -0.2057  0.2451 -0.2075
  766POPS   C4A11678   3.674   6.048   7.428 -0.3010  0.0542 -0.0219
  766POPS   C1B11679   3.737   5.728   6.576 -0.0958  0.2702 -0.1508
  766POPS   C2B11680   3.527   5.705   6.980  0.1081  0.1125  0.2302
  766POPS   C3B11681   3.373   5.587   7.451 -0.2760  0.2810 -0.0380
  766POPS   C4B11682   3.363   5.307   7.811 -0.0410  0.1150 -0.4382
  767POPS   CNO11683  11.461  14.014   5.978  0.2005 -0.2334 -0.2849
  767POPS   PO411684  11.149  14.260   6.168  0.1408 -0.2207  0.0055
  767POPS   GL111685  11.336  14.225   6.444  0.1136 -0.1358 -0.1436
  767POPS   GL211686  11.660  13.973   6.440 -0.0579  0.0386 -0.0712
  767POPS   C1A11687  11.217  13.928   6.833  0.3531  0.2180  0.1247
  767POPS   D2A11688  10.964  13.816   7.159 -0.1398  0.1149  0.2603
  767POPS   C3A11689  11.125  14.082   7.456 -0.0344 -0.1308  0.0359
  767POPS   C4A11690  11.157  14.252   7.851  0.1714  0.1466 -0.2546
  767POPS   C1B11691  11.576  13.627   6.745 -0.1780 -0.1467  0.2696
  767POPS   C2B11692  11.199  13.386   6.883  0.0555 -0.1681  0.0389
  767POPS   C3B11693  11.016  13.121   7.209 -0.1805 -0.0442 -0.3734
  767POPS   C4B11694  11.196  12.977   7.628 -0.3313 -0.1806 -0.1173
  768POPS   CNO11695   4.076  14.806   6.130  0.1018  0.0060 -0.0897
  768POPS   PO411696   3.938  14.847   5.747 -0.1016 -0.2065  0.2696
  768POPS   GL111697   3.697  15.174   5.962 -0.2601 -0.0673 -0.1007
  768POPS   GL211698   3.969  15.343   6.046  0.2435  0.0222 -0.0581
  768POPS   C1A11699   3.589  15.452   6.392 -0.0721 -0.5943  0.1699
  768POPS   D2A11700   3.396  15.497   6.820  0.0631  0.2858  0.1189
  768POPS   C3A11701   3.301  15.967   6.787  0.1305  0.2004  0.0033
  768POPS   C4A11702   2.931  16.113   6.572  0.1211 -0.0956  0.1858
  768POPS   C1B11703   3.919  15.062   6.518  0.1344  0.2295  0.0880
  768POPS   C2B11704   3.731  15.060   6.958  0.0050  0.1589  0.2417
  768POPS   C3B11705   3.650  15.269   7.297  0.1838 -0.5439  0.0497
  768POPS   C4B11706   3.941  15.460   7.548  0.1489 -0.0061  0.2864
  769POPS   CNO11707   1.208   9.674   5.562 -0.0429 -0.1570 -0.0206
  769POPS   PO411708   1.034   9.583   5.916 -0.1324 -0.1724 -0.1532
  769POPS   GL111709   0.951   9.509   6.266  0.1043 -0.1297 -0.2155
  769POPS   GL211710   0.817   9.855   6.303  0.0721  0.0180 -0.2658
  769POPS   C1A11711   1.090   9.239   6.594  0.1259 -0.1050  0.1146
  769POPS   D2A11712   1.298   8.966   6.706  0.1237 -0.3118 -0.3577
  769POPS   C3A11713   1.081   8.942   7.154 -0.0258 -0.0506 -0.0873
  769POPS   C4A11714   1.153   8.861   7.525  0.1272 -0.0575 -0.0477
  769POPS   C1B11715   1.116   9.952   6.545  0.3354  0.0011 -0.2687
  769POPS   C2B11716   1.232   9.894   6.927  0.0961  0.1000  0.0256
  769POPS   C3B11717   1.395   9.810   7.269 -0.2665 -0.1578  0.1328
  769POPS   C4B11718   1.437   9.914   7.706 -0.1820  0.1088 -0.1131
  770POPS   CNO11719  17.877  17.630   5.623 -0.4757 -0.0900  0.1621
  770POPS   PO411720  18.241  17.715   5.864  0.0184 -0.1475 -0.0065
  770POPS   GL111721  18.488  17.570   6.314  0.3140 -0.1472  0.1796
  770POPS   GL211722  18.707  17.352   6.334  0.1625  0.1273 -0.1797
  770POPS   C1A11723  18.550  17.588   6.797  0.0834  0.1632 -0.4010
  770POPS   D2A11724  18.611  17.212   7.017 -0.1121  0.3581  0.0453
  770POPS   C3A11725  18.687  16.981   7.321 -0.0821  0.0144  0.3545
  770POPS   C4A11726  18.661  16.488   7.407  0.2253  0.0780 -0.2475
  770POPS   C1B11727  19.040  17.177   6.717 -0.1256  0.1914 -0.0643
  770POPS   C2B11728  19.128  17.287   7.125 -0.2687  0.0836  0.2603
  770POPS   C3B11729  19.138  17.137   7.622  0.1192 -0.0380 -0.1091
  770POPS   C4B11730  19.322  17.153   8.064  0.0008 -0.2645  0.3503
  771POPS   CNO11731   9.221  10.503   5.688 -0.0783  0.0021 -0.0661
  771POPS   PO411732   9.677  10.566   5.713 -0.1623 -0.0419  0.2178
  771POPS   GL111733   9.412  10.523   6.155  0.2239  0.0424 -0.1094
  771POPS   GL211734   9.194  10.560   6.436  0.0238  0.2263 -0.1952
  771POPS   C1A11735   9.360  10.103   6.453  0.3150 -0.0445  0.0011
  771POPS   D2A11736   9.287   9.699   6.448  0.1655  0.0632 -0.1772
  771POPS   C3A11737   9.477   9.459   6.726  0.0827  0.0284  0.1077
  771POPS   C4A11738   9.415   9.296   7.055  0.3237 -0.0186  0.0001
  771POPS   C1B11739   9.003  10.564   6.906  0.2922  0.2322 -0.0856
  771POPS   C2B11740   8.637  10.530   7.255 -0.1759  0.0870 -0.4584
  771POPS   C3B11741   8.584  10.576   7.642 -0.3058  0.1273 -0.5214
  771POPS   C4B11742   8.284  10.321   7.927 -0.3840 -0.0700 -0.0560
  772POPS   CNO11743   3.838   9.426   5.361  0.0944 -0.0299 -0.2346
  772POPS   PO411744   4.133   9.232   5.524 -0.1435 -0.1598  0.2488
  772POPS   GL111745   3.923   9.274   5.878 -0.1667 -0.1015  0.2830
  772POPS   GL211746   3.904   9.537   6.093  0.2382 -0.2069  0.0620
  772POPS   C1A11747   4.108   9.068   6.296  0.1624 -0.3752 -0.0614
  772POPS   D2A11748   4.242   8.710   6.551  0.2147 -0.0116  0.3267
  772POPS   C3A11749   4.165   8.755   6.949 -0.4657  0.0505  0.1619
  772POPS   C4A11750   4.051   8.828   7.304 -0.0388  0.1124 -0.0725
  772POPS   C1B11751   3.797   9.542   6.433 -0.1205 -0.2661 -0.0559
  772POPS   C2B11752   3.562   9.337   6.845 -0.0932 -0.0204 -0.0948
  772POPS   C3B11753   3.474   9.432   7.275 -0.0296  0.4710 -0.2715
  772POPS   C4B11754   3.315   9.612   7.714 -0.0910  0.1809 -0.1510
  773POPS   CNO11755   9.438   1.354   6.590  0.1767  0.1153 -0.0874
  773POPS   PO411756   9.644   1.651   6.299  0.2867 -0.1154  0.3913
  773POPS   GL111757   9.785   1.690   6.674  0.0221  0.2389 -0.2909
  773POPS   GL211758   9.794   1.938   6.885  0.0871  0.1224 -0.0643
  773POPS   C1A11759   9.937   1.376   6.973  0.2061 -0.1157  0.1692
  773POPS   D2A11760  10.099   1.025   7.216 -0.1184 -0.0317 -0.0189
  773POPS   C3A11761  10.201   1.053   7.664 -0.2520 -0.0881  0.0799
  773POPS   C4A11762  10.122   1.057   8.019 -0.2804 -0.2996 -0.2592
  773POPS   C1B11763  10.084   1.830   7.214 -0.1075 -0.0703 -0.0170
  773POPS   C2B11764  10.346   2.020   7.542  0.2717  0.3096  0.0314
  773POPS   C3B11765  10.393   2.087   7.911 -0.0564  0.2338 -0.2531
  773POPS   C4B11766  10.570   2.336   8.129 -0.2035 -0.2322  0.0198
  774POPS   CNO11767   7.934   2.840   6.354  0.1761 -0.1549 -0.2224
  774POPS   PO411768   7.527   3.111   6.396  0.0180 -0.1207  0.1340
  774POPS   GL111769   7.560   3.062   6.791 -0.0550 -0.1855 -0.0660
  774POPS   GL211770   7.299   2.775   6.773  0.0843 -0.1148 -0.0215
  774POPS   C1A11771   7.434   3.220   7.265  0.2483 -0.0369 -0.1901
  774POPS   D2A11772   7.495   3.231   7.595  0.1753  0.0033  0.1079
  774POPS   C3A11773   7.226   3.418   7.855 -0.5624 -0.0487 -0.0616
  774POPS   C4A11774   7.157   3.363   8.293  0.0384  0.1424 -0.0469
  774POPS   C1B11775   7.090   2.945   7.030 -0.0928  0.1855  0.0103
  774POPS   C2B11776   6.930   2.939   7.389 -0.0203  0.2155 -0.1229
  774POPS   C3B11777   7.079   2.937   7.811 -0.0234 -0.0105  0.0215
  774POPS   C4B11778   7.195   2.900   8.256 -0.0616  0.1587  0.4847
  775POPS   CNO11779   6.357   7.427   5.912 -0.1260  0.0306 -0.0533
  775POPS   PO411780   6.215   7.605   5.628 -0.3526  0.3870  0.0159
  775POPS   GL111781   6.153   7.989   5.910  0.0329  0.1737 -0.1843
  775POPS   GL211782   6.458   8.003   6.008  0.1139 -0.1055  0.5489
  775POPS   C1A11783   5.880   8.203   6.269 -0.0140 -0.0276  0.0240
  775POPS   D2A11784   5.598   8.123   6.588 -0.1742 -0.1414 -0.2268
  775POPS   C3A11785   5.750   8.086   7.022 -0.0745  0.3449 -0.0257
  775POPS   C4A11786   5.825   8.220   7.436  0.1507 -0.1517  0.1609
  775POPS   C1B11787   6.333   8.079   6.409  0.1305 -0.0978 -0.1013
  775POPS   C2B11788   6.172   8.273   6.748 -0.0248  0.2959  0.1530
  775POPS   C3B11789   6.257   8.340   7.211 -0.0805  0.1209 -0.0425
  775POPS   C4B11790   6.275   8.344   7.609 -0.0466  0.1950 -0.1090
  776POPS   CNO11791  13.747   1.850   6.115 -0.4527 -0.1084 -0.1768
  776POPS   PO411792  13.546   1.511   5.768 -0.1311  0.1200  0.0168
  776POPS   GL111793  13.303   1.544   6.214  0.0935  0.0687  0.0176
  776POPS   GL211794  13.461   1.693   6.451  0.3081  0.0587  0.0279
  776POPS   C1A11795  12.998   1.391   6.545  0.1888 -0.1692 -0.0004
  776POPS   D2A11796  12.632   1.369   6.732 -0.3359  0.1571 -0.5210
  776POPS   C3A11797  12.458   1.702   6.754 -0.0764 -0.0695  0.3160
  776POPS   C4A11798  12.559   1.843   7.182 -0.0548  0.1210 -0.1045
  776POPS   C1B11799  13.418   1.631   6.892  0.2877 -0.1583  0.2847
  776POPS   C2B11800  13.298   1.794   7.243  0.0875  0.1477 -0.0409
  776POPS   C3B11801  13.385   1.739   7.594  0.0304 -0.0895  0.1820
  776POPS   C4B11802  13.492   2.165   7.753  0.0664 -0.4490  0.0288
  777POPS   CNO11803   6.058   4.106   5.382  0.0071 -0.0920 -0.0468
  777POPS   PO411804   6.186   4.153   5.812 -0.3244  0.1701  0.0606
  777POPS   GL111805   6.182   4.413   6.174  0.0516  0.0574 -0.0951
  777POPS   GL211806   5.989   4.273   6.364  0.1484  0.5590  0.0089
  777POPS   C1A11807   6.340   4.643   6.508 -0.1317 -0.0270  0.1879
  777POPS   D2A11808   6.414   4.724   6.957  0.0113  0.2739  0.1754
  777POPS   C3A11809   6.046   4.701   7.174  0.2629  0.0243  0.0871
  777POPS   C4A11810   5.892   5.065   7.353  0.0628 -0.0729  0.1849
  777POPS   C1B11811   6.169   4.184   6.695  0.1871 -0.2217  0.1231
  777POPS   C2B11812   6.200   4.063   7.120 -0.2022  0.1174  0.2429
  777POPS   C3B11813   6.110   4.074   7.432 -0.1630  0.1022 -0.1213
  777POPS   C4B11814   5.903   3.909   7.857  0.1919 -0.0512 -0.1394
  778POPS   CNO11815   5.399   5.635   5.342 -0.1370 -0.0219  0.1573
  778POPS   PO411816   5.481   5.384   5.646 -0.1530  0.0742 -0.1528
  778POPS   GL111817   5.381   5.461   6.161  0.4982  0.1093 -0.0173
  778POPS   GL211818   5.637   5.603   6.202 -0.4057  0.0619  0.2878
  778POPS   C1A11819   5.363   5.451   6.592  0.0017  0.0654  0.2202
  778POPS   D2A11820   5.284   5.686   6.895 -0.0531  0.2259 -0.0839
  778POPS   C3A11821   5.465   5.692   7.276  0.1226 -0.0703 -0.2681
  778POPS   C4A11822   5.594   5.552   7.721  0.1608  0.0275 -0.1245
  778POPS   C1B11823   5.948   5.546   6.476 -0.1630 -0.3853 -0.0874
  778POPS   C2B11824   5.924   5.559   6.948 -0.0894  0.0233  0.1458
  778POPS   C3B11825   5.997   5.547   7.369  0.0688 -0.4033 -0.0448
  778POPS   C4B11826   5.862   5.916   7.486  0.0306 -0.0385  0.1630
  779POPS   CNO11827   0.976   8.895   5.212 -0.0322 -0.0950 -0.0773
  779POPS   PO411828   0.947   8.678   5.764 -0.2408 -0.2101  0.2236
  779POPS   GL111829   1.060   8.467   6.080  0.5517  0.2396  0.0289
  779POPS   GL211830   0.937   8.147   6.065 -0.2613  0.1015 -0.1481
  779POPS   C1A11831   1.039   8.586   6.540 -0.1467  0.0596 -0.0719
  779POPS   D2A11832   0.766   8.672   6.830  0.3211  0.4425 -0.2394
  779POPS   C3A11833   0.724   8.576   7.278  0.2986 -0.0405 -0.1774
  779POPS   C4A11834   0.660   8.630   7.681 -0.0361  0.2563 -0.1582
  779POPS   C1B11835   0.756   8.139   6.514 -0.0401  0.2524  0.3288
  779POPS   C2B11836   0.785   8.160   7.005  0.1489 -0.1500  0.0779
  779POPS   C3B11837   0.596   8.108   7.427 -0.0190 -0.2181  0.0069
  779POPS   C4B11838   0.506   7.991   7.759  0.1593  0.0595 -0.2897
  780POPS   CNO11839   4.825   8.083   5.244  0.2829  0.3008 -0.1831
  780POPS   PO411840   4.735   7.949   5.680 -0.3060 -0.0341  0.1747
  780POPS   GL111841   4.327   7.878   5.940 -0.4939 -0.0989  0.0235
  780POPS   GL211842   4.092   8.116   5.972  0.1759 -0.3224  0.1319
  780POPS   C1A11843   4.271   7.965   6.413  0.0955 -0.1445  0.0241
  780POPS   D2A11844   4.563   7.953   6.767  0.2185  0.0305  0.0155
  780POPS   C3A11845   4.643   8.223   7.193 -0.0125 -0.2315  0.4228
  780POPS   C4A11846   4.496   8.571   7.354 -0.0820 -0.1105 -0.2285
  780POPS   C1B11847   3.961   8.322   6.312  0.0409  0.0453  0.0749
  780POPS   C2B11848   4.059   8.297   6.825 -0.3195 -0.0974 -0.0403
  780POPS   C3B11849   4.106   8.265   7.243  0.1825  0.0899  0.0316
  780POPS   C4B11850   4.137   8.033   7.649  0.3160  0.3127  0.0994
  781POPS   CNO11851  11.936   7.701   5.894 -0.1305  0.3554  0.0895
  781POPS   PO411852  11.601   7.334   5.956 -0.0480 -0.1029 -0.0053
  781POPS   GL111853  11.503   7.394   6.336  0.1576 -0.0090 -0.0395
  781POPS   GL211854  11.394   7.231   6.443  0.0542  0.0787 -0.0754
  781POPS   C1A11855  11.601   7.502   6.780  0.2220 -0.2342  0.0842
  781POPS   D2A11856  11.529   7.533   7.186 -0.3490  0.1118  0.0205
  781POPS   C3A11857  11.667   7.212   7.461 -0.1957  0.0413 -0.2647
  781POPS   C4A11858  12.130   7.235   7.824 -0.1444 -0.0472 -0.0290
  781POPS   C1B11859  11.214   7.177   6.863 -0.2771  0.2139 -0.4404
  781POPS   C2B11860  11.159   7.285   7.321 -0.1672  0.1192 -0.0676
  781POPS   C3B11861  11.287   7.539   7.657 -0.0371  0.2858 -0.1808
  781POPS   C4B11862  11.565   7.505   8.045  0.3276  0.1310  0.1104
  782POPS   CNO11863   7.840   2.367   5.935 -0.0296 -0.1627  0.0090
  782POPS   PO411864   8.004   2.266   6.419  0.0022  0.6223  0.0609
  782POPS   GL111865   8.234   2.165   6.787  0.0609 -0.0233 -0.3016
  782POPS   GL211866   8.194   1.762   6.938 -0.1889  0.0887 -0.5759
  782POPS   C1A11867   8.222   2.478   7.135 -0.2033 -0.1790  0.0851
  782POPS   D2A11868   8.617   2.572   7.380  0.0562 -0.0586 -0.1428
  782POPS   C3A11869   8.767   2.581   7.697 -0.0088  0.0686 -0.2751
  782POPS   C4A11870   8.974   2.597   8.137 -0.2178  0.3203  0.0439
  782POPS   C1B11871   7.920   1.660   7.152 -0.0779 -0.1117 -0.0476
  782POPS   C2B11872   7.824   1.589   7.648  0.1878  0.2834 -0.0507
  782POPS   C3B11873   7.662   1.772   8.005 -0.1495 -0.0639  0.0848
  782POPS   C4B11874   7.631   1.947   8.413  0.3413 -0.0112 -0.0003
  783POPS   CNO11875  12.218  12.536   5.965 -0.0505 -0.1003  0.2361
  783POPS   PO411876  12.443  12.200   6.116 -0.0124  0.0622 -0.0533
  783POPS   GL111877  12.536  11.943   6.461  0.3107  0.3755  0.0497
  783POPS   GL211878  12.651  11.592   6.429 -0.1538 -0.1496 -0.3992
  783POPS   C1A11879  12.402  11.661   6.866  0.2662 -0.1218  0.1493
  783POPS   D2A11880  12.173  11.500   7.296 -0.0719 -0.3037 -0.4370
  783POPS   C3A11881  12.143  11.178   7.586  0.1349  0.3203 -0.0392
  783POPS   C4A11882  12.100  10.898   7.838 -0.1368 -0.0471 -0.1263
  783POPS   C1B11883  12.380  11.238   6.679 -0.0708  0.0329 -0.2667
  783POPS   C2B11884  12.456  11.021   7.150  0.1298 -0.0810  0.0076
  783POPS   C3B11885  12.489  10.727   7.528  0.1668  0.0054 -0.0401
  783POPS   C4B11886  12.619  10.313   7.570 -0.1335 -0.1018 -0.0672
  784POPS   CNO11887  15.553   5.568   5.878 -0.0921  0.0624  0.2328
  784POPS   PO411888  15.472   5.262   6.141 -0.0328 -0.4848 -0.5222
  784POPS   GL111889  15.561   5.030   6.537 -0.2832 -0.1024  0.2972
  784POPS   GL211890  15.446   4.747   6.733 -0.0098  0.2878  0.2030
  784POPS   C1A11891  15.823   4.999   6.932 -0.1622  0.0543  0.2301
  784POPS   D2A11892  16.120   5.218   7.163  0.2994 -0.1049 -0.1159
  784POPS   C3A11893  16.218   5.053   7.570 -0.0721  0.4437 -0.1661
  784POPS   C4A11894  16.290   4.907   8.027 -0.1720 -0.3396  0.0445
  784POPS   C1B11895  15.369   4.756   7.077  0.1824 -0.3260  0.0969
  784POPS   C2B11896  15.349   4.754   7.516 -0.1492  0.0675 -0.0389
  784POPS   C3B11897  15.348   5.011   7.901  0.0955  0.0470  0.0753
  784POPS   C4B11898  15.538   5.191   8.269 -0.2081  0.0038 -0.0506
  785POPS   CNO11899   2.816   6.479   5.446 -0.2932  0.1338  0.1002
  785POPS   PO411900   2.567   6.386   5.854  0.4125  0.0343 -0.1836
  785POPS   GL111901   2.700   6.366   6.282 -0.2562 -0.0096  0.2600
  785POPS   GL211902   3.077   6.504   6.333  0.0900  0.1068 -0.0964
  785POPS   C1A11903   2.783   6.339   6.703 -0.2380  0.2962 -0.0418
  785POPS   D2A11904   2.713   6.375   7.067 -0.0683 -0.1312 -0.0303
  785POPS   C3A11905   2.614   5.997   7.438 -0.3235 -0.2500 -0.0859
  785POPS   C4A11906   2.442   5.577   7.649  0.1976 -0.1128  0.1038
  785POPS   C1B11907   3.094   6.703   6.762  0.0556 -0.2351 -0.0437
  785POPS   C2B11908   3.067   6.759   7.067 -0.1643  0.0083  0.0562
  785POPS   C3B11909   3.092   6.698   7.461 -0.2695  0.3182 -0.0727
  785POPS   C4B11910   2.889   6.746   7.866  0.0554 -0.0299 -0.1866
  786POPS   CNO11911   3.213  11.179   5.887 -0.2744  0.0426  0.2206
  786POPS   PO411912   3.023  10.821   5.818 -0.0812  0.1599 -0.2300
  786POPS   GL111913   3.001  10.588   6.193  0.0422  0.2332  0.2100
  786POPS   GL211914   2.763  10.400   6.326 -0.1351 -0.0802  0.0230
  786POPS   C1A11915   3.174  10.542   6.635 -0.0008  0.1820  0.2955
  786POPS   D2A11916   3.310  10.294   7.022  0.1223  0.0201 -0.3060
  786POPS   C3A11917   3.159  10.537   7.472 -0.0501 -0.1099  0.1171
  786POPS   C4A11918   3.281  10.957   7.643 -0.0963 -0.4907 -0.0213
  786POPS   C1B11919   2.821  10.207   6.762  0.0842  0.1512  0.6205
  786POPS   C2B11920   2.825  10.418   7.092 -0.1305  0.3357  0.4378
  786POPS   C3B11921   2.674  10.706   7.304 -0.2879  0.1622 -0.1427
  786POPS   C4B11922   2.282  10.917   7.386  0.0957 -0.0978  0.0413
  787POPS   CNO11923  11.434   3.902   5.692 -0.0886  0.0747  0.1721
  787POPS   PO411924  11.712   3.877   5.988 -0.0355  0.1902 -0.1088
  787POPS   GL111925  11.648   3.830   6.430 -0.1752  0.2691  0.2934
  787POPS   GL211926  11.374   3.695   6.548 -0.0551 -0.2575 -0.0444
  787POPS   C1A11927  11.701   4.134   6.688  0.3363 -0.4334  0.2182
  787POPS   D2A11928  11.951   3.970   7.050  0.1563 -0.1670 -0.3756
  787POPS   C3A11929  11.934   3.647   7.297  0.0971 -0.1370 -0.1104
  787POPS   C4A11930  12.003   3.546   7.768 -0.1606  0.0634 -0.0340
  787POPS   C1B11931  11.481   3.807   6.993 -0.1646 -0.0747 -0.0434
  787POPS   C2B11932  11.406   3.738   7.421 -0.1602  0.0676 -0.2414
  787POPS   C3B11933  11.108   3.763   7.684 -0.1202 -0.4122 -0.1479
  787POPS   C4B11934  10.916   3.643   8.041  0.0629  0.1538 -0.2191
  788POPS   CNO11935   8.559   0.608   6.108 -0.0033 -0.1401 -0.1068
  788POPS   PO411936   8.415   0.234   6.206 -0.2084 -0.2645 -0.3756
  788POPS   GL111937   8.572   0.006   6.604 -0.2109  0.1827 -0.3279
  788POPS   GL211938   8.834   0.266   6.791  0.1761  0.2314  0.0175
  788POPS   C1A11939   8.335  -0.227   6.899 -0.2971 -0.1383 -0.2058
  788POPS   D2A11940   8.486  -0.480   7.257  0.2069 -0.1539 -0.0707
  788POPS   C3A11941   8.189  -0.244   7.515  0.2092  0.2164  0.1906
  788POPS   C4A11942   7.888  -0.056   7.808 -0.2011 -0.0014 -0.1503
  788POPS   C1B11943   8.839   0.409   7.323  0.1486  0.2047 -0.2761
  788POPS   C2B11944   8.848   0.282   7.808  0.0333 -0.2336 -0.0000
  788POPS   C3B11945   8.610   0.334   8.041 -0.1430 -0.1164 -0.3361
  788POPS   C4B11946   8.087   0.366   8.021  0.2740 -0.0128 -0.1319
  789POPS   CNO11947   3.978   2.208   5.983  0.1406  0.0167 -0.2412
  789POPS   PO411948   3.561   2.497   6.122 -0.4050  0.1970  0.1685
  789POPS   GL111949   3.692   2.720   6.530  0.3154  0.4149  0.1095
  789POPS   GL211950   3.753   2.988   6.377  0.1156  0.0829 -0.1720
  789POPS   C1A11951   3.684   2.677   6.910 -0.1061 -0.1459 -0.3759
  789POPS   D2A11952   3.655   2.801   7.362 -0.0641 -0.0137 -0.1507
  789POPS   C3A11953   3.398   2.647   7.597  0.0149  0.1232 -0.1474
  789POPS   C4A11954   2.962   2.483   7.733 -0.1994 -0.0367  0.2623
  789POPS   C1B11955   3.565   3.199   6.799 -0.0760  0.0481 -0.2901
  789POPS   C2B11956   3.633   3.313   7.213  0.1564 -0.2536  0.2072
  789POPS   C3B11957   3.533   3.411   7.653 -0.1507 -0.1090  0.3071
  789POPS   C4B11958   3.484   3.206   7.997  0.1308 -0.0676 -0.1428
  790POPS   CNO11959   5.891   1.112   5.941  0.0814 -0.2797  0.1079
  790POPS   PO411960   6.260   0.941   6.084 -0.3017 -0.2296  0.1891
  790POPS   GL111961   5.992   1.219   6.479 -0.3080  0.2143  0.0586
  790POPS   GL211962   6.144   1.396   6.617 -0.0504  0.0890  0.0036
  790POPS   C1A11963   5.722   1.260   6.913 -0.0533  0.0420  0.0226
  790POPS   D2A11964   5.497   1.488   7.279 -0.0527  0.4144  0.1533
  790POPS   C3A11965   5.609   1.321   7.674 -0.1061  0.1509 -0.1016
  790POPS   C4A11966   5.509   0.847   7.871 -0.1646  0.1395 -0.1753
  790POPS   C1B11967   6.061   1.667   6.891 -0.0385  0.2105  0.1356
  790POPS   C2B11968   6.018   1.491   7.328 -0.1167  0.0645 -0.4432
  790POPS   C3B11969   6.069   1.333   7.715  0.2145 -0.1427 -0.0316
  790POPS   C4B11970   6.178   1.414   8.186 -0.2087  0.1952 -0.0371
  791POPS   CNO11971  14.246  14.897   6.069 -0.1415 -0.3531 -0.0552
  791POPS   PO411972  14.723  14.938   6.039  0.1267  0.3165 -0.0011
  791POPS   GL111973  14.594  15.049   6.492  0.2439 -0.0735  0.0243
  791POPS   GL211974  14.852  15.248   6.514  0.2953 -0.0934  0.1818
  791POPS   C1A11975  14.500  14.886   6.919 -0.0223 -0.2790  0.2701
  791POPS   D2A11976  14.485  14.863   7.370 -0.1594  0.2384  0.0636
  791POPS   C3A11977  14.730  14.831   7.645  0.1516 -0.0953  0.0680
  791POPS   C4A11978  15.035  15.048   7.874 -0.1047 -0.0039  0.1776
  791POPS   C1B11979  14.990  15.238   6.954  0.0317  0.1603  0.0192
  791POPS   C2B11980  14.965  15.275   7.353 -0.0271 -0.0655 -0.1583
  791POPS   C3B11981  14.911  15.500   7.703 -0.0192 -0.3940 -0.1077
  791POPS   C4B11982  14.856  15.973   7.748 -0.0443  0.0572 -0.3954
  792POPS   CNO11983  16.882   0.487   6.419 -0.0583  0.1881 -0.2115
  792POPS   PO411984  16.719   0.868   6.181 -0.1987  0.1626  0.0234
  792POPS   GL111985  16.812   1.033   6.629  0.1470  0.3092  0.1758
  792POPS   GL211986  16.636   1.348   6.761  0.0772 -0.1651 -0.1979
  792POPS   C1A11987  16.925   0.826   7.043 -0.1007 -0.1015  0.0647
  792POPS   D2A11988  17.130   0.388   7.197  0.0581  0.4324  0.0483
  792POPS   C3A11989  17.053   0.331   7.581 -0.0075 -0.1545  0.0220
  792POPS   C4A11990  17.011   0.069   7.824  0.0955  0.0584 -0.2149
  792POPS   C1B11991  16.976   1.323   7.055  0.0194  0.4618 -0.1087
  792POPS   C2B11992  17.011   1.137   7.443 -0.2265  0.2720 -0.0694
  792POPS   C3B11993  16.860   0.824   7.690 -0.0266  0.1749 -0.0105
  792POPS   C4B11994  16.761   0.740   7.997 -0.0428 -0.0269  0.0908
  793POPS   CNO11995   8.236   4.292   6.090 -0.1056 -0.2547 -0.1692
  793POPS   PO411996   8.093   4.665   5.946  0.0576  0.2193  0.0194
  793POPS   GL111997   8.141   4.832   6.318 -0.1909  0.0211 -0.0405
  793POPS   GL211998   8.416   4.701   6.403  0.4063 -0.2095  0.0190
  793POPS   C1A11999   7.815   4.975   6.643 -0.2540  0.1012  0.2451
  793POPS   D2A12000   7.658   4.974   7.064  0.2818 -0.1318 -0.0877
  793POPS   C3A12001   7.812   5.107   7.415  0.0354  0.2940  0.0604
  793POPS   C4A12002   7.899   5.418   7.702  0.0510  0.1054 -0.0613
  793POPS   C1B12003   8.501   4.354   6.611 -0.0942 -0.1951  0.3569
  793POPS   C2B12004   8.727   3.946   6.830 -0.0712 -0.0618  0.0001
  793POPS   C3B12005   9.066   3.770   6.896 -0.2028 -0.4175  0.0061
  793POPS   C4B12006   9.499   3.778   6.667 -0.1144  0.1594 -0.2224
  794POPS   CNO12007  11.200   8.241   5.929  0.0462 -0.0479  0.0098
  794POPS   PO412008  10.817   8.329   6.002 -0.0543 -0.0829  0.3341
  794POPS   GL112009  10.805   8.213   6.345 -0.0173  0.5577 -0.1144
  794POPS   GL212010  10.550   8.039   6.372  0.2980 -0.0029 -0.0637
  794POPS   C1A12011  10.692   8.185   6.836 -0.2166 -0.0845  0.0694
  794POPS   D2A12012  10.556   8.033   7.139 -0.0556  0.2167 -0.0171
  794POPS   C3A12013  10.427   8.194   7.601  0.1526  0.1992  0.0356
  794POPS   C4A12014  10.139   8.228   7.828  0.0860 -0.2310  0.1920
  794POPS   C1B12015  10.424   7.759   6.635  0.0457 -0.0875 -0.1193
  794POPS   C2B12016  10.200   7.573   6.862  0.0771 -0.2625 -0.4177
  794POPS   C3B12017   9.864   7.534   7.132  0.1751 -0.3533 -0.0876
  794POPS   C4B12018   9.697   7.365   7.506 -0.5423  0.2110 -0.0675
  795POPS   CNO12019   2.452  13.177   5.593 -0.2893 -0.0842 -0.1603
  795POPS   PO412020   2.059  13.365   5.570 -0.0065 -0.0569 -0.2106
  795POPS   GL112021   1.978  13.133   5.972 -0.1872 -0.0264  0.1495
  795POPS   GL212022   2.339  13.104   6.056  0.0978  0.1137 -0.0227
  795POPS   C1A12023   2.004  13.306   6.410  0.0483  0.1260 -0.2217
  795POPS   D2A12024   1.931  13.383   6.784 -0.0182 -0.3032  0.0598
  795POPS   C3A12025   2.419  13.375   6.973  0.0274 -0.0276 -0.3812
  795POPS   C4A12026   2.565  12.975   7.104  0.1858 -0.0506 -0.2360
  795POPS   C1B12027   2.264  12.931   6.492  0.1978  0.2226 -0.1141
  795POPS   C2B12028   2.126  12.931   6.966  0.2708  0.2201 -0.1298
  795POPS   C3B12029   2.122  12.832   7.375 -0.0212 -0.2203  0.0926
  795POPS   C4B12030   2.325  12.640   7.622 -0.1185 -0.0049 -0.1807
  796POPS   CNO12031   8.889   8.623   5.858  0.0409 -0.1814  0.2966
  796POPS   PO412032   8.836   9.013   5.632  0.0245  0.1587  0.0002
  796POPS   GL112033   8.951   9.054   6.062  0.0242  0.0442  0.5567
  796POPS   GL212034   9.244   9.248   6.264  0.1704  0.1143 -0.0059
  796POPS   C1A12035   9.012   8.712   6.347 -0.0476  0.1585  0.2630
  796POPS   D2A12036   9.090   8.544   6.647  0.1940 -0.1303 -0.3638
  796POPS   C3A12037   8.906   8.364   6.950  0.1278 -0.0241 -0.1033
  796POPS   C4A12038   8.596   8.189   6.918  0.0910  0.1661  0.1244
  796POPS   C1B12039   9.011   9.230   6.606 -0.3195 -0.0782 -0.0747
  796POPS   C2B12040   8.916   9.275   6.965  0.0820 -0.0837  0.0219
  796POPS   C3B12041   8.830   9.122   7.324  0.3274  0.5434 -0.1416
  796POPS   C4B12042   8.631   8.963   7.716 -0.0214 -0.2062  0.3044
  797POPS   CNO12043  13.092  14.081   5.882  0.2892 -0.1084 -0.3614
  797POPS   PO412044  13.096  13.826   6.173 -0.1329 -0.3575  0.0267
  797POPS   GL112045  13.075  13.789   6.640 -0.2000  0.1698  0.2624
  797POPS   GL212046  12.910  14.073   6.576  0.2382  0.0437  0.2058
  797POPS   C1A12047  12.719  13.937   7.013 -0.1683  0.1305  0.0391
  797POPS   D2A12048  12.815  13.716   7.305 -0.1186  0.1152 -0.1438
  797POPS   C3A12049  13.121  13.500   7.144  0.0039 -0.1336 -0.3291
  797POPS   C4A12050  13.422  13.444   7.116 -0.1378 -0.0502 -0.0151
  797POPS   C1B12051  13.122  14.298   6.923 -0.0036  0.0037  0.3657
  797POPS   C2B12052  13.244  14.008   7.288 -0.0605  0.2377  0.2460
  797POPS   C3B12053  13.345  13.738   7.671  0.2544 -0.2271  0.3724
  797POPS   C4B12054  13.005  13.412   7.679  0.0150 -0.0416  0.2612
  798POPS   CNO12055   0.533   3.850   5.953  0.1005  0.0223 -0.0461
  798POPS   PO412056   0.851   3.556   5.887  0.2645  0.1210  0.1472
  798POPS   GL112057   1.062   3.295   6.162  0.1733  0.0316  0.1977
  798POPS   GL212058   1.365   3.461   6.160 -0.0042  0.2053 -0.3166
  798POPS   C1A12059   1.236   3.279   6.578 -0.2603 -0.0141  0.1024
  798POPS   D2A12060   1.572   3.160   6.885  0.2198  0.4053 -0.0061
  798POPS   C3A12061   2.102   3.130   6.949  0.1182 -0.0315  0.1080
  798POPS   C4A12062   2.227   3.105   7.368  0.1401 -0.1168  0.1727
  798POPS   C1B12063   1.309   3.784   6.529  0.1019  0.0373  0.2238
  798POPS   C2B12064   1.566   4.173   6.756 -0.1345 -0.2278 -0.1834
  798POPS   C3B12065   1.811   4.068   7.076 -0.2841 -0.1373 -0.1757
  798POPS   C4B12066   2.078   3.900   7.416  0.0611 -0.3762  0.1214
  799POPS   CNO12067   8.946   1.685   6.533 -0.3418 -0.0630 -0.0518
  799POPS   PO412068   8.562   1.543   6.643  0.1315  0.2918  0.1634
  799POPS   GL112069   8.583   1.438   7.087 -0.0374  0.0637  0.1080
  799POPS   GL212070   8.870   1.538   7.028 -0.0988  0.1351 -0.0754
  799POPS   C1A12071   8.352   1.471   7.380  0.3546 -0.0998  0.1876
  799POPS   D2A12072   8.341   1.518   7.789  0.4734 -0.2525 -0.1624
  799POPS   C3A12073   8.335   1.262   8.079  0.0061 -0.1254  0.0036
  799POPS   C4A12074   8.665   1.133   8.380  0.2517 -0.1439 -0.2269
  799POPS   C1B12075   8.968   1.534   7.418 -0.3257 -0.3554 -0.1237
  799POPS   C2B12076   9.208   1.240   7.589  0.4429 -0.0179 -0.1432
  799POPS   C3B12077   9.603   1.058   7.873  0.1108  0.4382  0.0946
  799POPS   C4B12078   9.571   0.840   8.185  0.1457  0.0248 -0.2960
  800POPS   CNO12079   9.403  11.827   5.810  0.2013  0.2009  0.1339
  800POPS   PO412080   9.400  11.450   6.110 -0.0923  0.1191  0.3712
  800POPS   GL112081   9.768  11.504   6.439 -0.0153 -0.0539  0.0424
  800POPS   GL212082   9.800  11.850   6.636 -0.3674 -0.0295 -0.0164
  800POPS   C1A12083   9.899  11.352   6.826 -0.0214 -0.0200 -0.0938
  800POPS   D2A12084  10.045  11.328   7.225  0.2209  0.0262 -0.0253
  800POPS   C3A12085   9.733  11.212   7.380  0.0982  0.0989 -0.1527
  800POPS   C4A12086   9.347  11.223   7.517  0.4820  0.0915 -0.0024
  800POPS   C1B12087   9.416  12.093   6.703  0.0272  0.1004 -0.1495
  800POPS   C2B12088   9.240  12.071   7.101  0.1857  0.1365 -0.0237
  800POPS   C3B12089   8.961  11.893   7.293 -0.2894 -0.2174  0.2880
  800POPS   C4B12090   8.788  11.960   7.646  0.3186 -0.1257  0.1039
  801POPS   CNO12091  12.258   2.201   5.536  0.0771  0.0794  0.0285
  801POPS   PO412092  12.507   2.419   5.854 -0.2067 -0.2546 -0.0916
  801POPS   GL112093  12.641   2.303   6.306 -0.1585 -0.1177  0.1243
  801POPS   GL212094  12.873   2.542   6.206  0.0734  0.0109  0.1561
  801POPS   C1A12095  12.630   2.157   6.783 -0.2729 -0.1091 -0.0316
  801POPS   D2A12096  12.949   2.174   7.198 -0.1227 -0.1043 -0.0225
  801POPS   C3A12097  13.023   2.237   7.696  0.1436  0.2765  0.3368
  801POPS   C4A12098  12.711   2.335   8.125  0.3737 -0.2581 -0.2178
  801POPS   C1B12099  12.942   2.557   6.589  0.0548 -0.0701 -0.1867
  801POPS   C2B12100  13.015   2.684   6.993 -0.1211  0.0923  0.0683
  801POPS   C3B12101  12.990   2.804   7.474  0.0314  0.1736 -0.0551
  801POPS   C4B12102  12.812   3.241   7.690 -0.0814 -0.1378  0.2067
  802POPS   CNO12103   8.647  17.585   6.055  0.0706  0.0276 -0.1256
  802POPS   PO412104   8.904  17.410   6.267  0.0735  0.1978 -0.2363
  802POPS   GL112105   8.781  17.202   6.527 -0.1007 -0.2472 -0.3094
  802POPS   GL212106   8.911  16.903   6.696  0.3612 -0.0516  0.0650
  802POPS   C1A12107   8.644  17.311   6.924  0.2066 -0.0177 -0.0111
  802POPS   D2A12108   8.590  17.209   7.306 -0.1627 -0.4623  0.0818
  802POPS   C3A12109   8.676  17.494   7.639  0.3136 -0.1792  0.0491
  802POPS   C4A12110   8.390  17.732   7.908  0.1927  0.1777 -0.0404
  802POPS   C1B12111   8.486  16.826   6.758  0.0174 -0.2284  0.2288
  802POPS   C2B12112   8.137  17.167   6.945  0.4139  0.0548  0.0457
  802POPS   C3B12113   8.129  17.540   6.983 -0.0186 -0.0321  0.1771
  802POPS   C4B12114   7.934  17.845   7.115 -0.1895  0.1150  0.4299
  803YOPS   CNO12115   7.138   4.707   5.775  0.1680  0.3351  0.2786
  803YOPS   PO412116   7.116   4.411   5.947  0.5512  0.0269 -0.3783
  803YOPS   GL112117   7.156   4.391   6.318  0.0154  0.0728  0.0591
  803YOPS   GL212118   7.407   4.209   6.407 -0.1224 -0.2120 -0.1328
  803YOPS   C1A12119   7.128   4.249   6.827 -0.0381  0.0137  0.1658
  803YOPS   D2A12120   6.994   3.903   7.101  0.1327 -0.2475  0.1408
  803YOPS   C3A12121   6.969   3.777   7.594  0.0101  0.1597 -0.1471
  803YOPS   C4A12122   6.829   4.139   7.913 -0.1106 -0.1383 -0.1295
  803YOPS   C1B12123   7.327   3.852   6.632 -0.0728 -0.0054  0.3632
  803YOPS   C2B12124   7.316   3.494   6.888  0.0141 -0.0380 -0.0899
  803YOPS   D3B12125   6.987   3.442   7.198  0.1016 -0.0624 -0.0101
  803YOPS   C4B12126   6.605   3.566   6.928  0.0975 -0.0439 -0.1976
  804YOPS   CNO12127   7.886   0.998   6.318  0.3716 -0.1207  0.0822
  804YOPS   PO412128   7.855   1.390   6.498 -0.1527 -0.0825  0.1145
  804YOPS   GL112129   7.667   1.367   6.846 -0.1022  0.5740 -0.4119
  804YOPS   GL212130   7.613   1.046   6.873 -0.1650 -0.1084 -0.1299
  804YOPS   C1A12131   7.450   1.598   7.216  0.2917 -0.1913  0.0822
  804YOPS   D2A12132   7.353   2.008   7.344  0.1044 -0.3202 -0.2828
  804YOPS   C3A12133   7.425   2.072   7.746  0.1214  0.1371 -0.2510
  804YOPS   C4A12134   7.191   1.818   8.181 -0.1417  0.0120 -0.3868
  804YOPS   C1B12135   7.391   1.101   7.255  0.0188 -0.1919  0.0631
  804YOPS   C2B12136   7.463   1.297   7.626  0.1354 -0.5150  0.0468
  804YOPS   D3B12137   7.335   1.436   7.992  0.0826 -0.2335  0.1131
  804YOPS   C4B12138   6.934   1.230   8.289  0.1555 -0.1686  0.3390
  805YOPS   CNO12139   3.519   0.967   5.735  0.2821 -0.1152 -0.0403
  805YOPS   PO412140   3.790   0.898   6.182  0.3990  0.0177  0.1484
  805YOPS   GL112141   3.773   1.214   6.497 -0.1301 -0.0750 -0.1697
  805YOPS   GL212142   4.051   1.340   6.527 -0.0413  0.3553  0.0173
  805YOPS   C1A12143   3.319   1.145   6.789 -0.0204  0.0955  0.0760
  805YOPS   D2A12144   3.351   1.081   7.246  0.1176  0.1157 -0.0474
  805YOPS   C3A12145   3.508   0.895   7.604 -0.2799 -0.1556  0.0156
  805YOPS   C4A12146   3.338   0.562   7.840 -0.1438 -0.1089 -0.0453
  805YOPS   C1B12147   4.226   1.154   6.862  0.2037  0.0433 -0.2318
  805YOPS   C2B12148   4.272   1.044   7.271 -0.0468  0.2844  0.3803
  805YOPS   D3B12149   4.040   0.992   7.640 -0.1066 -0.1092  0.1486
  805YOPS   C4B12150   4.037   1.133   8.027  0.1037 -0.3841  0.1030
  806YOPS   CNO12151  12.026  16.974   6.077 -0.1571  0.2228  0.1794
  806YOPS   PO412152  11.814  17.289   6.265  0.1770 -0.2984 -0.0300
  806YOPS   GL112153  11.705  17.191   6.748  0.0114  0.0655  0.0298
  806YOPS   GL212154  11.690  17.468   6.971  0.2076  0.1275 -0.1766
  806YOPS   C1A12155  11.676  16.983   7.096 -0.4330  0.3478  0.2956
  806YOPS   D2A12156  11.834  16.658   7.389  0.0145  0.0233 -0.0077
  806YOPS   C3A12157  11.891  16.400   7.741 -0.0202 -0.1599  0.2190
  806YOPS   C4A12158  11.686  16.423   8.230 -0.1198 -0.1266 -0.3609
  806YOPS   C1B12159  11.647  17.302   7.444 -0.3214  0.1127 -0.3267
  806YOPS   C2B12160  11.725  17.047   7.628  0.0415  0.2675 -0.3513
  806YOPS   D3B12161  11.552  16.835   7.966  0.1828 -0.0758 -0.1164
  806YOPS   C4B12162  11.670  16.824   8.458  0.1952 -0.0584 -0.1632
  807YOPS   CNO12163  15.431   1.573   6.060  0.2001 -0.1724  0.0907
  807YOPS   PO412164  15.043   1.342   6.028 -0.1202  0.0847 -0.0212
  807YOPS   GL112165  14.989   1.497   6.489 -0.0001 -0.0486 -0.1323
  807YOPS   GL212166  14.997   1.168   6.537  0.1228 -0.0154 -0.0597
  807YOPS   C1A12167  14.774   1.611   6.881  0.1187 -0.1106 -0.1798
  807YOPS   D2A12168  14.943   1.701   7.304  0.2628 -0.2391 -0.1059
  807YOPS   C3A12169  14.681   1.891   7.694  0.0821  0.3499  0.0539
  807YOPS   C4A12170  14.846   1.789   8.087 -0.0139 -0.3081 -0.1645
  807YOPS   C1B12171  14.987   1.135   7.010  0.2083 -0.0127 -0.0835
  807YOPS   C2B12172  14.947   1.081   7.487  0.0581 -0.1869 -0.1340
  807YOPS   D3B12173  14.913   1.404   7.839 -0.1791  0.0004  0.1041
  807YOPS   C4B12174  15.206   1.646   7.736  0.1802  0.0387  0.1290
  808YOPS   CNO12175  16.109   7.256   5.597  0.3311 -0.1623  0.2516
  808YOPS   PO412176  16.370   7.406   5.791  0.0280 -0.3878 -0.1732
  808YOPS   GL112177  16.505   7.540   6.162 -0.2694 -0.0817 -0.1788
  808YOPS   GL212178  16.710   7.701   6.174 -0.1331  0.0129  0.1938
  808YOPS   C1A12179  16.253   7.417   6.540  0.0908  0.1626 -0.0014
  808YOPS   D2A12180  16.106   7.287   6.927 -0.1252  0.0593 -0.1069
  808YOPS   C3A12181  16.043   7.078   7.347  0.3476 -0.0413 -0.0369
  808YOPS   C4A12182  15.968   7.251   7.808 -0.0344  0.1846 -0.0977
  808YOPS   C1B12183  16.783   7.541   6.611 -0.1097 -0.0505 -0.1581
  808YOPS   C2B12184  16.718   7.360   6.985  0.2004 -0.1291 -0.1208
  808YOPS   D3B12185  16.482   7.284   7.387 -0.0441  0.1538 -0.0620
  808YOPS   C4B12186  16.474   6.848   7.501  0.0932 -0.2337  0.0694
  809YOPS   CNO12187  14.551   7.743   6.096  0.1487  0.0031 -0.0122
  809YOPS   PO412188  14.138   7.845   6.045 -0.1647 -0.0898  0.0728
  809YOPS   GL112189  13.960   7.866   6.456 -0.1837  0.0951 -0.2154
  809YOPS   GL212190  13.824   7.691   6.574 -0.3231 -0.1371  0.1105
  809YOPS   C1A12191  14.254   7.742   6.888  0.2168  0.2666 -0.1032
  809YOPS   D2A12192  14.328   7.668   7.273 -0.0083  0.0237  0.0460
  809YOPS   C3A12193  14.518   7.536   7.623 -0.0433 -0.2735  0.1734
  809YOPS   C4A12194  14.908   7.661   7.603 -0.1998 -0.0761  0.0579
  809YOPS   C1B12195  13.815   7.641   7.072 -0.1098  0.0586  0.1517
  809YOPS   C2B12196  13.599   7.612   7.434 -0.3186 -0.0111  0.1897
  809YOPS   D3B12197  13.341   7.849   7.560 -0.1516 -0.1030  0.0326
  809YOPS   C4B12198  13.187   7.739   8.023 -0.2192  0.2008  0.3580
  810YOPS   CNO12199   9.139   4.934   5.880  0.0287 -0.2012  0.2770
  810YOPS   PO412200   9.376   5.122   6.213 -0.0111 -0.0994  0.2115
  810YOPS   GL112201   9.127   5.333   6.611  0.0746  0.0264  0.1515
  810YOPS   GL212202   9.130   5.617   6.650 -0.1792  0.0050 -0.1365
  810YOPS   C1A12203   9.083   5.260   7.066  0.1682 -0.2633 -0.0722
  810YOPS   D2A12204   9.184   5.432   7.424 -0.0229  0.2758 -0.6720
  810YOPS   C3A12205   9.278   5.484   7.812 -0.1470 -0.3002  0.2691
  810YOPS   C4A12206   9.530   5.268   8.086  0.2028  0.0690 -0.3073
  810YOPS   C1B12207   9.235   5.765   7.018 -0.1191 -0.0120  0.2803
  810YOPS   C2B12208   9.098   5.908   7.570  0.0388  0.0409 -0.1637
  810YOPS   D3B12209   8.722   5.794   7.841 -0.2805  0.1588 -0.0858
  810YOPS   C4B12210   8.849   6.001   8.257 -0.0433  0.1803 -0.0435
  811YOPS   CNO12211   0.502  16.582   5.447  0.0019  0.0473 -0.0997
  811YOPS   PO412212   0.490  16.674   5.847  0.0086 -0.0546 -0.1968
  811YOPS   GL112213   0.284  16.835   6.211  0.0925 -0.1820  0.0778
  811YOPS   GL212214   0.051  16.556   6.328  0.0027 -0.2420 -0.1277
  811YOPS   C1A12215   0.381  16.916   6.589  0.0142 -0.1011  0.1569
  811YOPS   D2A12216   0.516  16.667   6.920 -0.3079 -0.1773  0.5789
  811YOPS   C3A12217   0.914  16.685   7.072  0.0091  0.3001 -0.1081
  811YOPS   C4A12218   0.898  16.622   7.522 -0.1892 -0.1586  0.1041
  811YOPS   C1B12219  -0.020  16.512   6.727 -0.1900  0.0093 -0.0409
  811YOPS   C2B12220  -0.008  16.726   7.092 -0.3046 -0.0579  0.1064
  811YOPS   D3B12221  -0.105  17.051   7.197  0.2404  0.0090  0.1830
  811YOPS   C4B12222  -0.409  17.023   7.447  0.2067  0.0787  0.1632
  812YOPS   CNO12223   6.673   0.475   6.191  0.2356 -0.0586 -0.2155
  812YOPS   PO412224   6.490   0.136   6.250  0.2718 -0.0600  0.0752
  812YOPS   GL112225   6.389   0.406   6.602 -0.1734 -0.1068 -0.1805
  812YOPS   GL212226   6.536   0.427   6.902  0.2558  0.2300  0.4407
  812YOPS   C1A12227   6.023   0.549   6.700 -0.3501 -0.0628 -0.0651
  812YOPS   D2A12228   5.656   0.720   6.970  0.1550  0.2339  0.1186
  812YOPS   C3A12229   5.500   0.969   7.242 -0.1374  0.0478 -0.1241
  812YOPS   C4A12230   5.193   1.097   7.456  0.0769 -0.3260  0.2043
  812YOPS   C1B12231   6.493   0.445   7.352  0.2318 -0.1468 -0.1311
  812YOPS   C2B12232   6.574   0.530   7.800 -0.0001  0.3619 -0.0825
  812YOPS   D3B12233   6.430   0.558   8.248 -0.1080 -0.1283  0.2718
  812YOPS   C4B12234   6.350   1.036   8.482 -0.3222 -0.1001 -0.0728
  813YOPS   CNO12235   6.237  17.430   6.231 -0.1638  0.4568 -0.0216
  813YOPS   PO412236   6.468  17.591   6.529  0.0132 -0.0096 -0.1147
  813YOPS   GL112237   6.366  17.757   6.854  0.2229 -0.0114  0.0887
  813YOPS   GL212238   6.201  17.696   7.021  0.1032  0.1642  0.1580
  813YOPS   C1A12239   6.200  18.202   6.984 -0.3262 -0.5164  0.1381
  813YOPS   D2A12240   6.156  18.215   7.404  0.0726  0.2237  0.4318
  813YOPS   C3A12241   6.231  18.413   7.642 -0.1540 -0.2169 -0.3335
  813YOPS   C4A12242   5.931  18.589   7.991  0.3251  0.1564 -0.1095
  813YOPS   C1B12243   6.329  17.761   7.484  0.3247  0.4449  0.1965
  813YOPS   C2B12244   6.142  17.907   7.846 -0.0614  0.0537 -0.1361
  813YOPS   D3B12245   5.784  18.084   8.135  0.1284 -0.5129  0.1858
  813YOPS   C4B12246   5.868  18.368   8.460  0.2053  0.1852 -0.0787
  814YOPS   CNO12247  13.515  16.415   5.445  0.0083 -0.0012  0.1369
  814YOPS   PO412248  13.703  16.511   5.820  0.2783 -0.0569 -0.1018
  814YOPS   GL112249  13.959  16.546   6.210 -0.3860 -0.0824 -0.1243
  814YOPS   GL212250  14.025  16.853   6.252 -0.2650 -0.0403 -0.1952
  814YOPS   C1A12251  14.000  16.459   6.689 -0.0790 -0.0728 -0.1575
  814YOPS   D2A12252  14.022  16.196   7.002  0.0981 -0.1278  0.1411
  814YOPS   C3A12253  14.239  15.834   7.235  0.0585 -0.0702  0.1673
  814YOPS   C4A12254  14.344  15.837   7.672  0.1383  0.0116  0.1730
  814YOPS   C1B12255  14.199  17.055   6.586 -0.1229 -0.0960  0.0269
  814YOPS   C2B12256  14.362  16.785   6.874  0.1916 -0.1224 -0.1209
  814YOPS   D3B12257  14.257  16.604   7.156 -0.0473 -0.2403  0.0272
  814YOPS   C4B12258  13.836  16.754   7.256  0.1701 -0.0309 -0.0580
  815YOPS   CNO12259   8.417   3.886   5.845 -0.1093  0.1504  0.1420
  815YOPS   PO412260   8.021   3.777   6.033  0.0889  0.1154  0.1493
  815YOPS   GL112261   7.838   3.960   6.449  0.2989  0.0618 -0.2058
  815YOPS   GL212262   8.149   3.961   6.682  0.2974 -0.1273  0.1202
  815YOPS   C1A12263   7.744   4.095   6.878  0.2610 -0.1580 -0.1807
  815YOPS   D2A12264   7.476   4.109   7.263  0.0385 -0.4232 -0.2145
  815YOPS   C3A12265   7.164   4.265   7.401  0.0240 -0.1260  0.0045
  815YOPS   C4A12266   6.937   4.579   7.679  0.0579  0.0343  0.1414
  815YOPS   C1B12267   8.214   4.099   7.065 -0.2937  0.0463 -0.0609
  815YOPS   C2B12268   8.242   4.081   7.442 -0.0403  0.1388 -0.0224
  815YOPS   D3B12269   8.307   4.221   7.789 -0.1475 -0.1669  0.0452
  815YOPS   C4B12270   8.615   4.430   8.074  0.0670  0.1988 -0.3931
  816YOPS   CNO12271   9.349  17.500   5.910  0.3547 -0.0551 -0.1789
  816YOPS   PO412272   9.466  17.838   6.088 -0.0428  0.3357 -0.1375
  816YOPS   GL112273   9.438  17.728   6.499  0.0140  0.3163 -0.1370
  816YOPS   GL212274   9.242  17.436   6.618 -0.0196  0.0842 -0.1641
  816YOPS   C1A12275   9.577  17.897   6.912 -0.2814 -0.3649  0.3062
  816YOPS   D2A12276   9.691  17.895   7.430  0.1184  0.2704  0.2727
  816YOPS   C3A12277   9.692  18.137   7.774 -0.2624 -0.1075 -0.0260
  816YOPS   C4A12278   9.983  18.055   8.125 -0.1259  0.3104  0.1869
  816YOPS   C1B12279   9.111  17.271   6.994  0.1033 -0.1216  0.1632
  816YOPS   C2B12280   9.110  17.185   7.370  0.2654  0.2631 -0.2034
  816YOPS   D3B12281   9.108  16.844   7.711  0.1022 -0.0197  0.3180
  816YOPS   C4B12282   9.113  17.100   8.023  0.0930 -0.0989  0.2946
  817YOPS   CNO12283  11.369  18.179   5.893 -0.0748  0.0222 -0.0646
  817YOPS   PO412284  11.321  18.557   6.150 -0.1800  0.3275 -0.1933
  817YOPS   GL112285  11.552  18.642   6.469 -0.2051  0.0620 -0.1141
  817YOPS   GL212286  11.579  18.902   6.545  0.2616 -0.1212  0.1042
  817YOPS   C1A12287  11.504  18.601   6.941  0.1243 -0.0135 -0.1852
  817YOPS   D2A12288  11.248  18.393   7.289  0.0010 -0.1579  0.1064
  817YOPS   C3A12289  11.030  18.124   7.414  0.0860 -0.1485  0.1686
  817YOPS   C4A12290  11.129  18.075   7.905  0.0547 -0.1100 -0.1658
  817YOPS   C1B12291  11.808  19.022   6.900 -0.3293 -0.2107  0.0371
  817YOPS   C2B12292  11.915  18.990   7.259 -0.0023 -0.0114 -0.0204
  817YOPS   D3B12293  11.760  19.282   7.533  0.1192  0.0668 -0.0472
  817YOPS   C4B12294  12.041  19.644   7.833  0.3531  0.0082  0.1406
  818YOPS   CNO12295  12.431   4.392   6.298 -0.1897 -0.1866 -0.0664
  818YOPS   PO412296  12.121   4.564   6.159 -0.3376 -0.3176 -0.0813
  818YOPS   GL112297  12.160   4.654   6.627 -0.0083  0.0784  0.2764
  818YOPS   GL212298  12.469   4.667   6.814  0.3032  0.2536 -0.3502
  818YOPS   C1A12299  12.051   4.570   7.063  0.2115 -0.0221  0.0645
  818YOPS   D2A12300  12.007   4.733   7.463 -0.0188  0.1021 -0.0609
  818YOPS   C3A12301  12.115   4.756   7.875 -0.1138 -0.2537  0.0015
  818YOPS   C4A12302  12.137   5.021   8.376  0.1021  0.2466 -0.2640
  818YOPS   C1B12303  12.564   4.472   7.298  0.1015 -0.1095 -0.1810
  818YOPS   C2B12304  12.639   4.488   7.738 -0.0956 -0.2123 -0.0299
  818YOPS   D3B12305  12.627   4.019   8.062  0.1382  0.3299  0.2169
  818YOPS   C4B12306  12.798   3.702   7.881  0.0887  0.0108 -0.0858
  819YOPS   CNO12307   7.532  17.454   6.275 -0.0251  0.1653  0.2512
  819YOPS   PO412308   7.115  17.502   6.394  0.2142  0.1140 -0.1303
  819YOPS   GL112309   7.107  17.551   6.765  0.1329  0.1439  0.2497
  819YOPS   GL212310   6.893  17.615   6.881  0.3221 -0.1319 -0.1588
  819YOPS   C1A12311   7.026  17.198   7.050  0.0285 -0.5525  0.3080
  819YOPS   D2A12312   7.096  17.052   7.408 -0.0120 -0.4737  0.0473
  819YOPS   C3A12313   7.135  17.156   7.779 -0.1472  0.3464  0.3911
  819YOPS   C4A12314   6.657  17.117   7.964 -0.1954 -0.1481  0.2520
  819YOPS   C1B12315   6.759  17.597   7.268 -0.0467 -0.0116 -0.1954
  819YOPS   C2B12316   6.726  17.531   7.745 -0.0169 -0.2493  0.0030
  819YOPS   D3B12317   6.936  17.485   8.263  0.3823 -0.0562 -0.0063
  819YOPS   C4B12318   7.114  17.075   8.238 -0.0476 -0.3924 -0.1858
  820YOPS   CNO12319   6.447   9.809   5.710 -0.3303 -0.4391  0.3898
  820YOPS   PO412320   6.364   9.445   5.563  0.1951  0.1158  0.1440
  820YOPS   GL112321   6.493   9.376   6.000 -0.0820 -0.1880  0.0360
  820YOPS   GL212322   6.292   9.399   6.246  0.1850  0.0925  0.0253
  820YOPS   C1A12323   6.629   9.016   6.269  0.0777 -0.1216 -0.1275
  820YOPS   D2A12324   6.612   8.853   6.674  0.0496  0.3640  0.0587
  820YOPS   C3A12325   6.920   8.959   6.825  0.1514 -0.0578 -0.1051
  820YOPS   C4A12326   7.047   9.183   6.584 -0.1208 -0.0116  0.1092
  820YOPS   C1B12327   6.320   9.282   6.623 -0.0745 -0.2175  0.2621
  820YOPS   C2B12328   6.437   9.153   7.065  0.0763  0.1785  0.0980
  820YOPS   D3B12329   6.482   8.931   7.366 -0.0374  0.1601 -0.1185
  820YOPS   C4B12330   6.084   8.776   7.554 -0.0629 -0.2397 -0.0968
  821YOPS   CNO12331   2.200   4.321   5.340  0.2962  0.1247 -0.0266
  821YOPS   PO412332   1.931   4.428   5.856  0.0198 -0.0277  0.0359
  821YOPS   GL112333   1.991   4.738   6.045 -0.1357 -0.2762  0.4991
  821YOPS   GL212334   1.857   4.597   6.312 -0.1014 -0.3466 -0.0079
  821YOPS   C1A12335   1.777   5.073   6.377 -0.1237  0.1565 -0.1803
  821YOPS   D2A12336   1.583   5.229   6.850 -0.1622 -0.0556  0.0178
  821YOPS   C3A12337   1.754   5.036   7.184 -0.2685 -0.1232 -0.2144
  821YOPS   C4A12338   1.774   4.806   7.520  0.1371 -0.0045  0.3849
  821YOPS   C1B12339   1.937   4.523   6.746  0.0454 -0.0571 -0.3126
  821YOPS   C2B12340   1.934   4.528   7.138 -0.0394 -0.0203 -0.1463
  821YOPS   D3B12341   2.241   4.499   7.476  0.1561  0.1536 -0.2715
  821YOPS   C4B12342   2.321   4.053   7.783  0.0632  0.0195 -0.0456
  822YOPS   CNO12343   7.852  15.799   5.889 -0.1004  0.0686  0.0524
  822YOPS   PO412344   8.281  15.579   6.032  0.2059  0.0201 -0.1820
  822YOPS   GL112345   8.358  15.637   6.566  0.1798 -0.1211 -0.1238
  822YOPS   GL212346   8.180  15.859   6.675  0.0418  0.1643  0.0495
  822YOPS   C1A12347   8.379  15.334   6.853 -0.0591 -0.2343 -0.0880
  822YOPS   D2A12348   8.576  15.339   7.225  0.1443 -0.0101  0.1606
  822YOPS   C3A12349   8.723  15.629   7.523 -0.1161 -0.2471  0.0210
  822YOPS   C4A12350   8.907  15.564   7.903  0.0573  0.1184 -0.0701
  822YOPS   C1B12351   8.100  15.795   7.108 -0.2174 -0.2146 -0.3529
  822YOPS   C2B12352   8.201  15.495   7.514 -0.1173 -0.2633  0.0892
  822YOPS   D3B12353   8.120  15.496   7.853 -0.1460 -0.0404  0.1825
  822YOPS   C4B12354   8.429  15.697   8.045 -0.1894  0.0295  0.0351
  823YOPS   CNO12355   1.754   1.006   5.971  0.2341  0.0045 -0.0481
  823YOPS   PO412356   1.366   0.958   6.000  0.3850  0.1728  0.0693
  823YOPS   GL112357   1.399   1.324   6.234  0.0806 -0.0167  0.1627
  823YOPS   GL212358   1.087   1.411   6.448  0.0457 -0.0933 -0.1623
  823YOPS   C1A12359   1.670   1.413   6.546 -0.1926 -0.1297  0.1766
  823YOPS   D2A12360   1.870   1.315   6.795 -0.1984 -0.5798  0.1411
  823YOPS   C3A12361   2.059   0.881   7.004  0.1311 -0.0699 -0.1220
  823YOPS   C4A12362   2.291   0.539   6.816  0.0514 -0.1289 -0.0459
  823YOPS   C1B12363   1.328   1.431   6.912 -0.0082 -0.2230 -0.0049
  823YOPS   C2B12364   1.566   1.206   7.241 -0.5082 -0.2786  0.1627
  823YOPS   D3B12365   1.965   1.077   7.463 -0.2824 -0.0741  0.0430
  823YOPS   C4B12366   1.958   1.279   7.812  0.2081 -0.1669  0.1319
  824YOPS   CNO12367  11.009   8.551   5.592 -0.3144 -0.2018 -0.4158
  824YOPS   PO412368  11.425   8.645   5.757 -0.0052 -0.3329 -0.1178
  824YOPS   GL112369  11.321   8.627   6.243  0.1901  0.0861 -0.1772
  824YOPS   GL212370  11.181   8.465   6.449  0.0309  0.0423  0.0084
  824YOPS   C1A12371  11.164   8.919   6.537 -0.3051 -0.6912  0.2131
  824YOPS   D2A12372  11.249   9.239   6.815  0.1838 -0.0873 -0.0318
  824YOPS   C3A12373  11.698   9.325   6.977 -0.3575  0.1927 -0.2431
  824YOPS   C4A12374  12.001   9.274   6.761 -0.0271 -0.0984 -0.2115
  824YOPS   C1B12375  11.166   8.441   6.916  0.4801 -0.0947 -0.2059
  824YOPS   C2B12376  11.046   8.404   7.266 -0.0102  0.1541  0.0462
  824YOPS   D3B12377  11.246   8.276   7.583 -0.2099  0.0720 -0.0211
  824YOPS   C4B12378  11.258   7.983   7.937  0.0732 -0.0923 -0.2658
  825YOPS   CNO12379  17.372   2.534   5.874 -0.0727 -0.0310 -0.0812
  825YOPS   PO412380  17.143   2.745   6.110 -0.0586  0.1207  0.0347
  825YOPS   GL112381  16.965   2.431   6.406  0.2477 -0.2030 -0.1714
  825YOPS   GL212382  17.154   2.273   6.656 -0.0729 -0.0572 -0.0843
  825YOPS   C1A12383  16.750   2.517   6.891 -0.2726  0.1391  0.2471
  825YOPS   D2A12384  16.747   2.461   7.227  0.2349 -0.1613  0.0620
  825YOPS   C3A12385  16.771   2.720   7.534 -0.2487 -0.1609  0.2095
  825YOPS   C4A12386  17.122   2.688   7.763 -0.0431  0.0155  0.2169
  825YOPS   C1B12387  17.079   2.123   7.012  0.2961 -0.0296 -0.1959
  825YOPS   C2B12388  17.053   2.148   7.506 -0.2475  0.0024 -0.1781
  825YOPS   D3B12389  17.292   2.157   7.809  0.0096  0.0622 -0.3305
  825YOPS   C4B12390  17.087   1.942   7.961 -0.0296 -0.0784  0.3094
  826YOPS   CNO12391   6.819   6.935   5.108 -0.3131 -0.0648  0.0768
  826YOPS   PO412392   6.430   6.644   5.332 -0.2004 -0.0590 -0.0449
  826YOPS   GL112393   6.295   6.620   5.753  0.0242 -0.1517 -0.1976
  826YOPS   GL212394   6.425   6.965   5.954  0.0195  0.3720 -0.1852
  826YOPS   C1A12395   6.316   6.523   6.168 -0.4156 -0.2743  0.1523
  826YOPS   D2A12396   6.401   6.249   6.439 -0.1936  0.1903 -0.2851
  826YOPS   C3A12397   6.084   6.006   6.776 -0.1850  0.1046  0.1339
  826YOPS   C4A12398   6.230   6.032   7.177 -0.0094 -0.2228 -0.2214
  826YOPS   C1B12399   6.501   7.154   6.396 -0.0866  0.1979 -0.1304
  826YOPS   C2B12400   6.796   7.056   6.772  0.0353  0.0426  0.0682
  826YOPS   D3B12401   6.909   6.936   7.206  0.5465 -0.2118  0.2352
  826YOPS   C4B12402   7.169   7.268   7.390 -0.2775  0.0926  0.3433
  827YOPS   CNO12403  15.848  11.770   5.796 -0.3473  0.0396  0.1591
  827YOPS   PO412404  15.602  12.137   5.905 -0.0965  0.0974 -0.1935
  827YOPS   GL112405  15.506  12.041   6.300  0.0318  0.1422 -0.0131
  827YOPS   GL212406  15.293  11.913   6.365 -0.2395  0.0543 -0.0019
  827YOPS   C1A12407  15.556  12.274   6.623 -0.0592 -0.0804 -0.1262
  827YOPS   D2A12408  15.701  12.253   7.012  0.0969 -0.4124 -0.1074
  827YOPS   C3A12409  15.765  12.393   7.437 -0.0003 -0.1801 -0.0746
  827YOPS   C4A12410  15.953  12.707   7.643  0.1911  0.3005 -0.0205
  827YOPS   C1B12411  15.310  11.805   6.813 -0.2402  0.2712  0.1203
  827YOPS   C2B12412  15.104  11.897   7.219 -0.0681 -0.1155 -0.0111
  827YOPS   D3B12413  14.922  11.718   7.490 -0.0054 -0.0353 -0.1932
  827YOPS   C4B12414  14.976  11.847   7.833  0.1130 -0.2150  0.1724
  828YOPS   CNO12415   4.943   7.123   5.427 -0.0670 -0.1893 -0.0291
  828YOPS   PO412416   4.747   7.023   5.792  0.2867 -0.0657 -0.3344
  828YOPS   GL112417   4.917   6.995   6.172 -0.1863 -0.1575 -0.0569
  828YOPS   GL212418   5.198   7.279   6.318  0.2171  0.1317 -0.1124
  828YOPS   C1A12419   4.933   6.919   6.599 -0.0785 -0.2852 -0.0460
  828YOPS   D2A12420   4.955   6.753   7.016 -0.1448 -0.4060 -0.0586
  828YOPS   C3A12421   5.164   6.865   7.405  0.4034  0.0481  0.1093
  828YOPS   C4A12422   4.980   6.695   7.728  0.2182 -0.1986  0.1368
  828YOPS   C1B12423   5.170   7.349   6.783  0.1281 -0.1656  0.0041
  828YOPS   C2B12424   5.278   7.256   7.099 -0.0218  0.0148 -0.1884
  828YOPS   D3B12425   5.346   7.359   7.370 -0.2972 -0.2520 -0.2873
  828YOPS   C4B12426   5.463   7.821   7.383 -0.1901 -0.0923  0.3747
  829YOPS   CNO12427   4.470   3.696   5.820 -0.1442 -0.1890 -0.0251
  829YOPS   PO412428   4.779   3.308   5.846 -0.2111 -0.2423 -0.1048
  829YOPS   GL112429   4.555   3.419   6.228  0.2593 -0.3844  0.0648
  829YOPS   GL212430   4.337   3.216   6.193 -0.0839 -0.0184  0.1671
  829YOPS   C1A12431   4.431   3.462   6.667 -0.0029 -0.0928  0.2010
  829YOPS   D2A12432   4.582   3.520   7.045 -0.0538 -0.1360  0.0811
  829YOPS   C3A12433   4.413   3.645   7.380  0.0256  0.0512 -0.2102
  829YOPS   C4A12434   4.440   3.862   7.778 -0.0473  0.0902 -0.1362
  829YOPS   C1B12435   3.989   3.445   6.420 -0.4255  0.1449 -0.0706
  829YOPS   C2B12436   3.962   3.567   6.961  0.1332  0.2036  0.1823
  829YOPS   D3B12437   3.919   3.702   7.366  0.0468  0.0259 -0.1728
  829YOPS   C4B12438   3.991   3.555   7.738 -0.0016  0.1491 -0.2908
  830YOPS   CNO12439   9.982  13.865   5.638 -0.1881 -0.1091  0.1529
  830YOPS   PO412440  10.035  14.219   5.862 -0.0864 -0.2081 -0.1832
  830YOPS   GL112441  10.039  14.111   6.316 -0.0547  0.0035  0.0436
  830YOPS   GL212442  10.278  14.087   6.552  0.2295  0.0409 -0.0213
  830YOPS   C1A12443   9.703  13.774   6.561 -0.0711 -0.0222 -0.0346
  830YOPS   D2A12444   9.706  13.511   6.787  0.3105  0.0285 -0.0610
  830YOPS   C3A12445   9.432  13.301   7.130  0.0425 -0.0743 -0.5307
  830YOPS   C4A12446   9.519  13.078   7.423  0.2686 -0.0830  0.1303
  830YOPS   C1B12447  10.014  14.091   6.883  0.1155 -0.0378  0.0936
  830YOPS   C2B12448   9.820  14.417   7.077  0.2523  0.3733 -0.1477
  830YOPS   D3B12449   9.751  14.491   7.532  0.0039  0.2506 -0.1852
  830YOPS   C4B12450   9.776  14.204   7.859 -0.1649 -0.2083  0.1861
  831POPE   NH312451  11.118   5.345   6.463  0.3277  0.0836 -0.2531
  831POPE   PO412452  11.197   4.920   6.361 -0.3217 -0.1667  0.4046
  831POPE   GL112453  11.200   4.933   6.772 -0.0760 -0.0696 -0.1744
  831POPE   GL212454  10.972   4.692   6.894 -0.3279  0.2054  0.0354
  831POPE   C1A12455  11.330   5.100   7.197  0.1424 -0.3371 -0.1146
  831POPE   D2A12456  11.379   5.102   7.627 -0.0559  0.2652 -0.3112
  831POPE   C3A12457  11.430   5.443   7.857  0.1757 -0.0665 -0.1090
  831POPE   C4A12458  11.498   5.689   8.227 -0.0160  0.1000 -0.1524
  831POPE   C1B12459  11.121   4.661   7.285  0.1480  0.1892  0.1273
  831POPE   C2B12460  11.507   4.658   7.530 -0.2222 -0.3774  0.1052
  831POPE   C3B12461  11.647   4.768   7.958 -0.0313 -0.0408 -0.1889
  831POPE   C4B12462  11.836   4.551   8.431 -0.3413  0.0654  0.2044
  832POPE   NH312463  18.242   4.711   5.893 -0.0670 -0.3640 -0.1279
  832POPE   PO412464  17.841   4.441   5.797  0.2289 -0.3132  0.4112
  832POPE   GL112465  17.760   4.467   6.256 -0.4473 -0.1625 -0.0278
  832POPE   GL212466  17.943   4.490   6.314 -0.2086 -0.1961 -0.2356
  832POPE   C1A12467  17.723   4.272   6.698  0.1867 -0.0813  0.1057
  832POPE   D2A12468  17.685   4.308   7.195 -0.3031  0.1578 -0.1557
  832POPE   C3A12469  17.674   4.014   7.514 -0.2799  0.2247 -0.2396
  832POPE   C4A12470  17.320   3.810   7.665 -0.0282 -0.4266  0.0312
  832POPE   C1B12471  17.963   4.716   6.736 -0.0799 -0.2254 -0.0240
  832POPE   C2B12472  18.107   4.821   7.161 -0.0310 -0.2167 -0.0069
  832POPE   C3B12473  18.211   4.964   7.632 -0.1369  0.0788  0.0902
  832POPE   C4B12474  18.356   5.086   8.039 -0.3971  0.0337  0.2084
  833POPE   NH312475   2.827   3.785   5.920 -0.0794 -0.0211 -0.0798
  833POPE   PO412476   3.254   3.865   6.036  0.0675 -0.2697 -0.1283
  833POPE   GL112477   3.505   3.796   6.324  0.1398  0.0943  0.1528
  833POPE   GL212478   3.423   3.684   6.496 -0.0420  0.0616  0.1432
  833POPE   C1A12479   3.965   4.077   6.225  0.2336  0.1851  0.2935
  833POPE   D2A12480   4.190   4.305   6.386  0.0248 -0.3202  0.1902
  833POPE   C3A12481   3.970   4.603   6.632  0.5253 -0.1393 -0.2991
  833POPE   C4A12482   3.954   4.448   7.022  0.1922 -0.0437  0.0482
  833POPE   C1B12483   3.483   3.800   6.929 -0.3598 -0.0148  0.2112
  833POPE   C2B12484   3.649   4.104   7.256  0.0138 -0.1885 -0.0111
  833POPE   C3B12485   3.878   4.235   7.530 -0.0912 -0.1050 -0.0636
  833POPE   C4B12486   4.159   4.283   7.845 -0.0334 -0.0838 -0.3059
  834POPE   NH312487   6.625  13.908   6.104 -0.1607  0.2053  0.0162
  834POPE   PO412488   7.018  13.701   5.965  0.0803 -0.1539  0.1812
  834POPE   GL112489   7.124  13.717   6.312 -0.5337 -0.2102 -0.0345
  834POPE   GL212490   6.978  13.900   6.495  0.1652 -0.0261 -0.0298
  834POPE   C1A12491   7.383  13.571   6.596  0.0992  0.2489  0.3141
  834POPE   D2A12492   7.660  13.408   6.996  0.3061  0.3298  0.0737
  834POPE   C3A12493   7.633  13.420   7.499 -0.0247 -0.0654  0.0929
  834POPE   C4A12494   7.564  13.699   7.876 -0.0677  0.3510 -0.0710
  834POPE   C1B12495   6.958  14.185   6.879 -0.0036  0.0302 -0.0115
  834POPE   C2B12496   7.011  14.321   7.220 -0.0335  0.1072  0.2620
  834POPE   C3B12497   7.176  14.380   7.500  0.2506  0.1539 -0.3180
  834POPE   C4B12498   7.329  14.345   7.915  0.0961  0.4789  0.1305
  835POPE   NH312499   9.762   2.296   6.318  0.1133  0.2799  0.0951
  835POPE   PO412500   9.403   2.395   6.339 -0.1996 -0.1191  0.1874
  835POPE   GL112501   9.356   2.089   6.578 -0.0369 -0.0359 -0.0312
  835POPE   GL212502   9.131   2.189   6.743  0.2228 -0.2577 -0.0610
  835POPE   C1A12503   9.341   1.689   6.866  0.2391 -0.3327 -0.3313
  835POPE   D2A12504   9.307   1.282   7.114  0.1699  0.0467  0.0660
  835POPE   C3A12505   9.586   1.077   7.251 -0.1077 -0.1381  0.1449
  835POPE   C4A12506   9.814   0.791   7.532 -0.0919 -0.3262 -0.1237
  835POPE   C1B12507   9.099   2.102   7.247  0.0655 -0.1382  0.0577
  835POPE   C2B12508   9.094   2.064   7.658 -0.0752  0.1901  0.2136
  835POPE   C3B12509   9.005   1.777   8.017 -0.4010 -0.1311  0.0179
  835POPE   C4B12510   9.032   1.595   8.422  0.2301  0.1071  0.1727
  836POPE   NH312511   5.310   5.843   5.797  0.1069 -0.1198 -0.0576
  836POPE   PO412512   5.380   6.244   5.705 -0.1115 -0.2132 -0.4210
  836POPE   GL112513   5.630   6.100   6.110  0.1531  0.3885 -0.0959
  836POPE   GL212514   5.839   6.235   6.066  0.0724 -0.0895 -0.2265
  836POPE   C1A12515   5.677   5.969   6.526 -0.4498  0.0918  0.0722
  836POPE   D2A12516   5.628   6.032   7.019 -0.2081  0.2136  0.0866
  836POPE   C3A12517   5.627   6.276   7.293 -0.1070  0.0541 -0.3665
  836POPE   C4A12518   5.367   6.406   7.588  0.1746  0.0538 -0.0475
  836POPE   C1B12519   5.916   6.396   6.509  0.4624 -0.3571  0.1915
  836POPE   C2B12520   5.963   6.427   6.959  0.1545 -0.0252  0.1234
  836POPE   C3B12521   6.108   6.549   7.315  0.0620 -0.0786  0.0215
  836POPE   C4B12522   6.218   6.918   7.202 -0.2377 -0.3374  0.1401
  837POPE   NH312523   2.086   6.328   5.724 -0.1911  0.0301  0.2428
  837POPE   PO412524   1.653   6.167   5.783 -0.2681 -0.1612 -0.1675
  837POPE   GL112525   1.872   6.137   6.179  0.1390  0.0604  0.1078
  837POPE   GL212526   2.313   6.108   6.123  0.0411 -0.1279  0.1705
  837POPE   C1A12527   1.840   6.061   6.618  0.1774  0.1892 -0.1033
  837POPE   D2A12528   1.769   6.126   7.055 -0.0662 -0.3150  0.3484
  837POPE   C3A12529   1.538   6.226   7.378 -0.2475  0.1808  0.1862
  837POPE   C4A12530   1.370   6.595   7.669 -0.0876  0.0720  0.2026
  837POPE   C1B12531   2.308   6.060   6.516  0.0931 -0.2248  0.2220
  837POPE   C2B12532   2.312   6.055   6.975  0.1640 -0.4442 -0.2297
  837POPE   C3B12533   2.089   5.881   7.379 -0.2134 -0.0057  0.3090
  837POPE   C4B12534   1.820   6.032   7.692 -0.0647  0.1062 -0.0250
  838POPE   NH312535  16.129   4.281   6.081 -0.2844  0.1823  0.0426
  838POPE   PO412536  16.042   4.698   6.346 -0.0961 -0.0093 -0.3655
  838POPE   GL112537  16.111   4.474   6.715 -0.0115 -0.1940 -0.0243
  838POPE   GL212538  16.178   4.175   6.676 -0.1152 -0.0736  0.1702
  838POPE   C1A12539  15.858   4.498   6.962 -0.1476  0.2105 -0.1304
  838POPE   D2A12540  15.849   4.743   7.370 -0.0239 -0.0809  0.0446
  838POPE   C3A12541  15.685   5.130   7.493 -0.1407  0.0421 -0.0878
  838POPE   C4A12542  15.831   5.195   7.846 -0.2299  0.0032 -0.1425
  838POPE   C1B12543  16.219   3.725   6.784  0.2309 -0.0256  0.1291
  838POPE   C2B12544  16.163   3.329   6.849 -0.1776 -0.3708 -0.1128
  838POPE   C3B12545  15.979   3.021   7.198  0.0276 -0.1309  0.0463
  838POPE   C4B12546  15.701   2.852   7.382 -0.1266  0.0547  0.0139
  839POPE   NH312547   8.449  11.611   6.123 -0.0497  0.1839 -0.0904
  839POPE   PO412548   8.001  11.818   6.093 -0.1041 -0.0951 -0.5388
  839POPE   GL112549   7.673  11.666   6.467 -0.3705 -0.2786  0.3472
  839POPE   GL212550   7.301  11.897   6.446  0.0065 -0.4739  0.2228
  839POPE   C1A12551   7.931  11.488   6.823  0.1427 -0.3378  0.0998
  839POPE   D2A12552   8.058  11.329   7.227  0.3995  0.0625 -0.0835
  839POPE   C3A12553   7.937  11.579   7.574  0.1461 -0.3284  0.1205
  839POPE   C4A12554   7.996  11.652   8.045  0.1181  0.1446  0.1394
  839POPE   C1B12555   7.531  11.882   6.884 -0.2294 -0.0936  0.1822
  839POPE   C2B12556   7.475  11.852   7.326 -0.0009 -0.1463  0.0654
  839POPE   C3B12557   7.353  11.612   7.687 -0.0958 -0.1734 -0.0649
  839POPE   C4B12558   7.506  11.549   8.093  0.2268  0.0542 -0.1164
  840POPE   NH312559   6.828  17.902   6.246  0.1202  0.2126 -0.1115
  840POPE   PO412560   7.047  18.338   6.220 -0.0228  0.0364  0.1567
  840POPE   GL112561   7.064  18.641   6.641 -0.1072 -0.4072  0.0771
  840POPE   GL212562   7.289  18.904   6.817  0.0654 -0.2005 -0.2113
  840POPE   C1A12563   6.968  18.728   7.170  0.2157  0.0960 -0.1689
  840POPE   D2A12564   7.052  18.673   7.608  0.1891 -0.1232 -0.0055
  840POPE   C3A12565   6.943  18.403   7.910  0.2837  0.1870 -0.1544
  840POPE   C4A12566   6.996  18.010   8.108  0.0027  0.0149 -0.0091
  840POPE   C1B12567   7.473  18.903   7.203  0.3243 -0.1558  0.2965
  840POPE   C2B12568   7.449  18.961   7.704  0.1798 -0.3963  0.0231
  840POPE   C3B12569   7.347  18.727   8.055 -0.5630 -0.1892 -0.2227
  840POPE   C4B12570   7.242  18.370   8.374  0.3711  0.0338  0.0725
  841POPE   NH312571   3.282  11.730   5.801 -0.1270  0.4572 -0.1255
  841POPE   PO412572   3.083  12.082   5.887 -0.0598 -0.0007  0.0284
  841POPE   GL112573   3.221  12.167   6.335  0.2786  0.0832  0.0711
  841POPE   GL212574   3.556  12.271   6.308 -0.1185  0.2177 -0.0692
  841POPE   C1A12575   3.115  12.372   6.708  0.3269 -0.0741 -0.1778
  841POPE   D2A12576   2.941  12.470   7.181  0.0317 -0.1185 -0.1607
  841POPE   C3A12577   2.528  12.255   7.316 -0.0006  0.1068  0.1578
  841POPE   C4A12578   2.218  11.933   7.468 -0.2071 -0.2228  0.0984
  841POPE   C1B12579   3.559  12.166   6.717 -0.0216  0.2336 -0.0954
  841POPE   C2B12580   3.572  11.736   7.007 -0.4159 -0.1480 -0.1111
  841POPE   C3B12581   3.463  11.865   7.470 -0.2415  0.1518  0.1787
  841POPE   C4B12582   3.467  11.894   7.917  0.0142  0.1386  0.0201
  842POPE   NH312583  16.367   1.234   6.268  0.0203 -0.2656 -0.4879
  842POPE   PO412584  16.525   1.634   6.030  0.0410 -0.0426  0.0428
  842POPE   GL112585  16.618   1.705   6.405 -0.0922  0.0591 -0.2480
  842POPE   GL212586  16.950   1.864   6.437 -0.0515  0.0721  0.2446
  842POPE   C1A12587  16.643   1.865   6.821 -0.2796 -0.2355  0.2196
  842POPE   D2A12588  16.654   1.935   7.169  0.1533 -0.2307  0.5167
  842POPE   C3A12589  17.009   1.725   7.312  0.1073 -0.1888 -0.3873
  842POPE   C4A12590  17.247   1.597   7.588 -0.2830  0.1751  0.1352
  842POPE   C1B12591  17.185   1.681   6.813 -0.1319 -0.3373  0.1131
  842POPE   C2B12592  17.447   1.450   7.124 -0.0741 -0.2395 -0.2054
  842POPE   C3B12593  17.557   1.252   7.488  0.2330  0.0699  0.1317
  842POPE   C4B12594  17.878   1.234   7.845  0.1087 -0.1770  0.3252
  843POPE   NH312595  10.183  12.218   5.824 -0.0879 -0.0404  0.3499
  843POPE   PO412596   9.824  12.552   6.016 -0.3870  0.1605  0.3199
  843POPE   GL112597   9.917  12.558   6.343  0.0601  0.0295 -0.0485
  843POPE   GL212598   9.674  12.393   6.467  0.0303 -0.2953 -0.0034
  843POPE   C1A12599  10.255  12.742   6.633  0.2197 -0.3243  0.1219
  843POPE   D2A12600  10.468  12.981   6.876 -0.5823 -0.2742 -0.0382
  843POPE   C3A12601  10.477  13.033   7.335  0.0418  0.2503  0.5292
  843POPE   C4A12602  10.466  13.001   7.829  0.0978 -0.1472 -0.1109
  843POPE   C1B12603   9.801  12.433   6.918 -0.0647  0.3327  0.1346
  843POPE   C2B12604   9.749  12.210   7.410 -0.3761 -0.1619  0.0338
  843POPE   C3B12605   9.879  12.098   7.881  0.0891  0.1787 -0.2690
  843POPE   C4B12606  10.273  11.972   8.116  0.2434  0.2084  0.0190
  844POPE   NH312607   9.358   5.647   6.212  0.0169 -0.1051  0.1869
  844POPE   PO412608   8.967   5.506   6.132  0.2163 -0.1485  0.0082
  844POPE   GL112609   8.695   5.424   6.393  0.1334 -0.2239  0.0548
  844POPE   GL212610   8.395   5.316   6.431  0.4495  0.0085  0.0062
  844POPE   C1A12611   8.634   5.438   6.905  0.1426 -0.4059  0.0290
  844POPE   D2A12612   8.725   5.482   7.419  0.2404  0.0039 -0.1699
  844POPE   C3A12613   8.839   5.265   7.801 -0.0624 -0.0497 -0.2567
  844POPE   C4A12614   8.963   5.362   8.209 -0.0038  0.0092  0.0587
  844POPE   C1B12615   8.492   4.992   6.838  0.0320  0.2039  0.0868
  844POPE   C2B12616   8.680   4.979   7.206  0.2434 -0.1500 -0.2109
  844POPE   C3B12617   9.046   4.932   7.458 -0.2799 -0.1667  0.0675
  844POPE   C4B12618   9.295   4.998   7.722  0.1734  0.1041 -0.1614
  845POPE   NH312619  18.096   9.899   5.963 -0.0107  0.1936 -0.2393
  845POPE   PO412620  17.732  10.162   6.120 -0.0894 -0.0315  0.2700
  845POPE   GL112621  17.563  10.173   6.544  0.0204 -0.2558  0.0878
  845POPE   GL212622  17.851  10.069   6.660 -0.2377 -0.0491 -0.3224
  845POPE   C1A12623  17.487  10.479   6.877  0.0667 -0.2196  0.0297
  845POPE   D2A12624  17.418  10.566   7.353 -0.1878  0.0553  0.0524
  845POPE   C3A12625  17.269  10.372   7.647  0.0493 -0.0555  0.1324
  845POPE   C4A12626  17.067  10.510   8.080 -0.0294  0.1624  0.1237
  845POPE   C1B12627  18.031   9.801   6.951  0.5038 -0.0283 -0.1380
  845POPE   C2B12628  17.899   9.708   7.377 -0.1387  0.1851 -0.0084
  845POPE   C3B12629  17.931   9.905   7.875  0.0547 -0.0767 -0.1799
  845POPE   C4B12630  18.247  10.124   7.943 -0.1141  0.0436 -0.2027
  846POPE   NH312631   9.392  12.288   6.004  0.1122 -0.1525 -0.2007
  846POPE   PO412632   9.087  12.604   5.988 -0.0222 -0.0054  0.2184
  846POPE   GL112633   9.011  12.460   6.363 -0.0838 -0.3260  0.3240
  846POPE   GL212634   8.716  12.442   6.432 -0.2593 -0.4337  0.0398
  846POPE   C1A12635   9.167  12.531   6.754  0.0669 -0.1103  0.0856
  846POPE   D2A12636   9.395  12.512   7.189 -0.2128  0.1621  0.1108
  846POPE   C3A12637   9.405  12.646   7.643  0.0953  0.1731 -0.2086
  846POPE   C4A12638   9.495  12.638   8.102 -0.1385 -0.1441  0.1390
  846POPE   C1B12639   8.741  12.209   6.930  0.1120  0.2472 -0.2089
  846POPE   C2B12640   8.442  12.206   7.279 -0.0815  0.3070  0.3902
  846POPE   C3B12641   8.399  12.269   7.623  0.2155 -0.2431 -0.0127
  846POPE   C4B12642   8.234  12.033   7.895 -0.0585  0.1921  0.0255
  847POPE   NH312643   2.438   1.880   6.091 -0.2496 -0.0217 -0.1968
  847POPE   PO412644   2.637   1.423   6.158 -0.1522 -0.2369  0.3212
  847POPE   GL112645   2.572   1.630   6.609 -0.2715 -0.2108 -0.1051
  847POPE   GL212646   2.573   1.969   6.589  0.1783  0.2320 -0.2163
  847POPE   C1A12647   2.196   1.749   6.952 -0.1395  0.1640  0.0198
  847POPE   D2A12648   1.861   1.590   7.255  0.1467  0.2800  0.1484
  847POPE   C3A12649   1.547   1.835   7.418 -0.0137 -0.0037  0.0368
  847POPE   C4A12650   1.468   2.071   7.838  0.3507  0.0634 -0.1475
  847POPE   C1B12651   2.855   2.074   7.021 -0.0815 -0.0536 -0.1645
  847POPE   C2B12652   2.794   2.060   7.491 -0.2157 -0.0558  0.2692
  847POPE   C3B12653   2.566   1.912   7.877  0.1894 -0.1096 -0.1894
  847POPE   C4B12654   2.242   1.837   8.039  0.0395 -0.0096 -0.0449
  848POPE   NH312655   8.799   7.320   5.454  0.1150  0.1024  0.0615
  848POPE   PO412656   8.564   6.991   5.465  0.3141 -0.1346 -0.3121
  848POPE   GL112657   8.424   7.225   5.896  0.2566 -0.1419 -0.0922
  848POPE   GL212658   8.441   6.990   6.138 -0.1363  0.1609  0.3719
  848POPE   C1A12659   8.076   7.544   6.024 -0.4838 -0.1668  0.1845
  848POPE   D2A12660   8.142   8.001   6.137  0.1473  0.2036 -0.3659
  848POPE   C3A12661   8.172   8.175   6.586  0.3458 -0.0763 -0.3259
  848POPE   C4A12662   8.229   8.459   6.893 -0.1684  0.2054  0.1883
  848POPE   C1B12663   8.210   7.282   6.461  0.3160 -0.0893  0.0502
  848POPE   C2B12664   8.248   7.255   6.836  0.3012  0.2821 -0.2199
  848POPE   C3B12665   8.134   7.436   7.227 -0.2756  0.1406  0.1166
  848POPE   C4B12666   8.180   7.411   7.665 -0.1130 -0.0500 -0.0755
  849POPE   NH312667  12.719   9.109   6.076  0.5633  0.0532 -0.1477
  849POPE   PO412668  12.614   9.472   6.003 -0.1578 -0.0514  0.0114
  849POPE   GL112669  12.592   9.731   6.397  0.0223 -0.1508 -0.1263
  849POPE   GL212670  12.276   9.750   6.479  0.0435  0.0281 -0.1287
  849POPE   C1A12671  12.772   9.951   6.776 -0.0867 -0.1497 -0.1873
  849POPE   D2A12672  12.854   9.982   7.234  0.0112 -0.0376 -0.1545
  849POPE   C3A12673  13.203  10.127   7.434  0.2760 -0.2002 -0.2157
  849POPE   C4A12674  13.394  10.574   7.325 -0.0289 -0.3805 -0.2650
  849POPE   C1B12675  12.295   9.638   6.802 -0.3533 -0.5810  0.1923
  849POPE   C2B12676  12.076   9.642   7.130  0.2742 -0.0524  0.0947
  849POPE   C3B12677  11.839   9.441   7.455 -0.4212 -0.2422 -0.0809
  849POPE   C4B12678  11.705   9.003   7.691 -0.1815  0.1335 -0.0936
  850POPE   NH312679   5.478  10.581   6.031  0.1439  0.2055 -0.0405
  850POPE   PO412680   5.142  10.889   6.072  0.0615 -0.5074  0.3823
  850POPE   GL112681   5.203  10.908   6.510  0.1216  0.1996 -0.0707
  850POPE   GL212682   5.444  10.575   6.572  0.3935  0.2197  0.4491
  850POPE   C1A12683   5.333  11.035   6.799 -0.1225  0.2540  0.1397
  850POPE   D2A12684   5.325  11.001   7.274 -0.1147 -0.1436  0.1590
  850POPE   C3A12685   5.566  10.895   7.596  0.0272  0.0598  0.0252
  850POPE   C4A12686   5.866  10.949   8.043  0.1100  0.0778  0.0445
  850POPE   C1B12687   5.558  10.547   6.984 -0.0657  0.0615 -0.0817
  850POPE   C2B12688   5.427  10.430   7.370 -0.0753 -0.0872 -0.3537
  850POPE   C3B12689   5.166  10.602   7.762 -0.1921  0.0326  0.0221
  850POPE   C4B12690   5.343  10.793   8.026 -0.1530  0.4796 -0.0802
  851POPE   NH312691   9.277  17.055   6.189 -0.3517  0.2463 -0.0892
  851POPE   PO412692   9.594  17.057   6.396 -0.1678 -0.1796  0.0802
  851POPE   GL112693   9.457  16.930   6.816  0.1716 -0.0083  0.1554
  851POPE   GL212694   9.599  16.590   6.831 -0.1726  0.0326  0.0390
  851POPE   C1A12695   9.156  16.715   7.237  0.0266  0.1029 -0.1501
  851POPE   D2A12696   8.710  16.727   7.409 -0.0661  0.3044  0.2211
  851POPE   C3A12697   8.670  16.976   7.761  0.1664 -0.1963 -0.3304
  851POPE   C4A12698   8.431  17.187   7.931  0.1654 -0.3208  0.3153
  851POPE   C1B12699   9.713  16.811   7.191 -0.1858  0.0531 -0.0998
  851POPE   C2B12700   9.549  16.895   7.481 -0.1343 -0.2584 -0.0597
  851POPE   C3B12701   9.619  16.988   7.882  0.1461 -0.3122 -0.1701
  851POPE   C4B12702   9.621  17.148   8.229  0.1904  0.0844 -0.0253
  852POPE   NH312703  10.708  17.558   6.491  0.0635  0.0963 -0.0238
  852POPE   PO412704  10.291  17.431   6.405 -0.1679  0.0843  0.1966
  852POPE   GL112705   9.972  17.311   6.669 -0.0813  0.2032 -0.0013
  852POPE   GL212706   9.962  17.008   6.764 -0.1245 -0.2612  0.1573
  852POPE   C1A12707   9.635  17.355   7.045  0.0639 -0.0909  0.1260
  852POPE   D2A12708   9.581  17.389   7.462 -0.0360  0.0392 -0.0745
  852POPE   C3A12709   9.616  17.613   7.843  0.2168  0.1138  0.2970
  852POPE   C4A12710   9.451  17.931   8.107 -0.1287  0.2123 -0.0652
  852POPE   C1B12711  10.113  17.179   7.152  0.2211  0.0229 -0.1262
  852POPE   C2B12712  10.018  17.191   7.653 -0.1480 -0.0971 -0.1579
  852POPE   C3B12713  10.309  17.029   7.908  0.2335  0.1698 -0.0003
  852POPE   C4B12714  10.431  17.045   8.273  0.3420 -0.0256 -0.2229
  853POPE   NH312715  12.923   0.749   5.889  0.1763 -0.0135  0.1210
  853POPE   PO412716  12.689   1.021   5.860  0.0665  0.1014  0.0826
  853POPE   GL112717  12.705   0.956   6.354 -0.1152  0.1090 -0.0618
  853POPE   GL212718  12.879   0.557   6.449 -0.0389  0.1403 -0.4056
  853POPE   C1A12719  12.868   0.957   6.793 -0.1488 -0.1271 -0.3837
  853POPE   D2A12720  12.869   0.983   7.216  0.3838 -0.0434 -0.1794
  853POPE   C3A12721  13.089   0.757   7.563 -0.0015 -0.1333 -0.0960
  853POPE   C4A12722  12.803   0.440   7.693  0.0668  0.1897  0.0064
  853POPE   C1B12723  12.970   0.244   6.848 -0.2622  0.0744  0.1060
  853POPE   C2B12724  12.790  -0.068   7.128  0.3522  0.1999 -0.1094
  853POPE   C3B12725  12.763  -0.039   7.587 -0.0443  0.1073 -0.0752
  853POPE   C4B12726  12.634   0.004   8.053 -0.2557  0.0092 -0.0222
  854POPE   NH312727  17.966  17.275   6.023  0.1175 -0.1656  0.0176
  854POPE   PO412728  17.773  16.867   6.096 -0.0232  0.2822  0.0909
  854POPE   GL112729  17.744  16.895   6.525  0.0674 -0.1937  0.1981
  854POPE   GL212730  17.536  17.189   6.590 -0.1328 -0.0656  0.0531
  854POPE   C1A12731  17.761  16.689   6.956  0.0227 -0.0837  0.0993
  854POPE   D2A12732  17.749  16.479   7.301 -0.1278  0.1046 -0.1555
  854POPE   C3A12733  17.627  16.622   7.705  0.1121 -0.2674  0.1028
  854POPE   C4A12734  17.364  16.448   7.993 -0.4817  0.2387  0.0301
  854POPE   C1B12735  17.805  17.252   6.949 -0.2461  0.1786  0.2019
  854POPE   C2B12736  18.118  17.548   7.058 -0.0654 -0.1322  0.1394
  854POPE   C3B12737  18.333  17.474   7.473 -0.1622  0.0735  0.2568
  854POPE   C4B12738  18.712  17.451   7.630  0.2290 -0.4217  0.0941
  855POPE   NH312739   5.203  17.970   6.321  0.0739  0.1464 -0.1461
  855POPE   PO412740   5.337  18.329   6.375  0.0156 -0.1462  0.4078
  855POPE   GL112741   5.298  18.302   6.765  0.1287 -0.0235 -0.1488
  855POPE   GL212742   4.949  18.188   6.695  0.0726  0.0513  0.0283
  855POPE   C1A12743   5.244  18.024   7.073  0.1469 -0.1745 -0.3912
  855POPE   D2A12744   5.330  17.609   7.244 -0.1678  0.2543  0.3372
  855POPE   C3A12745   5.293  17.201   7.476 -0.3026  0.3557  0.0543
  855POPE   C4A12746   5.452  16.736   7.443  0.2941  0.0725 -0.0206
  855POPE   C1B12747   4.733  18.462   6.956 -0.1565 -0.0537  0.1315
  855POPE   C2B12748   4.681  18.368   7.228  0.2507 -0.1739  0.0659
  855POPE   C3B12749   4.911  18.124   7.453 -0.1228 -0.2805 -0.0719
  855POPE   C4B12750   5.154  17.762   7.710  0.2042 -0.0573 -0.0682
  856POPE   NH312751  15.668  11.172   5.784  0.0455 -0.0389  0.3002
  856POPE   PO412752  15.384  11.538   5.986 -0.0345 -0.1945  0.0127
  856POPE   GL112753  15.691  11.519   6.201 -0.2837 -0.0215 -0.0219
  856POPE   GL212754  15.718  11.237   6.280 -0.1058  0.0226 -0.2831
  856POPE   C1A12755  15.696  11.611   6.586 -0.3485 -0.0074 -0.1430
  856POPE   D2A12756  15.766  11.613   6.988 -0.0774  0.2977  0.0010
  856POPE   C3A12757  15.606  11.896   7.322 -0.0986 -0.4539  0.0259
  856POPE   C4A12758  15.967  11.855   7.607  0.2681 -0.2577 -0.1363
  856POPE   C1B12759  15.734  11.112   6.745  0.2152 -0.0491  0.0689
  856POPE   C2B12760  15.793  11.078   7.175  0.0291  0.1764  0.1180
  856POPE   C3B12761  15.688  11.173   7.652 -0.2274 -0.1431  0.2023
  856POPE   C4B12762  15.532  11.189   8.062 -0.2547  0.0114 -0.5269
  857POPE   NH312763  15.825   8.209   5.849 -0.0259 -0.2457  0.2456
  857POPE   PO412764  15.480   7.980   5.791  0.3102  0.3218  0.1374
  857POPE   GL112765  15.388   7.992   6.243 -0.0034  0.0583 -0.2302
  857POPE   GL212766  15.115   7.792   6.281  0.1875 -0.2881  0.0543
  857POPE   C1A12767  15.576   8.004   6.613  0.0732 -0.3207 -0.2433
  857POPE   D2A12768  15.418   7.945   6.941 -0.1662 -0.2946 -0.4061
  857POPE   C3A12769  15.590   7.934   7.332 -0.2513  0.0298 -0.2098
  857POPE   C4A12770  15.804   7.768   7.791  0.0405  0.1620 -0.1203
  857POPE   C1B12771  14.948   8.001   6.588 -0.0853 -0.0165  0.0038
  857POPE   C2B12772  14.989   8.259   6.980  0.1240 -0.1464  0.1251
  857POPE   C3B12773  15.094   8.165   7.394 -0.2697 -0.0228 -0.1052
  857POPE   C4B12774  14.923   8.174   7.916  0.4797 -0.2539 -0.0944
  858POPE   NH312775  13.850  13.351   6.105  0.1099  0.1956 -0.1991
  858POPE   PO412776  13.500  13.344   5.969 -0.2723 -0.1752 -0.0088
  858POPE   GL112777  13.520  13.639   6.380 -0.1015 -0.5143  0.0556
  858POPE   GL212778  13.627  13.371   6.664  0.1681  0.1148 -0.1877
  858POPE   C1A12779  13.524  13.834   6.778  0.1893 -0.1480  0.0211
  858POPE   D2A12780  13.682  14.153   7.001 -0.0381 -0.1734 -0.3250
  858POPE   C3A12781  13.631  14.287   7.448 -0.0710 -0.4200 -0.0600
  858POPE   C4A12782  13.406  14.378   7.644  0.2239  0.1005 -0.0165
  858POPE   C1B12783  13.996  13.672   6.869  0.1433  0.0893 -0.1185
  858POPE   C2B12784  14.132  14.072   7.208 -0.1267  0.1548  0.1496
  858POPE   C3B12785  14.317  14.052   7.604  0.3064  0.0255  0.0675
  858POPE   C4B12786  14.555  14.166   8.037 -0.0462  0.1904  0.0054
  859YOPE   NH312787  15.182  12.354   6.114 -0.1354 -0.2003  0.0314
  859YOPE   PO412788  15.066  12.791   5.884 -0.1723 -0.0521 -0.1171
  859YOPE   GL112789  15.239  12.897   6.247  0.5325  0.0197 -0.0566
  859YOPE   GL212790  15.434  12.737   6.408 -0.1632 -0.1072  0.2751
  859YOPE   C1A12791  15.287  13.162   6.599 -0.1978  0.0891 -0.1072
  859YOPE   D2A12792  15.264  13.380   6.920 -0.1965  0.0371 -0.0464
  859YOPE   C3A12793  14.954  13.625   7.155 -0.0484  0.2879  0.3695
  859YOPE   C4A12794  14.517  13.748   7.049 -0.2470 -0.0127  0.0058
  859YOPE   C1B12795  15.398  12.762   6.840  0.1259 -0.3177 -0.0134
  859YOPE   C2B12796  15.329  13.022   7.243  0.0285 -0.2592  0.0329
  859YOPE   D3B12797  15.175  13.196   7.708  0.0902 -0.2087  0.4984
  859YOPE   C4B12798  15.129  13.053   8.109  0.0391  0.1158  0.2319
  860YOPE   NH312799  14.898   0.234   6.358 -0.1707 -0.0627  0.1660
  860YOPE   PO412800  14.521   0.069   6.142 -0.0006  0.0348  0.0498
  860YOPE   GL112801  14.388   0.224   6.573  0.4233 -0.0161  0.3102
  860YOPE   GL212802  14.116   0.157   6.620 -0.2583  0.1044  0.0085
  860YOPE   C1A12803  14.348   0.128   7.117  0.0650 -0.0463  0.1012
  860YOPE   D2A12804  14.569  -0.266   7.307 -0.1192  0.2025 -0.0044
  860YOPE   C3A12805  14.354  -0.479   7.674  0.2542 -0.2211  0.0770
  860YOPE   C4A12806  14.226  -0.402   8.040 -0.1406 -0.3448 -0.0666
  860YOPE   C1B12807  13.860   0.124   6.995 -0.0702 -0.0082  0.2622
  860YOPE   C2B12808  13.663  -0.000   7.363  0.0178  0.0360 -0.2691
  860YOPE   D3B12809  13.642   0.045   7.888  0.0526 -0.0326  0.1542
  860YOPE   C4B12810  14.140   0.129   8.012  0.0464  0.1000  0.1166
  861YOPE   NH312811  14.923  11.557   6.206  0.0862  0.1139 -0.2350
  861YOPE   PO412812  14.779  11.112   6.227 -0.0613  0.2250 -0.1390
  861YOPE   GL112813  14.903  11.282   6.668 -0.1534  0.0995  0.1510
  861YOPE   GL212814  15.266  11.327   6.599 -0.1287  0.0626 -0.1267
  861YOPE   C1A12815  14.852  11.522   7.001  0.0658 -0.0015  0.0243
  861YOPE   D2A12816  14.507  11.589   7.234 -0.0572 -0.0169  0.0231
  861YOPE   C3A12817  14.179  11.463   7.492  0.0994  0.1649  0.1870
  861YOPE   C4A12818  13.756  11.630   7.446 -0.1315 -0.1705 -0.0149
  861YOPE   C1B12819  15.296  11.342   7.006 -0.3426 -0.0572 -0.1317
  861YOPE   C2B12820  15.311  11.126   7.385 -0.0951  0.0525 -0.0965
  861YOPE   D3B12821  15.147  10.907   7.709 -0.0674 -0.0653 -0.1607
  861YOPE   C4B12822  14.907  10.808   8.035  0.0832  0.1057  0.2066
  862YOPE   NH312823  11.531   2.777   6.444 -0.1039 -0.0326 -0.0574
  862YOPE   PO412824  11.871   2.948   6.126 -0.4251 -0.0296 -0.0296
  862YOPE   GL112825  12.100   2.999   6.548 -0.1984  0.2494 -0.1330
  862YOPE   GL212826  11.826   2.958   6.790  0.0775  0.1774  0.0695
  862YOPE   C1A12827  12.456   2.754   6.767  0.0558 -0.0880  0.1082
  862YOPE   D2A12828  12.519   2.733   7.237 -0.0011  0.0939 -0.1190
  862YOPE   C3A12829  12.518   2.366   7.416 -0.2062  0.1427  0.2526
  862YOPE   C4A12830  12.228   2.363   7.742  0.1115  0.3601  0.0431
  862YOPE   C1B12831  12.011   2.903   7.156 -0.1253 -0.2355 -0.1521
  862YOPE   C2B12832  12.259   3.080   7.525 -0.1074  0.2414 -0.1789
  862YOPE   D3B12833  12.584   2.793   7.832  0.2065 -0.0220  0.1912
  862YOPE   C4B12834  13.026   2.755   7.999  0.0967  0.0542 -0.0888
  863YOPE   NH312835   1.598   5.673   5.639  0.1373  0.0035  0.1088
  863YOPE   PO412836   1.532   5.257   5.494  0.0310 -0.0439 -0.2638
  863YOPE   GL112837   1.570   5.227   5.953 -0.3420  0.0587  0.0268
  863YOPE   GL212838   1.749   5.416   6.065 -0.1983  0.0555 -0.0145
  863YOPE   C1A12839   1.300   5.335   6.393 -0.2023 -0.2947 -0.3014
  863YOPE   D2A12840   1.055   5.287   6.697  0.2224  0.1846  0.1223
  863YOPE   C3A12841   1.186   5.149   7.108  0.0995 -0.2566 -0.1137
  863YOPE   C4A12842   1.292   5.145   7.581  0.2819 -0.2691  0.4249
  863YOPE   C1B12843   1.692   5.587   6.476 -0.0059  0.1079  0.2055
  863YOPE   C2B12844   1.877   5.602   6.900  0.1784  0.0530  0.0046
  863YOPE   D3B12845   2.117   5.407   7.308 -0.2489  0.1224 -0.0147
  863YOPE   C4B12846   2.293   5.030   7.415  0.0637 -0.0675  0.0402
  864YOPE   NH312847   5.343   3.264   5.887 -0.3828 -0.1522 -0.2755
  864YOPE   PO412848   5.274   3.658   5.939  0.3110  0.0847 -0.0930
  864YOPE   GL112849   5.095   3.760   6.224  0.1409  0.0965 -0.2373
  864YOPE   GL212850   4.872   3.884   6.262  0.2123  0.0759  0.2558
  864YOPE   C1A12851   5.219   3.827   6.630  0.4033 -0.1893 -0.0596
  864YOPE   D2A12852   4.878   4.038   7.006  0.3251 -0.2865  0.0567
  864YOPE   C3A12853   4.869   3.749   7.464  0.0233  0.0341 -0.1401
  864YOPE   C4A12854   4.948   3.822   7.795 -0.2132  0.1542 -0.1333
  864YOPE   C1B12855   4.650   3.948   6.560 -0.3362 -0.1525 -0.5655
  864YOPE   C2B12856   4.422   4.211   6.840  0.1710  0.1022  0.3124
  864YOPE   D3B12857   4.251   4.082   7.185  0.1021  0.0515  0.1530
  864YOPE   C4B12858   4.456   4.210   7.418  0.1519 -0.3150 -0.1913
  865YOPE   NH312859  14.257  12.437   6.030 -0.0330  0.0400  0.1767
  865YOPE   PO412860  14.683  12.522   6.222  0.0014  0.0770 -0.0948
  865YOPE   GL112861  14.866  12.585   6.563 -0.2014 -0.3327 -0.3037
  865YOPE   GL212862  14.992  12.283   6.571 -0.2384  0.0674  0.0156
  865YOPE   C1A12863  14.940  12.694   7.087 -0.3848  0.0633 -0.1483
  865YOPE   D2A12864  14.983  12.787   7.563 -0.0631  0.0037  0.1428
  865YOPE   C3A12865  14.667  12.842   7.956  0.0698  0.2916  0.1404
  865YOPE   C4A12866  14.308  12.939   8.304 -0.0299  0.0199  0.1154
  865YOPE   C1B12867  15.148  12.302   6.905  0.0068 -0.3650 -0.2307
  865YOPE   C2B12868  15.299  12.362   7.289  0.2252  0.0902  0.2179
  865YOPE   D3B12869  15.299  12.233   7.705  0.1248  0.0974 -0.1374
  865YOPE   C4B12870  15.329  12.126   8.092  0.1069  0.1939 -0.1524
  866YOPE   NH312871  16.491  12.361   5.674  0.0956  0.0154 -0.2077
  866YOPE   PO412872  16.085  12.595   5.781 -0.0134  0.1898 -0.0895
  866YOPE   GL112873  16.042  12.751   6.114  0.0771  0.3173  0.4384
  866YOPE   GL212874  15.866  12.452   6.243 -0.1003 -0.1615 -0.0452
  866YOPE   C1A12875  16.334  12.808   6.527  0.0837 -0.4060 -0.0969
  866YOPE   D2A12876  16.344  12.914   6.991 -0.0101  0.0353  0.0866
  866YOPE   C3A12877  16.744  13.033   7.029  0.2709 -0.0812 -0.1545
  866YOPE   C4A12878  16.932  13.035   7.496  0.6249 -0.0908 -0.0811
  866YOPE   C1B12879  15.883  12.653   6.732 -0.1093  0.0640  0.1365
  866YOPE   C2B12880  15.833  12.898   7.164 -0.3871  0.2347  0.1224
  866YOPE   D3B12881  15.725  13.121   7.510  0.1525  0.1249  0.2564
  866YOPE   C4B12882  15.479  13.498   7.469 -0.0995 -0.2656 -0.4388
  867YOPE   NH312883  16.441  17.501   6.310 -0.2073 -0.1735 -0.1031
  867YOPE   PO412884  15.947  17.524   6.231  0.1035 -0.4033 -0.3280
  867YOPE   GL112885  15.981  17.424   6.603  0.0615 -0.0058  0.3688
  867YOPE   GL212886  15.871  17.681   6.752 -0.1470  0.2742  0.1265
  867YOPE   C1A12887  15.863  17.301   7.091  0.1831 -0.0128 -0.0803
  867YOPE   D2A12888  15.980  17.295   7.580 -0.1590  0.1212  0.0338
  867YOPE   C3A12889  15.737  17.276   7.875 -0.1922  0.3680 -0.2167
  867YOPE   C4A12890  15.549  17.640   8.221  0.2366 -0.0802  0.0428
  867YOPE   C1B12891  16.098  17.694   7.155  0.1893 -0.2837 -0.0226
  867YOPE   C2B12892  16.265  17.670   7.514  0.3052  0.3863 -0.2973
  867YOPE   D3B12893  16.628  17.623   7.764  0.2066  0.1619  0.0930
  867YOPE   C4B12894  16.936  17.240   8.028 -0.1791  0.2298 -0.4183
  868YOPE   NH312895   9.580   6.303   6.111  0.0397 -0.0009  0.2436
  868YOPE   PO412896   9.792   5.923   6.121 -0.0071  0.0015 -0.0775
  868YOPE   GL112897   9.884   6.128   6.526  0.0580 -0.2328  0.0054
  868YOPE   GL212898  10.172   6.276   6.563 -0.0568 -0.0835  0.0592
  868YOPE   C1A12899   9.813   6.562   6.880 -0.2330  0.0991  0.4115
  868YOPE   D2A12900   9.844   6.486   7.302  0.2245 -0.0372 -0.0754
  868YOPE   C3A12901   9.941   6.338   7.658 -0.2047 -0.2445 -0.0955
  868YOPE   C4A12902   9.994   6.462   8.123 -0.3975  0.3075 -0.1451
  868YOPE   C1B12903  10.164   6.163   7.019 -0.1647  0.0047  0.3612
  868YOPE   C2B12904  10.389   6.030   7.421 -0.0896 -0.0972  0.4082
  868YOPE   D3B12905  10.159   5.915   7.711 -0.0632  0.1488  0.2851
  868YOPE   C4B12906  10.016   5.583   7.860  0.0171 -0.0135  0.0473
  869YOPE   NH312907   4.906   1.354   5.990  0.3010  0.3914  0.1393
  869YOPE   PO412908   4.610   1.270   6.353  0.0656  0.0743  0.0771
  869YOPE   GL112909   4.509   0.915   6.578  0.0083 -0.0767 -0.0643
  869YOPE   GL212910   4.213   0.735   6.526  0.1824  0.1903 -0.1519
  869YOPE   C1A12911   4.512   0.697   6.995 -0.0350 -0.0148  0.4514
  869YOPE   D2A12912   4.713   0.727   7.489 -0.0778  0.1099 -0.0497
  869YOPE   C3A12913   4.731   0.335   7.708 -0.1464 -0.0539  0.4197
  869YOPE   C4A12914   5.107  -0.048   7.910  0.0995 -0.2768  0.1977
  869YOPE   C1B12915   3.893   0.786   6.767  0.1483  0.2674  0.2119
  869YOPE   C2B12916   3.796   0.815   7.163  0.2564  0.0610 -0.0015
  869YOPE   D3B12917   3.867   0.394   7.533  0.1296 -0.1426  0.0475
  869YOPE   C4B12918   3.888   0.187   7.890  0.0953  0.2744 -0.1161
  870YOPE   NH312919   1.775  14.561   6.073 -0.1058 -0.0640 -0.2860
  870YOPE   PO412920   1.343  14.426   5.856 -0.0948  0.1210 -0.2604
  870YOPE   GL112921   1.413  14.144   6.152 -0.2069 -0.1470  0.0704
  870YOPE   GL212922   1.138  14.017   6.148 -0.2918  0.1880  0.1048
  870YOPE   C1A12923   1.564  13.786   6.375  0.1350  0.1358 -0.0862
  870YOPE   D2A12924   1.541  13.790   6.871 -0.1022 -0.0075 -0.0999
  870YOPE   C3A12925   1.825  13.593   7.205 -0.0774 -0.1518  0.1284
  870YOPE   C4A12926   1.839  13.664   7.524 -0.0238  0.1434  0.0281
  870YOPE   C1B12927   1.077  13.828   6.412  0.3446 -0.0398  0.0279
  870YOPE   C2B12928   0.954  13.433   6.414 -0.0546 -0.0942  0.4632
  870YOPE   D3B12929   0.806  13.104   6.571 -0.3148 -0.0428 -0.2031
  870YOPE   C4B12930   0.707  12.943   6.941  0.0287  0.1341  0.3943
  871YOPE   NH312931  12.901   9.675   5.590  0.0043 -0.1347  0.1096
  871YOPE   PO412932  13.114   9.351   5.846  0.2066 -0.0897 -0.1080
  871YOPE   GL112933  13.183   9.303   6.272 -0.0388  0.0644  0.0686
  871YOPE   GL212934  12.953   9.418   6.563 -0.1134 -0.0754 -0.0662
  871YOPE   C1A12935  13.452   9.304   6.617 -0.0264 -0.0536  0.1355
  871YOPE   D2A12936  13.673   9.040   6.862 -0.2562 -0.0532  0.0192
  871YOPE   C3A12937  13.552   8.593   7.066  0.0627 -0.2474  0.0287
  871YOPE   C4A12938  13.457   8.236   7.318  0.1781  0.1620  0.3632
  871YOPE   C1B12939  13.011   9.581   6.943  0.0437 -0.0492 -0.0698
  871YOPE   C2B12940  13.080   9.591   7.385 -0.1312  0.1950  0.2851
  871YOPE   D3B12941  13.249   9.702   7.806 -0.1191 -0.0370 -0.2211
  871YOPE   C4B12942  13.426  10.074   7.921  0.0592  0.1486  0.2217
  872YOPE   NH312943  15.320   8.440   5.951  0.1458 -0.1907  0.0701
  872YOPE   PO412944  14.929   8.630   5.888  0.0282  0.1047 -0.1335
  872YOPE   GL112945  14.953   8.537   6.266  0.3258 -0.0413  0.1131
  872YOPE   GL212946  15.231   8.461   6.416 -0.1834  0.3255 -0.2437
  872YOPE   C1A12947  14.827   8.649   6.673 -0.0934  0.3150 -0.2397
  872YOPE   D2A12948  14.556   8.623   7.085  0.0096  0.0333 -0.0448
  872YOPE   C3A12949  14.806   8.556   7.484 -0.2812 -0.1689  0.2314
  872YOPE   C4A12950  14.326   8.650   7.638  0.3223 -0.2895 -0.0542
  872YOPE   C1B12951  15.418   8.456   6.829  0.1341 -0.1923  0.0304
  872YOPE   C2B12952  15.532   8.429   7.273 -0.1725  0.1122  0.0358
  872YOPE   D3B12953  15.622   8.244   7.744 -0.0535 -0.2131 -0.0359
  872YOPE   C4B12954  15.326   7.908   7.811 -0.3902 -0.0871 -0.1860
  873YOPE   NH312955  17.777   2.236   6.032  0.0360 -0.1951  0.0684
  873YOPE   PO412956  17.859   2.687   5.865  0.2116 -0.1276  0.2963
  873YOPE   GL112957  17.664   2.628   6.320 -0.0174 -0.0861 -0.0630
  873YOPE   GL212958  17.921   2.828   6.500  0.0720 -0.2212 -0.1167
  873YOPE   C1A12959  17.404   2.671   6.747 -0.0977  0.1789  0.1769
  873YOPE   D2A12960  17.248   2.617   7.187  0.0429  0.1375  0.1519
  873YOPE   C3A12961  17.510   2.461   7.508  0.0320  0.3277 -0.0322
  873YOPE   C4A12962  17.808   2.403   7.850  0.0839 -0.2062 -0.2443
  873YOPE   C1B12963  17.886   2.800   6.951  0.2493  0.2937  0.0220
  873YOPE   C2B12964  17.673   3.001   7.259 -0.0585 -0.0534  0.2500
  873YOPE   D3B12965  17.512   2.955   7.685 -0.0096  0.0063 -0.1464
  873YOPE   C4B12966  17.399   3.004   8.058  0.0885  0.1600  0.0920
  874YOPE   NH312967   4.242   5.662   5.623  0.0458  0.0089  0.1956
  874YOPE   PO412968   4.429   5.249   5.582 -0.1133 -0.0891 -0.2783
  874YOPE   GL112969   4.712   5.012   5.878 -0.2900 -0.3571 -0.0773
  874YOPE   GL212970   4.882   5.305   6.050 -0.2444 -0.0801 -0.2557
  874YOPE   C1A12971   4.747   4.954   6.383 -0.1638  0.1927 -0.0594
  874YOPE   D2A12972   5.155   4.984   6.561  0.1053  0.0401  0.0174
  874YOPE   C3A12973   5.438   4.738   6.757 -0.0072 -0.2246  0.1481
  874YOPE   C4A12974   5.890   4.644   6.750  0.1188  0.1514 -0.2084
  874YOPE   C1B12975   4.864   5.431   6.460  0.4923 -0.0015  0.3325
  874YOPE   C2B12976   4.826   5.311   6.845 -0.0671 -0.1419 -0.0033
  874YOPE   D3B12977   4.828   5.288   7.269 -0.0512 -0.0701 -0.1499
  874YOPE   C4B12978   4.453   5.519   7.387 -0.1828 -0.1428  0.0758
  875YOPE   NH312979  17.678   7.833   5.558 -0.0577 -0.1347 -0.1302
  875YOPE   PO412980  18.155   7.683   5.581  0.1618 -0.0595 -0.0373
  875YOPE   GL112981  18.138   7.705   5.963 -0.1397  0.1338 -0.0162
  875YOPE   GL212982  18.216   7.499   6.170  0.2021 -0.3009  0.1157
  875YOPE   C1A12983  18.180   8.026   6.261  0.0487  0.0745 -0.1808
  875YOPE   D2A12984  18.150   8.042   6.751  0.0929  0.0210  0.0982
  875YOPE   C3A12985  17.894   8.163   7.071  0.0743 -0.4712  0.0599
  875YOPE   C4A12986  17.877   8.319   7.520  0.0173  0.1656  0.0382
  875YOPE   C1B12987  18.202   7.534   6.595 -0.2177  0.2705 -0.0925
  875YOPE   C2B12988  18.525   7.422   6.882 -0.3092  0.2571  0.1353
  875YOPE   D3B12989  18.868   7.609   7.292  0.0952  0.1904 -0.3416
  875YOPE   C4B12990  19.181   7.630   7.734  0.0563  0.2675 -0.0385
  876YOPE   NH312991  13.496   5.926   6.003  0.0532 -0.2288 -0.1454
  876YOPE   PO412992  13.314   5.410   5.872 -0.0480  0.0367 -0.0272
  876YOPE   GL112993  13.491   5.343   6.323 -0.0844 -0.0117 -0.0123
  876YOPE   GL212994  13.374   5.681   6.427  0.0567 -0.0517  0.2092
  876YOPE   C1A12995  13.246   5.317   6.782 -0.1475 -0.1710 -0.2518
  876YOPE   D2A12996  12.883   5.025   6.860 -0.1178  0.0549  0.0258
  876YOPE   C3A12997  13.007   4.753   7.204 -0.4489  0.2086  0.0173
  876YOPE   C4A12998  13.174   4.518   7.513  0.0388 -0.2105  0.0597
  876YOPE   C1B12999  13.319   5.849   6.822 -0.0924  0.2154  0.1571
  876YOPE   C2B13000  13.619   5.940   7.186  0.2193 -0.0826  0.0029
  876YOPE   D3B13001  13.727   6.134   7.470  0.0522  0.0398 -0.0404
  876YOPE   C4B13002  13.633   6.367   7.894  0.0026  0.3344 -0.0365
  877YOPE   NH313003   4.565  12.786   6.041  0.1974  0.1513  0.0816
  877YOPE   PO413004   4.418  12.460   6.002 -0.2914 -0.0630 -0.3248
  877YOPE   GL113005   4.321  12.553   6.434  0.0810  0.3453 -0.2383
  877YOPE   GL213006   4.165  12.335   6.478  0.0929  0.0033  0.0633
  877YOPE   C1A13007   4.291  12.787   6.844  0.1727  0.0297 -0.3006
  877YOPE   D2A13008   4.137  12.803   7.192  0.0521  0.0269  0.0129
  877YOPE   C3A13009   3.824  12.588   7.289  0.0221  0.0167 -0.2605
  877YOPE   C4A13010   3.448  12.739   7.475 -0.1532  0.0908  0.2953
  877YOPE   C1B13011   4.095  12.357   6.876 -0.0819 -0.2001  0.1419
  877YOPE   C2B13012   3.931  12.100   7.203  0.3513 -0.1853  0.0591
  877YOPE   D3B13013   3.925  11.838   7.588 -0.4059 -0.1673  0.1431
  877YOPE   C4B13014   4.378  11.885   7.720  0.1085  0.2588  0.0631
  878YOPE   NH313015  17.104   6.692   5.896 -0.2935 -0.0712  0.0804
  878YOPE   PO413016  17.475   6.443   5.909  0.1463  0.0213 -0.1930
  878YOPE   GL113017  17.340   6.396   6.345  0.2795  0.0748  0.0824
  878YOPE   GL213018  17.145   6.144   6.415 -0.0435  0.1772 -0.2034
  878YOPE   C1A13019  17.570   6.272   6.708  0.1679 -0.0059  0.1985
  878YOPE   D2A13020  17.525   6.332   7.076  0.4160  0.2987 -0.0419
  878YOPE   C3A13021  17.374   6.056   7.391 -0.0771  0.0569 -0.1350
  878YOPE   C4A13022  17.433   6.220   7.834  0.0669  0.3223 -0.0135
  878YOPE   C1B13023  17.070   5.857   6.734  0.0173 -0.2467  0.0339
  878YOPE   C2B13024  17.089   5.718   7.091 -0.0685 -0.0301  0.3878
  878YOPE   D3B13025  16.724   5.478   7.173  0.2163  0.1499  0.0086
  878YOPE   C4B13026  16.458   5.447   7.566 -0.1225 -0.0633 -0.1678
  879YOPE   NH313027   0.146   3.058   6.008 -0.2228 -0.1023 -0.0427
  879YOPE   PO413028  -0.293   3.273   5.899 -0.1024  0.0981 -0.1965
  879YOPE   GL113029  -0.329   3.362   6.297  0.1787  0.1158 -0.0469
  879YOPE   GL213030   0.055   3.239   6.445 -0.0015 -0.1118  0.3040
  879YOPE   C1A13031  -0.677   3.200   6.628  0.2529 -0.0886 -0.0352
  879YOPE   D2A13032  -0.732   3.406   6.928 -0.2145 -0.1670  0.0979
  879YOPE   C3A13033  -1.168   3.547   7.157 -0.1789  0.4126  0.1599
  879YOPE   C4A13034  -1.407   3.687   7.553  0.4114 -0.1248 -0.4591
  879YOPE   C1B13035   0.025   3.198   6.900 -0.1732 -0.0620 -0.1721
  879YOPE   C2B13036  -0.066   3.110   7.381 -0.0006 -0.3180  0.1375
  879YOPE   D3B13037  -0.199   2.846   7.691  0.1624  0.2732 -0.3998
  879YOPE   C4B13038  -0.353   2.842   8.098 -0.1121  0.2969  0.0061
  880YOPE   NH313039   4.464  15.233   6.235  0.1714 -0.0292  0.0955
  880YOPE   PO413040   4.442  15.691   6.256  0.0249 -0.2731  0.0022
  880YOPE   GL113041   4.578  15.532   6.595 -0.0133  0.0666  0.2830
  880YOPE   GL213042   4.305  15.251   6.694  0.2792  0.1481 -0.0605
  880YOPE   C1A13043   4.811  15.433   7.002  0.1716 -0.2503  0.2188
  880YOPE   D2A13044   5.106  15.436   7.258 -0.2386  0.2856  0.1330
  880YOPE   C3A13045   5.013  15.438   7.736  0.0984  0.0454 -0.0938
  880YOPE   C4A13046   5.008  15.669   8.222  0.1315  0.0682 -0.0785
  880YOPE   C1B13047   4.022  15.621   6.762 -0.0472 -0.3092 -0.0193
  880YOPE   C2B13048   3.818  15.690   7.056  0.0968 -0.2670 -0.2916
  880YOPE   D3B13049   3.447  15.794   7.293 -0.3478 -0.2596  0.2022
  880YOPE   C4B13050   3.183  16.049   7.524 -0.1891  0.0110  0.0245
  881YOPE   NH313051   3.582   6.733   6.285  0.0646 -0.1676 -0.1318
  881YOPE   PO413052   3.202   6.908   6.114  0.0618 -0.1757 -0.0511
  881YOPE   GL113053   3.228   7.104   6.503 -0.2541 -0.0655  0.3926
  881YOPE   GL213054   3.495   7.057   6.623  0.1340 -0.0708 -0.3617
  881YOPE   C1A13055   3.143   7.243   6.960 -0.1397  0.0063  0.0331
  881YOPE   D2A13056   3.195   7.606   7.124  0.1077 -0.3073 -0.1400
  881YOPE   C3A13057   3.131   7.824   6.826  0.3623 -0.3556 -0.1917
  881YOPE   C4A13058   2.722   8.046   6.674 -0.0002 -0.0995 -0.3142
  881YOPE   C1B13059   3.514   6.893   6.961 -0.1259  0.2286 -0.2397
  881YOPE   C2B13060   3.418   7.145   7.444  0.1211 -0.0745 -0.0208
  881YOPE   D3B13061   2.948   7.278   7.471  0.3039 -0.0455  0.2819
  881YOPE   C4B13062   2.567   7.503   7.500  0.0440  0.1863 -0.2917
  882YOPE   NH313063  14.547  17.819   6.025  0.0432  0.0067  0.0269
  882YOPE   PO413064  15.027  17.605   6.213 -0.0842 -0.1279  0.2511
  882YOPE   GL113065  15.138  17.429   6.622  0.1381 -0.0051  0.3071
  882YOPE   GL213066  15.467  17.374   6.661 -0.0137 -0.2576  0.0332
  882YOPE   C1A13067  14.984  17.340   6.912 -0.1068  0.1702 -0.0162
  882YOPE   D2A13068  14.714  17.085   7.159  0.0867  0.1947 -0.0725
  882YOPE   C3A13069  14.562  16.959   7.504  0.1027 -0.1250  0.0647
  882YOPE   C4A13070  14.204  16.828   7.627  0.0862 -0.0289  0.0094
  882YOPE   C1B13071  15.455  17.072   7.021  0.2880  0.3118 -0.1317
  882YOPE   C2B13072  15.560  17.006   7.475 -0.3957  0.2369  0.1069
  882YOPE   D3B13073  15.578  16.615   7.746  0.1535  0.1613  0.3509
  882YOPE   C4B13074  15.829  16.363   8.030 -0.0800 -0.0981  0.0564
  883YOPE   NH313075  11.221   4.179   6.149 -0.0807 -0.2783  0.0113
  883YOPE   PO413076  10.906   3.953   6.352  0.2022 -0.2544 -0.5165
  883YOPE   GL113077  10.563   4.116   6.653  0.0127  0.1094  0.0856
  883YOPE   GL213078  10.571   4.402   6.703  0.0629 -0.0070  0.0957
  883YOPE   C1A13079  10.446   3.874   7.009  0.1626  0.2806  0.1160
  883YOPE   D2A13080  10.737   3.760   7.371 -0.1741 -0.0717  0.2361
  883YOPE   C3A13081  10.544   3.702   7.761  0.0063 -0.2568  0.0443
  883YOPE   C4A13082  10.510   3.873   8.195  0.0032 -0.0209 -0.1973
  883YOPE   C1B13083  10.667   4.326   7.112  0.1463  0.0848  0.2166
  883YOPE   C2B13084  10.926   4.210   7.436  0.3269 -0.0227 -0.1097
  883YOPE   D3B13085  11.326   4.198   7.687  0.1168 -0.0113 -0.0174
  883YOPE   C4B13086  11.388   4.270   8.076 -0.0523  0.1744  0.1507
  884YOPE   NH313087  10.161  17.014   6.254 -0.1216 -0.1129  0.0901
  884YOPE   PO413088  10.374  16.633   6.190  0.2601  0.2238 -0.0214
  884YOPE   GL113089  10.450  16.440   6.677  0.2421  0.0514  0.0383
  884YOPE   GL213090  10.379  16.709   6.714 -0.0130 -0.1202 -0.0347
  884YOPE   C1A13091  10.572  16.374   7.107 -0.0142  0.3091 -0.0873
  884YOPE   D2A13092  10.542  16.144   7.501 -0.1879  0.0452 -0.2834
  884YOPE   C3A13093  10.585  16.290   7.827  0.2482 -0.4998 -0.3196
  884YOPE   C4A13094  10.387  16.511   8.101 -0.2788 -0.0236 -0.0386
  884YOPE   C1B13095  10.466  16.859   7.128  0.0660 -0.2643 -0.1203
  884YOPE   C2B13096  10.578  16.699   7.541 -0.5644 -0.1224  0.1715
  884YOPE   D3B13097  10.814  16.751   7.910  0.1688 -0.1738 -0.3637
  884YOPE   C4B13098  11.134  16.527   8.080  0.0945  0.0823 -0.2215
  885YOPE   NH313099   5.882  13.491   6.225 -0.2387 -0.4377  0.1374
  885YOPE   PO413100   6.065  13.935   6.224 -0.1674  0.1022  0.3387
  885YOPE   GL113101   6.347  13.842   6.515  0.2521  0.0703 -0.3037
  885YOPE   GL213102   6.517  14.086   6.570  0.1064 -0.0348  0.0939
  885YOPE   C1A13103   6.209  13.794   6.905  0.1291 -0.0900 -0.0500
  885YOPE   D2A13104   6.188  13.765   7.365  0.1406 -0.0593 -0.0141
  885YOPE   C3A13105   6.104  14.165   7.616  0.0596  0.1126 -0.0284
  885YOPE   C4A13106   6.175  14.467   7.829  0.1331 -0.1927 -0.0235
  885YOPE   C1B13107   6.383  14.252   7.076  0.4653 -0.0795 -0.0686
  885YOPE   C2B13108   6.564  14.307   7.467 -0.0620 -0.0216  0.0006
  885YOPE   D3B13109   6.761  14.353   7.879 -0.0898  0.1700 -0.2582
  885YOPE   C4B13110   6.895  14.212   8.194  0.0565 -0.0378  0.2767
  886YOPE   NH313111  16.065   6.733   5.796 -0.1519  0.1402 -0.2566
  886YOPE   PO413112  15.678   6.585   6.010  0.1188  0.0158  0.0950
  886YOPE   GL113113  15.470   6.729   6.386  0.2748  0.0451 -0.2428
  886YOPE   GL213114  15.234   6.364   6.375  0.0899  0.2122  0.0881
  886YOPE   C1A13115  15.241   7.053   6.594 -0.1041 -0.1911 -0.1056
  886YOPE   D2A13116  14.854   7.132   6.877 -0.2955  0.2053 -0.0776
  886YOPE   C3A13117  14.812   7.356   7.123 -0.0432 -0.2045  0.0461
  886YOPE   C4A13118  14.905   7.749   7.067  0.0001 -0.0904  0.0047
  886YOPE   C1B13119  15.100   6.196   6.775  0.2377  0.0763  0.0036
  886YOPE   C2B13120  15.179   6.309   7.200  0.2561  0.3821 -0.1273
  886YOPE   D3B13121  15.501   6.560   7.419  0.0812  0.2686 -0.0539
  886YOPE   C4B13122  15.918   6.540   7.464  0.1397 -0.0967 -0.2188
  887YOPE   NH313123   4.596  18.008   5.605  0.0923 -0.0102  0.1638
  887YOPE   PO413124   4.833  17.700   6.011  0.0092 -0.1255 -0.0727
  887YOPE   GL113125   4.574  17.614   6.362 -0.3587 -0.2126 -0.1448
  887YOPE   GL213126   4.824  17.715   6.544  0.0739  0.3060  0.1484
  887YOPE   C1A13127   4.254  17.524   6.648  0.0197 -0.1670 -0.2525
  887YOPE   D2A13128   4.271  17.521   7.049 -0.0424  0.3044 -0.0815
  887YOPE   C3A13129   3.986  17.579   7.342 -0.0210  0.0250 -0.0366
  887YOPE   C4A13130   3.852  17.506   7.710 -0.2683  0.2315  0.1525
  887YOPE   C1B13131   4.788  17.412   6.924  0.1661  0.0038  0.0485
  887YOPE   C2B13132   4.859  17.469   7.342  0.0001 -0.0987 -0.0803
  887YOPE   D3B13133   4.724  17.457   7.752 -0.2726  0.0710 -0.0367
  887YOPE   C4B13134   4.264  17.360   7.967 -0.2459 -0.2938  0.0410
  888YOPE   NH313135  13.750   7.536   6.055  0.0812  0.1152 -0.0951
  888YOPE   PO413136  13.447   7.679   6.026  0.1003 -0.2757  0.0675
  888YOPE   GL113137  13.379   7.890   6.430  0.0388  0.2693  0.2779
  888YOPE   GL213138  13.110   7.881   6.470  0.0406 -0.0626 -0.1307
  888YOPE   C1A13139  13.589   8.162   6.759 -0.1836  0.2725 -0.1649
  888YOPE   D2A13140  13.890   8.105   6.998  0.0373 -0.1963  0.1588
  888YOPE   C3A13141  13.916   8.034   7.431 -0.1447  0.1296 -0.0856
  888YOPE   C4A13142  14.076   7.718   7.801  0.1854  0.0774  0.1602
  888YOPE   C1B13143  12.814   7.712   6.812  0.3654  0.0875 -0.3654
  888YOPE   C2B13144  12.502   7.599   7.065  0.4617 -0.0946 -0.0665
  888YOPE   D3B13145  12.497   7.440   7.422 -0.0295 -0.0979  0.1519
  888YOPE   C4B13146  12.606   7.305   7.747 -0.1803  0.1945 -0.0538
  889YOPE   NH313147   9.224   7.813   5.835  0.0162 -0.2927  0.2107
  889YOPE   PO413148   9.064   7.530   5.812  0.0132 -0.0244 -0.1004
  889YOPE   GL113149   8.934   7.716   6.217  0.0482 -0.0594 -0.1617
  889YOPE   GL213150   8.964   7.421   6.322 -0.0220  0.0481 -0.0977
  889YOPE   C1A13151   8.563   7.752   6.500 -0.0117  0.2327 -0.3795
  889YOPE   D2A13152   8.206   7.739   6.669 -0.1197 -0.0933  0.0347
  889YOPE   C3A13153   8.201   7.893   7.001 -0.1341  0.2007  0.4276
  889YOPE   C4A13154   8.207   8.239   7.323  0.2581  0.0922 -0.1046
  889YOPE   C1B13155   8.816   7.241   6.674  0.1818  0.2582  0.1756
  889YOPE   C2B13156   8.566   7.531   7.033 -0.1569 -0.0600  0.2103
  889YOPE   D3B13157   8.580   7.653   7.418 -0.2094 -0.0139 -0.0817
  889YOPE   C4B13158   8.731   7.618   7.893  0.0451  0.0931 -0.1591
  890YOPE   NH313159  15.990  16.414   5.655  0.1611 -0.0925  0.1695
  890YOPE   PO413160  15.792  16.778   5.823  0.3391 -0.1055 -0.1004
  890YOPE   GL113161  15.812  16.943   6.272 -0.1323  0.0140 -0.0174
  890YOPE   GL213162  15.954  16.685   6.320  0.0932  0.3642 -0.2579
  890YOPE   C1A13163  15.906  16.962   6.752  0.2213 -0.1668  0.0102
  890YOPE   D2A13164  15.910  16.797   7.043  0.1150  0.1269  0.0747
  890YOPE   C3A13165  16.024  16.741   7.455 -0.2904 -0.1462  0.1538
  890YOPE   C4A13166  16.059  16.865   7.940 -0.0156 -0.0553  0.2160
  890YOPE   C1B13167  15.926  16.446   6.649 -0.3607  0.1016 -0.2447
  890YOPE   C2B13168  15.946  16.218   7.064 -0.0476 -0.1104  0.0407
  890YOPE   D3B13169  16.186  16.253   7.422 -0.1060 -0.2311  0.1540
  890YOPE   C4B13170  16.317  16.486   7.785 -0.1888  0.2050 -0.1946
  891YOPE   NH313171  14.529   1.344   5.930 -0.1795  0.0792 -0.1643
  891YOPE   PO413172  14.170   1.314   5.758  0.1485 -0.0243 -0.3245
  891YOPE   GL113173  13.981   1.425   6.122  0.2479  0.0487 -0.0505
  891YOPE   GL213174  13.744   1.207   6.162  0.1652  0.1468 -0.0931
  891YOPE   C1A13175  13.931   1.507   6.525 -0.1429 -0.2661  0.1364
  891YOPE   D2A13176  13.927   1.503   6.920 -0.0065 -0.0440  0.0709
  891YOPE   C3A13177  13.730   1.522   7.280 -0.1082  0.2262 -0.0776
  891YOPE   C4A13178  13.422   1.244   7.404  0.1644  0.1418 -0.1820
  891YOPE   C1B13179  13.511   1.228   6.599 -0.0935  0.2711 -0.3957
  891YOPE   C2B13180  13.374   0.995   6.988 -0.0506 -0.1319  0.0750
  891YOPE   D3B13181  13.113   0.593   7.110  0.2904 -0.1335 -0.1304
  891YOPE   C4B13182  13.203   0.224   7.339  0.1073 -0.0316 -0.3849
  892YOPE   NH313183  10.302   6.815   6.106  0.0654 -0.1243  0.0873
  892YOPE   PO413184  10.181   7.128   5.979  0.3308 -0.0668 -0.1655
  892YOPE   GL113185  10.108   7.341   6.282 -0.3272 -0.2578  0.2144
  892YOPE   GL213186  10.173   7.122   6.476 -0.2287 -0.2660  0.0648
  892YOPE   C1A13187   9.830   7.560   6.509  0.0005  0.1216 -0.2127
  892YOPE   D2A13188   9.579   7.812   6.836 -0.1828 -0.0648 -0.1409
  892YOPE   C3A13189   9.494   7.853   7.337 -0.1182  0.0616 -0.0268
  892YOPE   C4A13190   9.688   7.877   7.805  0.1280 -0.1327 -0.1489
  892YOPE   C1B13191   9.844   7.128   6.792 -0.4757 -0.0378 -0.1699
  892YOPE   C2B13192   9.827   7.007   7.159 -0.1627  0.3202 -0.1451
  892YOPE   D3B13193   9.574   6.875   7.282 -0.4621  0.0596  0.1713
  892YOPE   C4B13194   9.401   6.964   7.564 -0.2281  0.1777 -0.1103
  893YOPE   NH313195  11.362   0.761   6.032  0.0237 -0.1888 -0.2491
  893YOPE   PO413196  11.267   0.924   6.291 -0.2020 -0.2732 -0.1827
  893YOPE   GL113197  11.367   1.182   6.574 -0.2673 -0.0044 -0.1810
  893YOPE   GL213198  11.615   1.206   6.736  0.0528 -0.1124 -0.1955
  893YOPE   C1A13199  11.300   1.629   6.615 -0.1395 -0.2111  0.3540
  893YOPE   D2A13200  10.973   1.893   6.768  0.1132  0.0515 -0.2141
  893YOPE   C3A13201  10.836   1.992   7.212  0.0527  0.1371  0.2025
  893YOPE   C4A13202  10.906   1.598   7.481  0.1586  0.1367 -0.1019
  893YOPE   C1B13203  11.503   1.133   7.108  0.1706  0.1503 -0.2132
  893YOPE   C2B13204  11.342   1.350   7.407  0.1535  0.0535 -0.0074
  893YOPE   D3B13205  11.231   1.285   7.734  0.3204  0.0374  0.1113
  893YOPE   C4B13206  10.916   1.555   8.022 -0.0064  0.0652  0.0042
  894YOPE   NH313207   3.019   9.872   5.669  0.0342  0.0129 -0.3686
  894YOPE   PO413208   2.693  10.184   5.870  0.2760 -0.0478 -0.3261
  894YOPE   GL113209   2.841   9.928   6.121  0.1753  0.1272  0.2090
  894YOPE   GL213210   2.850   9.624   6.130 -0.0873 -0.2482 -0.2138
  894YOPE   C1A13211   3.164  10.102   6.385  0.2587  0.1063 -0.0929
  894YOPE   D2A13212   3.585   9.980   6.571 -0.2884  0.0627  0.0528
  894YOPE   C3A13213   3.623   9.841   6.982 -0.4207 -0.0776  0.1687
  894YOPE   C4A13214   3.415   9.949   7.366  0.1733 -0.0226  0.1382
  894YOPE   C1B13215   2.700   9.782   6.546  0.2028 -0.0005  0.0366
  894YOPE   C2B13216   2.556   9.761   6.941  0.0423 -0.0500  0.3819
  894YOPE   D3B13217   2.509   9.538   7.410  0.1282  0.0485  0.1265
  894YOPE   C4B13218   2.604   9.351   7.696 -0.2480  0.0182  0.1699
  895YOPE   NH313219   3.321   2.095   6.075  0.1165 -0.1555  0.0408
  895YOPE   PO413220   2.870   2.120   6.124 -0.0343  0.1995 -0.0430
  895YOPE   GL113221   3.079   2.240   6.506 -0.2108  0.1533 -0.3528
  895YOPE   GL213222   3.381   2.359   6.565 -0.4310 -0.1190  0.0672
  895YOPE   C1A13223   2.679   2.498   6.745 -0.0428  0.1321  0.3908
  895YOPE   D2A13224   2.306   2.701   7.005 -0.0545 -0.1395 -0.1008
  895YOPE   C3A13225   2.033   2.568   7.387  0.1659 -0.0718  0.0811
  895YOPE   C4A13226   1.921   2.707   7.715  0.0278 -0.2901  0.0599
  895YOPE   C1B13227   3.213   2.705   6.722 -0.0613 -0.1807  0.1737
  895YOPE   C2B13228   3.243   2.979   7.058  0.1918  0.3379  0.3312
  895YOPE   D3B13229   3.186   3.051   7.474 -0.2484 -0.1667 -0.0269
  895YOPE   C4B13230   3.095   2.907   7.906 -0.0475  0.2532 -0.3810
  896YOPE   NH313231  15.091   6.418   5.905  0.1586  0.1796  0.0647
  896YOPE   PO413232  14.665   6.311   5.980 -0.3143  0.1186  0.2597
  896YOPE   GL113233  14.522   6.394   6.453  0.2603 -0.4159 -0.3277
  896YOPE   GL213234  14.403   6.657   6.733 -0.0017  0.1382  0.2134
  896YOPE   C1A13235  14.602   6.226   6.868  0.1398 -0.2569  0.0277
  896YOPE   D2A13236  14.581   6.235   7.284  0.1093  0.0779  0.0523
  896YOPE   C3A13237  14.727   6.594   7.591 -0.1387  0.2272  0.1808
  896YOPE   C4A13238  15.059   6.671   7.688 -0.0014 -0.1772 -0.0836
  896YOPE   C1B13239  14.650   6.722   7.022 -0.0751 -0.3907 -0.4940
  896YOPE   C2B13240  14.948   6.769   7.222  0.0982  0.1380 -0.2499
  896YOPE   D3B13241  15.179   6.944   7.195  0.1472 -0.1569  0.0765
  896YOPE   C4B13242  15.600   7.018   7.064  0.2728 -0.1004  0.1403
  897YOPE   NH313243   5.411   9.115   5.840  0.1318 -0.0028 -0.1380
  897YOPE   PO413244   5.224   8.773   5.907 -0.2543  0.0451 -0.1557
  897YOPE   GL113245   5.353   8.485   6.123  0.1612  0.2036  0.0542
  897YOPE   GL213246   5.545   8.684   6.317  0.0216 -0.1551  0.1111
  897YOPE   C1A13247   5.123   8.165   6.290  0.0507 -0.2182  0.1836
  897YOPE   D2A13248   4.963   7.828   6.537  0.1477 -0.0610 -0.3557
  897YOPE   C3A13249   5.004   7.879   7.035  0.0958  0.1525  0.2357
  897YOPE   C4A13250   5.162   8.192   7.339  0.2245 -0.2304 -0.2306
  897YOPE   C1B13251   5.225   8.515   6.624 -0.0631 -0.0126  0.0292
  897YOPE   C2B13252   5.109   8.813   7.002  0.0463  0.2230 -0.1768
  897YOPE   D3B13253   5.035   8.731   7.311 -0.1008  0.3600  0.2161
  897YOPE   C4B13254   5.024   8.552   7.707 -0.1032  0.3168  0.1497
  898YOPE   NH313255   2.447  13.972   6.154 -0.4590 -0.1588 -0.0619
  898YOPE   PO413256   2.756  14.187   5.935 -0.2504  0.0046 -0.5216
  898YOPE   GL113257   2.791  14.233   6.401  0.0512 -0.0875  0.0920
  898YOPE   GL213258   2.427  14.186   6.614 -0.2325  0.0759  0.1701
  898YOPE   C1A13259   3.069  14.427   6.646 -0.0540  0.0273 -0.0524
  898YOPE   D2A13260   3.501  14.320   6.615  0.1900 -0.0416 -0.1576
  898YOPE   C3A13261   3.727  14.585   6.965 -0.0308  0.1316  0.1950
  898YOPE   C4A13262   3.766  14.744   7.356 -0.4296 -0.0727  0.1431
  898YOPE   C1B13263   2.366  14.285   7.005  0.1728  0.0721 -0.0781
  898YOPE   C2B13264   2.405  14.449   7.456  0.2655 -0.0682  0.2143
  898YOPE   D3B13265   2.321  14.894   7.700  0.0041 -0.0618 -0.2026
  898YOPE   C4B13266   2.490  15.058   8.017  0.1213  0.1027 -0.1186
  899YOPE   NH313267   5.102   4.681   5.720 -0.1131  0.0402  0.0810
  899YOPE   PO413268   5.480   4.853   5.700  0.1393  0.1372 -0.2004
  899YOPE   GL113269   5.688   4.955   6.005  0.2014 -0.0447 -0.0140
  899YOPE   GL213270   5.931   4.900   6.007 -0.2047  0.3223 -0.0656
  899YOPE   C1A13271   5.669   5.072   6.424 -0.0465 -0.0361 -0.0559
  899YOPE   D2A13272   5.807   5.094   6.872  0.0419 -0.3232  0.0998
  899YOPE   C3A13273   5.445   5.224   7.069 -0.3030 -0.2608 -0.0514
  899YOPE   C4A13274   5.309   5.229   7.439 -0.0609 -0.4455  0.1572
  899YOPE   C1B13275   6.186   5.123   6.412 -0.2045 -0.1174  0.0827
  899YOPE   C2B13276   6.297   5.158   6.802  0.2249 -0.5151 -0.2679
  899YOPE   D3B13277   6.365   5.254   7.163  0.3336  0.0784  0.2190
  899YOPE   C4B13278   6.638   4.926   7.406 -0.3000 -0.3736 -0.0185
  900YOPE   NH313279  17.128  13.972   5.894  0.0346 -0.0647  0.0804
  900YOPE   PO413280  17.427  14.305   5.868 -0.1204 -0.2042  0.0201
  900YOPE   GL113281  17.633  14.198   6.212 -0.3124 -0.4809  0.1006
  900YOPE   GL213282  17.334  14.016   6.321  0.1682  0.0915 -0.3598
  900YOPE   C1A13283  17.994  14.309   6.483  0.1200  0.1843  0.3440
  900YOPE   D2A13284  18.063  14.166   6.918  0.0551  0.3624  0.4724
  900YOPE   C3A13285  17.681  14.393   7.171  0.2571  0.0646  0.0472
  900YOPE   C4A13286  17.680  14.436   7.601 -0.0769 -0.0867 -0.5149
  900YOPE   C1B13287  17.349  14.051   6.781  0.0569  0.2682 -0.2370
  900YOPE   C2B13288  17.306  13.988   7.285  0.1077 -0.0403 -0.1176
  900YOPE   D3B13289  17.441  13.947   7.695 -0.0443  0.1906  0.2417
  900YOPE   C4B13290  17.517  14.146   8.086  0.1846 -0.0902  0.3065
  901YOPE   NH313291   4.969  12.231   5.821  0.1915  0.5760 -0.3030
  901YOPE   PO413292   5.351  12.398   5.944  0.2100 -0.2601 -0.2582
  901YOPE   GL113293   5.301  12.331   6.379  0.0566  0.2748  0.4755
  901YOPE   GL213294   5.299  12.619   6.613  0.1189  0.3117 -0.0200
  901YOPE   C1A13295   5.327  12.068   6.654 -0.4953 -0.0276  0.0449
  901YOPE   D2A13296   5.295  11.631   6.621  0.0126 -0.1878 -0.2579
  901YOPE   C3A13297   4.920  11.466   6.781 -0.0960  0.2738 -0.0145
  901YOPE   C4A13298   4.547  11.446   6.923 -0.1201  0.3258 -0.0055
  901YOPE   C1B13299   5.216  12.801   6.947  0.0030  0.0764 -0.2774
  901YOPE   C2B13300   4.986  12.785   7.322  0.1219  0.2063  0.2341
  901YOPE   D3B13301   4.603  12.791   7.565  0.0085 -0.1009 -0.4672
  901YOPE   C4B13302   4.481  12.555   7.919  0.3318  0.0852 -0.1266
  902YOPE   NH313303   4.772  16.213   6.241 -0.0068  0.1296 -0.1644
  902YOPE   PO413304   4.402  16.162   6.060 -0.0886 -0.1475 -0.1069
  902YOPE   GL113305   4.161  16.319   6.328  0.6276  0.0729 -0.2669
  902YOPE   GL213306   4.260  16.020   6.600  0.0292  0.0640  0.1242
  902YOPE   C1A13307   4.134  16.571   6.661  0.1871 -0.0498 -0.0827
  902YOPE   D2A13308   4.448  16.935   6.740  0.1113 -0.0914  0.3528
  902YOPE   C3A13309   4.418  17.067   7.198 -0.0672 -0.1007  0.2931
  902YOPE   C4A13310   4.352  17.302   7.477  0.0932 -0.0528  0.2028
  902YOPE   C1B13311   4.181  16.191   7.006  0.1330  0.0313  0.0984
  902YOPE   C2B13312   4.238  16.025   7.369  0.1195  0.3959 -0.0204
  902YOPE   D3B13313   3.868  15.900   7.645  0.2471 -0.2725 -0.0380
  902YOPE   C4B13314   3.569  16.012   8.003  0.1130 -0.2302 -0.1786
  903YOPE   NH313315  13.533  13.862   5.899  0.0173 -0.1672  0.0243
  903YOPE   PO413316  13.642  14.229   5.920 -0.3861 -0.0922 -0.0921
  903YOPE   GL113317  13.675  14.125   6.288 -0.0636 -0.0970  0.1971
  903YOPE   GL213318  13.386  14.235   6.477  0.0542  0.1501  0.1684
  903YOPE   C1A13319  13.934  13.990   6.529 -0.3564  0.0911  0.2554
  903YOPE   D2A13320  14.395  14.134   6.599 -0.1785  0.1326 -0.0735
  903YOPE   C3A13321  14.473  14.391   6.905  0.1073  0.0660  0.2527
  903YOPE   C4A13322  14.517  14.393   7.329 -0.2971 -0.0211  0.0340
  903YOPE   C1B13323  13.492  14.497   6.679 -0.2178  0.1441  0.1452
  903YOPE   C2B13324  13.516  14.659   6.993 -0.0417 -0.2357  0.1833
  903YOPE   D3B13325  13.422  14.902   7.393  0.1208  0.1291 -0.2100
  903YOPE   C4B13326  13.130  15.194   7.575  0.0832  0.2506  0.3794
  904YOPE   NH313327  14.078   0.320   6.165 -0.3043 -0.2492 -0.3410
  904YOPE   PO413328  14.459   0.574   6.164  0.5146 -0.1269  0.0170
  904YOPE   GL113329  14.176   0.674   6.493 -0.0164 -0.1380  0.1247
  904YOPE   GL213330  13.928   0.991   6.555  0.0469  0.2056 -0.1126
  904YOPE   C1A13331  14.159   0.631   6.899 -0.3194  0.3556  0.0657
  904YOPE   D2A13332  14.099   0.710   7.323  0.2120 -0.0575 -0.0196
  904YOPE   C3A13333  13.992   0.372   7.582  0.0751 -0.0823 -0.1941
  904YOPE   C4A13334  14.177  -0.056   7.549 -0.0583 -0.3164 -0.1007
  904YOPE   C1B13335  13.845   0.992   7.007  0.2020  0.0303  0.2767
  904YOPE   C2B13336  13.905   1.110   7.462  0.1777  0.0865 -0.0920
  904YOPE   D3B13337  13.816   1.329   7.869  0.0558  0.1203 -0.2624
  904YOPE   C4B13338  13.547   1.681   8.118 -0.1083 -0.2625  0.1312
  905YOPE   NH313339  11.567   5.706   6.483 -0.1954  0.1635 -0.2161
  905YOPE   PO413340  11.415   6.125   6.430 -0.0364  0.0742  0.0997
  905YOPE   GL113341  11.404   6.136   6.833  0.3429  0.0790  0.3722
  905YOPE   GL213342  11.821   6.079   6.745  0.1890 -0.3147  0.0859
  905YOPE   C1A13343  11.365   6.146   7.233  0.0014  0.1039  0.1108
  905YOPE   D2A13344  11.520   6.186   7.564 -0.0682  0.0085 -0.1317
  905YOPE   C3A13345  11.587   6.519   7.804  0.2755  0.1481  0.0215
  905YOPE   C4A13346  11.307   6.705   8.151  0.0414 -0.1812  0.0407
  905YOPE   C1B13347  11.879   6.276   7.157  0.3432  0.0994  0.1065
  905YOPE   C2B13348  11.764   6.604   7.259 -0.0348  0.0564 -0.0421
  905YOPE   D3B13349  11.901   6.782   7.565  0.2119  0.1518  0.1213
  905YOPE   C4B13350  11.660   7.031   7.956 -0.0898  0.5002 -0.1043
  906YOPE   NH313351   8.439   3.471   6.094 -0.2656  0.0236 -0.2278
  906YOPE   PO413352   8.468   2.967   6.079  0.0913 -0.0440  0.1718
  906YOPE   GL113353   8.390   2.869   6.456 -0.1214 -0.4772 -0.1242
  906YOPE   GL213354   8.318   2.628   6.617  0.1097 -0.0016  0.1864
  906YOPE   C1A13355   8.055   2.978   6.852 -0.2280  0.0637  0.1970
  906YOPE   D2A13356   7.918   3.095   7.266 -0.0752 -0.4864 -0.1486
  906YOPE   C3A13357   8.079   3.249   7.627  0.2430  0.0902  0.1301
  906YOPE   C4A13358   8.122   3.668   7.755 -0.1785 -0.1402  0.2090
  906YOPE   C1B13359   8.733   2.486   6.731 -0.2621 -0.0146 -0.1019
  906YOPE   C2B13360   9.056   2.600   7.132 -0.3105 -0.5264  0.2904
  906YOPE   D3B13361   9.206   2.556   7.477 -0.1239 -0.0132 -0.3079
  906YOPE   C4B13362   9.308   3.030   7.878 -0.0668  0.2770  0.2606
  907YOPE   NH313363   4.958  16.731   6.129 -0.0865 -0.0298  0.1813
  907YOPE   PO413364   5.395  16.890   6.035  0.1849  0.1194  0.0090
  907YOPE   GL113365   5.391  16.877   6.388  0.0131  0.2583 -0.0428
  907YOPE   GL213366   5.554  16.694   6.539  0.1325 -0.1518 -0.0430
  907YOPE   C1A13367   5.192  17.150   6.695  0.2357 -0.0537 -0.0373
  907YOPE   D2A13368   4.929  16.966   7.120 -0.2839 -0.2628  0.2312
  907YOPE   C3A13369   4.862  16.996   7.528  0.0418 -0.4032 -0.0428
  907YOPE   C4A13370   5.037  16.706   7.815 -0.7261 -0.0106  0.1376
  907YOPE   C1B13371   5.337  16.681   6.936  0.0191 -0.3593 -0.2938
  907YOPE   C2B13372   5.135  16.434   7.168 -0.0091  0.0174  0.0999
  907YOPE   D3B13373   5.191  16.257   7.572  0.1843  0.2236 -0.0661
  907YOPE   C4B13374   5.330  15.946   7.816 -0.2015 -0.1759  0.0039
  908YOPE   NH313375  13.695   8.100   6.103 -0.4403  0.1096 -0.0194
  908YOPE   PO413376  13.562   8.504   5.886  0.2414  0.3852 -0.1896
  908YOPE   GL113377  13.854   8.584   6.202  0.2818  0.1330 -0.0146
  908YOPE   GL213378  13.913   8.393   6.418  0.0779  0.1840  0.0121
  908YOPE   C1A13379  13.933   8.906   6.457 -0.1867  0.0050 -0.0356
  908YOPE   D2A13380  13.924   9.366   6.554  0.1467 -0.3810 -0.1040
  908YOPE   C3A13381  14.014   9.512   6.941  0.0385 -0.0747 -0.2601
  908YOPE   C4A13382  13.966   9.418   7.327  0.0609 -0.4642  0.2356
  908YOPE   C1B13383  13.997   8.598   6.813  0.2399  0.1093 -0.0818
  908YOPE   C2B13384  13.995   8.520   7.282 -0.2461 -0.1774 -0.3638
  908YOPE   D3B13385  13.768   8.449   7.601  0.1721 -0.0357 -0.0732
  908YOPE   C4B13386  13.604   8.119   7.892  0.2061  0.1832 -0.0367
  909YOPE   NH313387   3.033   0.335   6.050 -0.1117 -0.0990  0.0974
  909YOPE   PO413388   3.379   0.115   5.822  0.0558  0.1296 -0.0450
  909YOPE   GL113389   3.503  -0.072   6.122 -0.3870  0.2684  0.2573
  909YOPE   GL213390   3.388  -0.013   6.395 -0.1288 -0.1080  0.0330
  909YOPE   C1A13391   3.525  -0.471   6.369  0.2207  0.1698 -0.1740
  909YOPE   D2A13392   3.726  -0.584   6.685 -0.0404  0.1727  0.0028
  909YOPE   C3A13393   3.624  -0.454   7.078 -0.1918 -0.0535 -0.2006
  909YOPE   C4A13394   3.528  -0.399   7.480 -0.0790 -0.1825  0.0948
  909YOPE   C1B13395   3.432  -0.099   6.798 -0.4148 -0.0284 -0.0626
  909YOPE   C2B13396   3.184   0.044   7.029  0.3017 -0.2473 -0.1003
  909YOPE   D3B13397   2.942   0.072   7.410  0.0738 -0.2462  0.0780
  909YOPE   C4B13398   2.572  -0.038   7.623 -0.1826  0.0728  0.0421
  910YOPE   NH313399  10.721  11.445   5.921  0.0399  0.1584 -0.1585
  910YOPE   PO413400  11.121  11.348   5.931 -0.0573 -0.2383  0.0404
  910YOPE   GL113401  10.968  11.141   6.199  0.1248  0.0598  0.1136
  910YOPE   GL213402  10.908  10.902   6.202  0.1099  0.2935  0.1519
  910YOPE   C1A13403  10.827  11.336   6.632 -0.3070  0.1011 -0.1972
  910YOPE   D2A13404  10.474  11.298   6.958  0.1975 -0.3473  0.0378
  910YOPE   C3A13405  10.464  11.478   7.415  0.1735  0.0529 -0.2016
  910YOPE   C4A13406  10.597  11.763   7.807 -0.0709  0.0908  0.0722
  910YOPE   C1B13407  10.725  10.856   6.645 -0.0544 -0.0895 -0.1398
  910YOPE   C2B13408  10.674  10.832   7.027 -0.0648  0.1593  0.0478
  910YOPE   D3B13409  10.491  10.904   7.297 -0.0961 -0.1398  0.0813
  910YOPE   C4B13410  10.225  11.056   7.630  0.1673  0.2017  0.4134
  911YOPE   NH313411   7.702  10.007   6.069 -0.1343 -0.3746 -0.3056
  911YOPE   PO413412   7.315   9.890   5.896  0.2576 -0.2916  0.0331
  911YOPE   GL113413   7.333   9.595   6.193 -0.0910 -0.3410  0.2683
  911YOPE   GL213414   7.171   9.398   6.129 -0.2038 -0.1570  0.0249
  911YOPE   C1A13415   7.449   9.520   6.583  0.2823  0.0027  0.0385
  911YOPE   D2A13416   7.294   9.544   7.101  0.1440  0.0030 -0.0818
  911YOPE   C3A13417   6.974   9.254   7.217  0.0857  0.2664  0.4021
  911YOPE   C4A13418   6.933   9.140   7.667 -0.0784 -0.1704 -0.0356
  911YOPE   C1B13419   7.087   8.891   6.084 -0.0463  0.0570  0.1070
  911YOPE   C2B13420   7.494   8.540   6.236 -0.0781  0.1389 -0.1518
  911YOPE   D3B13421   7.757   8.257   6.214 -0.3213  0.2922 -0.2551
  911YOPE   C4B13422   7.764   7.810   6.468  0.0369  0.2576  0.2464
  912YOPE   NH313423   1.284  10.037   5.930 -0.2875  0.1195  0.0316
  912YOPE   PO413424   1.703  10.164   6.037  0.0164 -0.0316 -0.0353
  912YOPE   GL113425   1.621  10.201   6.524 -0.1886 -0.2084  0.0041
  912YOPE   GL213426   1.787   9.973   6.473  0.0252  0.1859 -0.1386
  912YOPE   C1A13427   1.654  10.206   6.898  0.1026 -0.0617  0.1482
  912YOPE   D2A13428   1.755  10.175   7.285  0.3494  0.1383 -0.1147
  912YOPE   C3A13429   1.827  10.196   7.739 -0.0566 -0.3936  0.2438
  912YOPE   C4A13430   1.784  10.323   8.069 -0.1515  0.1172 -0.1747
  912YOPE   C1B13431   1.786   9.720   6.945  0.1153  0.2262 -0.0841
  912YOPE   C2B13432   2.039   9.795   7.297  0.1198  0.2131  0.0173
  912YOPE   D3B13433   2.003   9.593   7.627 -0.0080 -0.1565 -0.0222
  912YOPE   C4B13434   2.111   9.351   8.063 -0.0962 -0.0876  0.1059
  913YOPE   NH313435  15.504  17.784   6.366  0.0725  0.2593  0.1370
  913YOPE   PO413436  15.812  18.062   6.049  0.1329  0.0961  0.2859
  913YOPE   GL113437  15.914  18.181   6.497  0.1685  0.0420  0.2914
  913YOPE   GL213438  15.671  18.251   6.656  0.1142 -0.1042 -0.3692
  913YOPE   C1A13439  16.035  18.151   6.971 -0.0659 -0.2650  0.1475
  913YOPE   D2A13440  16.317  18.113   7.370  0.1042  0.1691 -0.3773
  913YOPE   C3A13441  16.809  17.976   7.492 -0.2782 -0.2382 -0.3821
  913YOPE   C4A13442  17.235  18.107   7.443  0.0565 -0.1971 -0.2253
  913YOPE   C1B13443  15.567  18.092   7.078 -0.0907 -0.0766  0.4766
  913YOPE   C2B13444  15.428  17.613   7.191 -0.2034 -0.3830  0.3576
  913YOPE   D3B13445  15.360  17.401   7.496  0.1474 -0.0505 -0.1740
  913YOPE   C4B13446  15.270  17.171   7.942 -0.0731  0.1315  0.0796
  914YOPE   NH313447   1.033   1.279   5.735 -0.1566  0.2894 -0.1076
  914YOPE   PO413448   0.812   0.930   5.849  0.1754  0.3532 -0.1768
  914YOPE   GL113449   0.904   0.859   6.312 -0.0585  0.1406 -0.2902
  914YOPE   GL213450   1.214   0.624   6.309  0.2908  0.3659 -0.0345
  914YOPE   C1A13451   0.857   1.012   6.707  0.0326  0.0426 -0.1680
  914YOPE   D2A13452   0.503   1.071   6.981  0.0888  0.2591  0.0190
  914YOPE   C3A13453   0.338   0.833   7.327  0.2294  0.2991  0.2753
  914YOPE   C4A13454   0.255   0.395   7.249  0.2483  0.1659  0.0970
  914YOPE   C1B13455   1.170   0.473   6.792 -0.0820 -0.0786 -0.2463
  914YOPE   C2B13456   0.951   0.108   7.037  0.0800  0.0866 -0.0383
  914YOPE   D3B13457   0.966  -0.018   7.443  0.1359  0.2189 -0.1042
  914YOPE   C4B13458   0.873  -0.080   7.770  0.1379 -0.2092  0.1465
  915YOPE   NH313459  11.564  16.249   6.103  0.1898 -0.0631  0.0586
  915YOPE   PO413460  11.939  16.482   6.203  0.1109 -0.3184 -0.0159
  915YOPE   GL113461  12.160  16.752   6.568  0.0833 -0.1630 -0.0133
  915YOPE   GL213462  12.222  17.074   6.506 -0.2126 -0.2299 -0.0613
  915YOPE   C1A13463  12.182  16.645   6.960  0.1588  0.2396 -0.0980
  915YOPE   D2A13464  12.329  16.427   7.297 -0.0264  0.0224  0.1246
  915YOPE   C3A13465  12.733  16.464   7.565  0.0288  0.1153  0.1696
  915YOPE   C4A13466  13.183  16.772   7.606  0.0718  0.0690  0.0260
  915YOPE   C1B13467  12.169  17.224   6.949  0.2144  0.0332  0.1013
  915YOPE   C2B13468  12.128  17.043   7.263 -0.2758  0.3656 -0.0262
  915YOPE   D3B13469  12.308  16.777   7.641 -0.1323 -0.1124 -0.2544
  915YOPE   C4B13470  12.588  16.843   7.978 -0.1487 -0.0223  0.1621
  916YOPE   NH313471   3.975  13.503   5.923  0.0997  0.1121  0.1787
  916YOPE   PO413472   4.220  13.856   5.848  0.1252  0.3168 -0.1686
  916YOPE   GL113473   4.228  13.823   6.270 -0.0091  0.0112  0.0763
  916YOPE   GL213474   4.054  13.529   6.393 -0.3087  0.0917 -0.0005
  916YOPE   C1A13475   4.426  13.864   6.646 -0.0366 -0.0469 -0.1107
  916YOPE   D2A13476   4.421  13.543   7.045 -0.4251  0.2526  0.1588
  916YOPE   C3A13477   4.731  13.484   7.356  0.1771 -0.2924  0.0928
  916YOPE   C4A13478   4.926  13.233   7.579 -0.1486  0.0959  0.2714
  916YOPE   C1B13479   4.050  13.736   6.868  0.0369  0.1803  0.1098
  916YOPE   C2B13480   3.818  14.014   7.033 -0.1918  0.2724 -0.1104
  916YOPE   D3B13481   3.753  13.993   7.418  0.1154  0.1902  0.2543
  916YOPE   C4B13482   3.711  14.004   7.850 -0.1405  0.0694 -0.1482
  917YOPE   NH313483  12.938  16.715   6.117 -0.1056  0.0063  0.0476
  917YOPE   PO413484  12.892  16.283   6.230  0.3113 -0.2804 -0.1136
  917YOPE   GL113485  13.110  16.292   6.555 -0.3658  0.2208  0.1568
  917YOPE   GL213486  13.199  16.605   6.621 -0.1972 -0.0600  0.0997
  917YOPE   C1A13487  13.457  16.354   6.915 -0.2617 -0.2155  0.2529
  917YOPE   D2A13488  13.484  16.370   7.360  0.2752  0.0972  0.0013
  917YOPE   C3A13489  13.650  16.566   7.747 -0.0009 -0.0066  0.0821
  917YOPE   C4A13490  14.053  16.573   8.065 -0.2302 -0.0017  0.1202
  917YOPE   C1B13491  13.641  16.804   6.692 -0.0033 -0.2293  0.0129
  917YOPE   C2B13492  13.762  17.198   6.966  0.0301 -0.0862  0.3310
  917YOPE   D3B13493  13.571  17.072   7.505 -0.2220 -0.0055  0.2952
  917YOPE   C4B13494  13.436  17.174   7.779  0.4335 -0.2004 -0.0831
  918YOPE   NH313495  17.347   5.979   6.011  0.0092  0.1305  0.2399
  918YOPE   PO413496  17.789   6.027   6.109 -0.0541  0.0414  0.0468
  918YOPE   GL113497  18.206   5.759   6.082  0.0960  0.4591  0.2831
  918YOPE   GL213498  18.101   5.452   6.205 -0.1335 -0.2788 -0.2055
  918YOPE   C1A13499  18.551   5.861   6.200 -0.4195  0.2021 -0.2024
  918YOPE   D2A13500  18.722   5.963   6.561  0.0796  0.0075 -0.1318
  918YOPE   C3A13501  19.008   6.307   6.566 -0.3711 -0.0094 -0.0558
  918YOPE   C4A13502  19.145   6.526   6.209 -0.1687 -0.0766 -0.0497
  918YOPE   C1B13503  18.395   5.577   6.603  0.0659 -0.2264 -0.1371
  918YOPE   C2B13504  18.561   5.749   6.995 -0.4295  0.0195 -0.2492
  918YOPE   D3B13505  18.703   5.918   7.433  0.3523 -0.0529 -0.0637
  918YOPE   C4B13506  18.532   6.331   7.576  0.2289  0.1788 -0.3620
  919YOPE   NH313507   1.598   4.762   5.748 -0.1424 -0.0586  0.3507
  919YOPE   PO413508   1.239   4.508   5.723 -0.0121 -0.0485 -0.1584
  919YOPE   GL113509   1.451   4.357   6.125 -0.0936 -0.0151  0.2800
  919YOPE   GL213510   1.767   4.042   6.297 -0.0278  0.0423  0.0909
  919YOPE   C1A13511   1.067   4.232   6.405 -0.2628  0.0119 -0.0496
  919YOPE   D2A13512   0.940   4.214   6.814  0.0094  0.1346 -0.2705
  919YOPE   C3A13513   1.285   4.101   7.140 -0.3195  0.0618 -0.0776
  919YOPE   C4A13514   1.661   4.305   7.537  0.1756  0.0123 -0.2273
  919YOPE   C1B13515   1.985   3.967   6.629 -0.0478 -0.0265  0.2525
  919YOPE   C2B13516   2.093   3.710   6.934 -0.1554  0.1514  0.0273
  919YOPE   D3B13517   1.873   3.440   7.197  0.0637  0.0662 -0.2481
  919YOPE   C4B13518   1.944   3.426   7.619  0.0145 -0.0693  0.0299
  920YOPE   NH313519   8.574   9.428   6.081 -0.2194 -0.1991  0.1339
  920YOPE   PO413520   8.086   9.693   6.055  0.0416  0.0145 -0.0195
  920YOPE   GL113521   7.893   9.621   6.404 -0.3088 -0.0820  0.2887
  920YOPE   GL213522   7.778   9.919   6.576 -0.2575 -0.1410 -0.0972
  920YOPE   C1A13523   7.917   9.554   6.881 -0.1171  0.1467 -0.0466
  920YOPE   D2A13524   7.769   9.346   7.095  0.2433  0.1192  0.0656
  920YOPE   C3A13525   7.833   9.448   7.555  0.1004 -0.0168 -0.2541
  920YOPE   C4A13526   7.979   9.551   7.938 -0.1986  0.2364  0.0664
  920YOPE   C1B13527   7.766   9.965   7.008  0.0118  0.1163  0.2912
  920YOPE   C2B13528   7.590   9.876   7.347 -0.4388  0.0261  0.2661
  920YOPE   D3B13529   7.583   9.810   7.823 -0.0975 -0.2267 -0.3908
  920YOPE   C4B13530   7.718  10.137   8.162  0.1552 -0.2597 -0.3405
  921YOPE   NH313531  15.677   0.355   6.334 -0.0474 -0.5943  0.2518
  921YOPE   PO413532  15.247   0.584   6.139 -0.2872  0.0941  0.1471
  921YOPE   GL113533  15.059   0.686   6.514 -0.3964 -0.0834  0.0533
  921YOPE   GL213534  14.678   0.654   6.653 -0.4783  0.2242 -0.2412
  921YOPE   C1A13535  15.169   0.645   6.883  0.0528 -0.0395 -0.3352
  921YOPE   D2A13536  15.139   0.717   7.248  0.5051  0.0764  0.2320
  921YOPE   C3A13537  14.985   0.535   7.596 -0.1373  0.1055 -0.0542
  921YOPE   C4A13538  14.993   0.374   7.985 -0.1654 -0.3380  0.0753
  921YOPE   C1B13539  14.598   0.566   7.136 -0.1790 -0.1417 -0.0134
  921YOPE   C2B13540  14.489   0.375   7.514 -0.1921 -0.1642 -0.0179
  921YOPE   D3B13541  14.614   0.059   7.706 -0.0579 -0.3311  0.0775
  921YOPE   C4B13542  14.796  -0.321   7.748  0.0351  0.3701 -0.2519
  922YOPE   NH313543   9.839  11.283   5.975  0.1499 -0.0708  0.1674
  922YOPE   PO413544  10.254  11.341   5.850 -0.1710  0.2617 -0.1927
  922YOPE   GL113545  10.250  11.641   6.129 -0.0760 -0.2181  0.1632
  922YOPE   GL213546  10.617  11.776   6.292  0.3735 -0.1869  0.2892
  922YOPE   C1A13547  10.270  11.672   6.721  0.0432  0.5506 -0.4015
  922YOPE   D2A13548  10.067  11.827   7.109  0.0604  0.1986  0.1657
  922YOPE   C3A13549  10.242  12.034   7.463  0.0726 -0.0079 -0.0950
  922YOPE   C4A13550  10.328  12.301   7.744  0.2676 -0.0632  0.0953
  922YOPE   C1B13551  10.693  12.003   6.679  0.1707  0.4131  0.1373
  922YOPE   C2B13552  10.682  11.902   7.090  0.0659  0.0839  0.0088
  922YOPE   D3B13553  10.726  12.301   7.369  0.0373  0.1919  0.1771
  922YOPE   C4B13554  10.811  12.660   7.563  0.1738 -0.1247  0.2121
  923YOPE   NH313555  10.091  16.206   6.288 -0.1836 -0.1814 -0.2617
  923YOPE   PO413556   9.818  15.794   6.280 -0.1259 -0.1938  0.1749
  923YOPE   GL113557  10.145  15.765   6.543  0.3411  0.2599  0.0877
  923YOPE   GL213558   9.932  15.534   6.754 -0.1120 -0.0555  0.3230
  923YOPE   C1A13559  10.436  15.451   6.762 -0.0706 -0.0660  0.0413
  923YOPE   D2A13560  10.651  15.405   7.152 -0.0848  0.0013 -0.0922
  923YOPE   C3A13561  10.723  15.028   7.459  0.0714 -0.2166 -0.2149
  923YOPE   C4A13562  10.925  14.679   7.656  0.4623 -0.3051 -0.0274
  923YOPE   C1B13563  10.135  15.548   7.142 -0.3247 -0.0669  0.0300
  923YOPE   C2B13564  10.312  15.572   7.512 -0.0733 -0.1323 -0.1994
  923YOPE   D3B13565  10.581  15.603   7.763  0.1616  0.3829 -0.2411
  923YOPE   C4B13566  10.563  15.134   7.925 -0.2698  0.1138  0.0494
  924YOPE   NH313567   2.618  16.284   5.813 -0.0271  0.3452  0.0067
  924YOPE   PO413568   2.335  16.423   5.552 -0.0237 -0.0844  0.0523
  924YOPE   GL113569   2.150  16.531   5.879 -0.0983 -0.1915 -0.0385
  924YOPE   GL213570   2.420  16.717   6.116 -0.1734 -0.0266  0.0893
  924YOPE   C1A13571   2.122  16.384   6.313 -0.0142  0.0760 -0.0541
  924YOPE   D2A13572   1.995  16.141   6.668 -0.4937  0.3171 -0.1805
  924YOPE   C3A13573   1.795  16.160   7.015 -0.2149 -0.4917 -0.1158
  924YOPE   C4A13574   1.411  15.904   7.123 -0.0413  0.1583  0.0830
  924YOPE   C1B13575   2.448  16.963   6.461 -0.3932  0.1365 -0.1975
  924YOPE   C2B13576   2.288  17.313   6.708 -0.1614  0.0998 -0.1858
  924YOPE   D3B13577   2.158  17.397   7.207 -0.3946 -0.3465 -0.2701
  924YOPE   C4B13578   2.044  17.549   7.613 -0.2906  0.3309 -0.0082
  925POPC   NC313579   0.857   7.333   5.544  0.2361  0.1280 -0.0155
  925POPC   PO413580   0.944   7.815   5.488 -0.0901  0.1276  0.1431
  925POPC   GL113581   0.722   7.696   5.794  0.1426 -0.2203  0.0560
  925POPC   GL213582   0.451   7.591   5.802 -0.2244  0.0073 -0.3443
  925POPC   C1A13583   0.771   7.671   6.212 -0.0474 -0.3020 -0.3355
  925POPC   D2A13584   0.665   7.478   6.666  0.2373  0.0096  0.1957
  925POPC   C3A13585   0.940   7.683   6.899  0.1370 -0.0599 -0.0143
  925POPC   C4A13586   1.073   7.804   7.241 -0.3448 -0.0648 -0.0099
  925POPC   C1B13587   0.397   7.324   6.189 -0.1201  0.1227 -0.0214
  925POPC   C2B13588   0.325   7.009   6.510  0.3602 -0.2950 -0.0855
  925POPC   C3B13589   0.085   6.960   6.883  0.0069 -0.0584  0.3662
  925POPC   C4B13590   0.227   6.654   7.227 -0.2263  0.0422 -0.3293
  926POPC   NC313591  14.616  11.811   5.658  0.1478 -0.1886  0.1692
  926POPC   PO413592  14.633  11.943   6.135 -0.0011 -0.1067  0.4563
  926POPC   GL113593  14.313  12.118   6.400  0.0508  0.0105 -0.0033
  926POPC   GL213594  14.452  12.282   6.597  0.3309  0.1378 -0.3240
  926POPC   C1A13595  13.872  12.160   6.498  0.2330  0.0989 -0.2403
  926POPC   D2A13596  13.548  12.159   6.799 -0.0732 -0.0468 -0.0448
  926POPC   C3A13597  13.658  12.147   7.189  0.0609  0.2485  0.0591
  926POPC   C4A13598  13.839  12.104   7.596  0.1000 -0.3246  0.1718
  926POPC   C1B13599  14.096  12.378   6.885  0.0182  0.1870 -0.3336
  926POPC   C2B13600  13.870  12.541   7.241 -0.2095 -0.1260 -0.0713
  926POPC   C3B13601  13.908  12.696   7.649  0.0453 -0.0659 -0.1218
  926POPC   C4B13602  13.969  12.702   8.045  0.1256 -0.2900  0.1015
  927POPC   NC313603  13.784  10.363   5.731 -0.0025 -0.0800  0.2598
  927POPC   PO413604  13.981  10.678   5.724 -0.1734  0.0607 -0.1962
  927POPC   GL113605  14.046  10.698   6.172 -0.1007  0.2971  0.1032
  927POPC   GL213606  13.962  10.350   6.157  0.0779  0.0761  0.0512
  927POPC   C1A13607  13.770  10.828   6.420  0.2748  0.2418 -0.1898
  927POPC   D2A13608  13.886  11.013   6.814  0.2319  0.2759  0.0889
  927POPC   C3A13609  13.854  11.199   7.203 -0.0305  0.2255  0.2633
  927POPC   C4A13610  13.501  11.190   7.401  0.2375 -0.0408 -0.0459
  927POPC   C1B13611  13.866  10.418   6.632  0.2274 -0.4328 -0.3778
  927POPC   C2B13612  13.477  10.617   6.824  0.0039 -0.0587  0.0098
  927POPC   C3B13613  13.186  10.956   6.951  0.1107  0.2518  0.0048
  927POPC   C4B13614  13.038  11.058   7.391  0.0861  0.0232 -0.0182
  928POPC   NC313615   3.206  13.016   6.234  0.0368  0.0336  0.0570
  928POPC   PO413616   3.315  13.387   5.887 -0.1124 -0.2013  0.0914
  928POPC   GL113617   3.471  13.550   6.154  0.1765  0.0831  0.3813
  928POPC   GL213618   3.615  13.278   6.314  0.3201  0.0473  0.5054
  928POPC   C1A13619   3.682  13.864   6.515 -0.1355 -0.0622 -0.2643
  928POPC   D2A13620   4.085  14.231   6.658  0.1128 -0.2078 -0.1663
  928POPC   C3A13621   4.320  14.147   7.065  0.1341  0.2341  0.0197
  928POPC   C4A13622   4.162  14.288   7.472 -0.2423 -0.0856 -0.0110
  928POPC   C1B13623   3.610  13.269   6.691  0.0992  0.3326 -0.1506
  928POPC   C2B13624   3.630  13.523   6.973  0.3652 -0.1183 -0.0961
  928POPC   C3B13625   3.421  13.682   7.264  0.0673 -0.2011 -0.1558
  928POPC   C4B13626   3.299  13.760   7.654 -0.3016 -0.1318 -0.1631
  929POPC   NC313627  11.639  15.230   6.207 -0.2311 -0.0744  0.1855
  929POPC   PO413628  12.195  15.190   6.273 -0.3515 -0.2679  0.1919
  929POPC   GL113629  12.095  15.053   6.665  0.0494  0.1875  0.0796
  929POPC   GL213630  12.185  14.750   6.828 -0.0422 -0.1338 -0.1299
  929POPC   C1A13631  12.144  15.126   7.126  0.0528 -0.0130  0.1028
  929POPC   D2A13632  12.172  15.476   7.329 -0.0443 -0.0128  0.1513
  929POPC   C3A13633  12.575  15.399   7.678  0.1117  0.3737  0.0823
  929POPC   C4A13634  12.735  15.451   8.054  0.1423  0.2269  0.3562
  929POPC   C1B13635  11.870  14.680   7.081  0.0166 -0.3887  0.0881
  929POPC   C2B13636  11.438  14.887   7.010 -0.1258 -0.0629  0.2603
  929POPC   C3B13637  11.058  14.968   7.061  0.0710  0.2125 -0.0965
  929POPC   C4B13638  10.714  14.864   6.967 -0.0224  0.3197  0.0057
  930POPC   NC313639   2.283   1.073   5.956  0.0048  0.1546 -0.1442
  930POPC   PO413640   2.602   0.828   6.133  0.0540  0.2457 -0.2100
  930POPC   GL113641   2.553   0.922   6.481 -0.2350  0.0895 -0.0666
  930POPC   GL213642   2.260   1.204   6.500 -0.2237 -0.0876  0.0727
  930POPC   C1A13643   2.816   0.944   6.910  0.1124 -0.0247 -0.1904
  930POPC   D2A13644   2.913   1.219   7.181 -0.1794  0.3214 -0.0280
  930POPC   C3A13645   2.614   1.626   7.234 -0.1814  0.0495  0.0013
  930POPC   C4A13646   2.338   1.569   7.577  0.3749 -0.1251  0.1493
  930POPC   C1B13647   2.360   1.291   6.956 -0.0193  0.0925  0.1967
  930POPC   C2B13648   2.500   1.152   7.384  0.1967 -0.0983  0.2823
  930POPC   C3B13649   2.427   0.929   7.726 -0.0903 -0.1154  0.1314
  930POPC   C4B13650   2.346   0.436   7.843  0.0160  0.1233 -0.1093
  931POPC   NC313651  14.843   3.130   6.343 -0.4699 -0.2418  0.1238
  931POPC   PO413652  14.851   3.572   6.281  0.1304 -0.1487  0.2247
  931POPC   GL113653  14.724   3.546   6.730 -0.1359  0.1528  0.2208
  931POPC   GL213654  14.463   3.197   6.730 -0.2367 -0.0733  0.0603
  931POPC   C1A13655  14.614   3.543   7.134  0.0665 -0.1140  0.1751
  931POPC   D2A13656  14.539   3.655   7.594 -0.2093  0.0154 -0.2585
  931POPC   C3A13657  14.109   3.569   7.748 -0.2104 -0.1822 -0.2367
  931POPC   C4A13658  13.827   3.352   7.784  0.1083 -0.0689 -0.0786
  931POPC   C1B13659  14.337   2.940   7.040 -0.0022 -0.3202 -0.3883
  931POPC   C2B13660  14.418   2.609   7.307  0.0897 -0.1891  0.2396
  931POPC   C3B13661  14.699   2.670   7.670 -0.1538  0.1108 -0.0712
  931POPC   C4B13662  14.816   2.732   8.023  0.0221 -0.1427 -0.3249
  932POPC   NC313663  10.158   1.547   6.170 -0.3873 -0.0028 -0.2218
  932POPC   PO413664  10.608   1.696   6.378  0.2149  0.4363 -0.1144
  932POPC   GL113665  10.640   1.591   6.794  0.1470  0.1283 -0.3089
  932POPC   GL213666  10.866   1.347   6.667 -0.0503 -0.0864  0.0371
  932POPC   C1A13667  10.446   1.407   7.165 -0.0084  0.2760  0.1138
  932POPC   D2A13668  10.417   1.533   7.560  0.1571  0.0822  0.2343
  932POPC   C3A13669   9.877   1.437   7.530 -0.2930  0.2217 -0.3334
  932POPC   C4A13670   9.575   1.693   7.321 -0.0391  0.0496 -0.1841
  932POPC   C1B13671  11.064   1.452   7.021 -0.1973  0.1668 -0.0949
  932POPC   C2B13672  11.340   1.774   7.176 -0.0460  0.2222  0.0165
  932POPC   C3B13673  11.209   1.921   7.604 -0.0983  0.0561  0.0064
  932POPC   C4B13674  10.919   2.061   7.850  0.1137  0.0075  0.2208
  933POPC   NC313675  10.429   5.209   6.072  0.0902 -0.0259 -0.0562
  933POPC   PO413676  10.652   5.415   6.414  0.6227  0.2165 -0.0756
  933POPC   GL113677  10.656   5.158   6.827  0.0470 -0.1144  0.3275
  933POPC   GL213678  10.955   5.299   6.972  0.0885 -0.1662  0.0038
  933POPC   C1A13679  10.682   5.015   7.223 -0.1855 -0.0126  0.0509
  933POPC   D2A13680  10.909   5.183   7.567 -0.0026  0.0697  0.0273
  933POPC   C3A13681  11.094   5.111   8.072 -0.0653 -0.0447  0.0205
  933POPC   C4A13682  11.488   4.961   8.360 -0.2753 -0.0727 -0.1857
  933POPC   C1B13683  11.076   5.714   7.296 -0.1056  0.1273 -0.1632
  933POPC   C2B13684  11.196   5.857   7.714  0.1071 -0.1196  0.2751
  933POPC   C3B13685  10.775   6.027   7.854 -0.2863 -0.2192  0.2557
  933POPC   C4B13686  10.471   6.323   7.829  0.1622  0.2277 -0.2645
  934POPC   NC313687   9.275   2.820   5.824  0.2309  0.3485 -0.2244
  934POPC   PO413688   8.987   3.086   6.113  0.0344 -0.2222 -0.0450
  934POPC   GL113689   8.885   2.937   6.489 -0.1067  0.0980  0.0446
  934POPC   GL213690   9.144   2.878   6.618  0.0506 -0.2500  0.0664
  934POPC   C1A13691   8.540   3.016   6.846  0.1132 -0.1282 -0.1867
  934POPC   D2A13692   8.372   2.985   7.272 -0.0078 -0.0546 -0.2317
  934POPC   C3A13693   8.472   3.000   7.623  0.1201  0.1416 -0.4409
  934POPC   C4A13694   8.451   3.335   7.872 -0.4153  0.1511 -0.1958
  934POPC   C1B13695   8.999   3.192   6.932  0.1420  0.0300  0.3345
  934POPC   C2B13696   8.856   3.098   7.324  0.5550  0.1524  0.1431
  934POPC   C3B13697   8.928   3.284   7.719 -0.2954  0.1282  0.3150
  934POPC   C4B13698   9.179   3.596   7.886 -0.0229  0.5030  0.2995
  935POPC   NC313699   9.313  16.116   6.055  0.0193 -0.1043  0.2805
  935POPC   PO413700   9.541  16.243   6.332  0.1626 -0.1962  0.0421
  935POPC   GL113701   9.443  16.110   6.682  0.0434  0.0008 -0.0601
  935POPC   GL213702   9.157  16.310   6.858 -0.0149  0.0183 -0.0304
  935POPC   C1A13703   9.570  15.870   6.911 -0.1629 -0.3250  0.0127
  935POPC   D2A13704   9.802  15.852   7.162  0.1498 -0.1175  0.0638
  935POPC   C3A13705   9.827  15.899   7.564 -0.0496  0.1435  0.1037
  935POPC   C4A13706  10.123  15.934   7.722 -0.2422 -0.3905 -0.0526
  935POPC   C1B13707   9.472  16.280   7.196 -0.2460  0.0593 -0.0768
  935POPC   C2B13708   9.588  16.363   7.584  0.2565 -0.0851 -0.2769
  935POPC   C3B13709   9.419  16.544   7.951 -0.0379  0.2660 -0.1244
  935POPC   C4B13710   9.316  16.722   8.297  0.1045  0.0722  0.1790
  936POPC   NC313711   1.569  13.245   5.657 -0.0837  0.0564 -0.0852
  936POPC   PO413712   1.148  13.015   5.706  0.1516  0.0869  0.0819
  936POPC   GL113713   1.209  13.023   6.093 -0.0206  0.2176 -0.0458
  936POPC   GL213714   1.521  13.214   6.167 -0.0520  0.1253 -0.1188
  936POPC   C1A13715   1.200  12.791   6.426  0.3648 -0.0387  0.2473
  936POPC   D2A13716   1.227  12.835   6.804 -0.2840  0.0900 -0.3782
  936POPC   C3A13717   1.139  13.021   7.202 -0.0663  0.0116  0.1545
  936POPC   C4A13718   0.904  13.064   7.496  0.3580 -0.3424 -0.2864
  936POPC   C1B13719   1.428  13.342   6.651  0.1342  0.2018  0.0778
  936POPC   C2B13720   1.360  13.403   7.093  0.0030 -0.1670  0.3037
  936POPC   C3B13721   1.362  13.323   7.555  0.1488  0.2493 -0.1539
  936POPC   C4B13722   1.279  13.314   7.972  0.0420  0.1330 -0.0165
  937POPC   NC313723  10.179   3.405   6.136  0.1835  0.1567  0.2281
  937POPC   PO413724   9.783   3.236   6.142 -0.0633  0.0550 -0.1706
  937POPC   GL113725   9.816   3.361   6.565  0.0669 -0.1578  0.0382
  937POPC   GL213726  10.059   3.410   6.638 -0.4182  0.1105  0.0113
  937POPC   C1A13727   9.516   3.243   6.839 -0.5741 -0.2376 -0.3686
  937POPC   D2A13728   9.490   3.040   7.256  0.3752  0.0263 -0.1555
  937POPC   C3A13729   9.718   3.304   7.567  0.0840 -0.0064  0.3129
  937POPC   C4A13730  10.079   3.218   7.718  0.3716 -0.1155 -0.0571
  937POPC   C1B13731   9.962   3.478   7.082  0.1593  0.1429  0.1152
  937POPC   C2B13732  10.157   3.745   7.430 -0.2400  0.2436  0.0081
  937POPC   C3B13733  10.431   4.152   7.521 -0.2302  0.0145 -0.1183
  937POPC   C4B13734  10.606   4.583   7.640  0.0738  0.1234  0.0193
  938POPC   NC313735   6.781   5.765   5.754  0.2096 -0.0219  0.2562
  938POPC   PO413736   7.126   5.691   5.894 -0.0681 -0.1690  0.4584
  938POPC   GL113737   7.244   5.767   6.311  0.5176  0.2519 -0.0465
  938POPC   GL213738   7.231   6.000   6.494  0.1426 -0.1995 -0.2083
  938POPC   C1A13739   7.411   5.584   6.703 -0.2414  0.0153  0.0282
  938POPC   D2A13740   7.638   5.575   7.060  0.0896 -0.0337  0.5530
  938POPC   C3A13741   7.489   5.561   7.441 -0.3029  0.0026  0.0767
  938POPC   C4A13742   7.410   5.421   7.792  0.0011 -0.1202 -0.2123
  938POPC   C1B13743   7.474   6.065   6.901 -0.0283  0.1245 -0.0240
  938POPC   C2B13744   7.575   6.092   7.276  0.1175 -0.0613  0.1239
  938POPC   C3B13745   7.778   5.889   7.760 -0.0548 -0.0806  0.1110
  938POPC   C4B13746   7.840   5.703   8.241 -0.0122 -0.0693 -0.0594
  939POPC   NC313747   5.205  11.377   5.765 -0.0555  0.0326 -0.3078
  939POPC   PO413748   4.992  11.771   5.999  0.0967 -0.1722 -0.1672
  939POPC   GL113749   4.990  11.938   6.337  0.0925  0.1301  0.0896
  939POPC   GL213750   4.610  12.047   6.308  0.0673  0.0013  0.1748
  939POPC   C1A13751   4.846  11.964   6.799 -0.0973  0.1607 -0.0005
  939POPC   D2A13752   5.105  11.865   7.045  0.0484  0.2537  0.0256
  939POPC   C3A13753   5.185  11.902   7.483  0.1615 -0.0276  0.3698
  939POPC   C4A13754   5.628  11.922   7.642 -0.1584 -0.0526 -0.1547
  939POPC   C1B13755   4.569  11.549   6.409  0.0573  0.1397  0.0313
  939POPC   C2B13756   4.213  11.232   6.576  0.0756  0.1079 -0.1806
  939POPC   C3B13757   3.922  11.370   6.814 -0.2536  0.2006 -0.4333
  939POPC   C4B13758   3.694  11.224   7.129 -0.0820  0.1297  0.0170
  940POPC   NC313759   0.319  14.464   5.153  0.0333 -0.0334  0.2152
  940POPC   PO413760   0.248  14.535   5.734  0.1387  0.0346 -0.1158
  940POPC   GL113761   0.431  14.712   6.085 -0.1976  0.0268 -0.0286
  940POPC   GL213762   0.188  14.826   6.188  0.3400  0.0965  0.0484
  940POPC   C1A13763   0.628  14.583   6.577  0.0094 -0.4232  0.2873
  940POPC   D2A13764   0.829  14.677   6.934 -0.4394  0.0867  0.1960
  940POPC   C3A13765   0.788  14.405   7.269 -0.1141 -0.0305 -0.0763
  940POPC   C4A13766   0.932  13.978   7.428 -0.1347 -0.2303  0.0509
  940POPC   C1B13767   0.117  14.747   6.512 -0.4265  0.0176 -0.1870
  940POPC   C2B13768  -0.119  14.664   6.920  0.0735  0.0077  0.1501
  940POPC   C3B13769  -0.107  14.509   7.267  0.2003 -0.0620  0.0053
  940POPC   C4B13770  -0.034  14.347   7.667  0.1058 -0.0847 -0.0451
  941POPC   NC313771  15.635  13.202   5.768  0.2831 -0.1302 -0.0838
  941POPC   PO413772  15.251  13.337   5.956  0.3141 -0.1551 -0.4006
  941POPC   GL113773  15.465  13.560   6.216 -0.3249  0.0714  0.0160
  941POPC   GL213774  15.491  13.809   6.069 -0.2848 -0.3030  0.2079
  941POPC   C1A13775  15.450  13.646   6.586 -0.1514 -0.0613  0.1837
  941POPC   D2A13776  15.487  13.935   6.927 -0.3008 -0.0767 -0.0580
  941POPC   C3A13777  15.288  13.901   7.394  0.2257 -0.1668 -0.2455
  941POPC   C4A13778  14.754  13.873   7.499  0.2969 -0.1946  0.0314
  941POPC   C1B13779  15.375  14.150   6.338 -0.1894 -0.0497  0.1889
  941POPC   C2B13780  15.442  14.455   6.680  0.1158  0.2487 -0.0332
  941POPC   C3B13781  15.396  14.439   7.121 -0.2130 -0.0470 -0.0485
  941POPC   C4B13782  15.687  14.408   7.433  0.4633  0.0252 -0.2220
  942POPC   NC313783  17.253   5.038   5.602  0.2555 -0.2494  0.1427
  942POPC   PO413784  16.904   4.779   5.894  0.3825 -0.1533 -0.2064
  942POPC   GL113785  16.883   4.550   6.234  0.0073  0.1481  0.1604
  942POPC   GL213786  16.607   4.651   6.393 -0.0458 -0.1118  0.5908
  942POPC   C1A13787  16.871   4.399   6.690  0.1803  0.2312  0.2208
  942POPC   D2A13788  16.839   4.440   7.061  0.0120 -0.0283 -0.2261
  942POPC   C3A13789  17.199   4.187   7.329  0.3120 -0.3836 -0.0069
  942POPC   C4A13790  17.308   4.384   7.771  0.0055 -0.1269  0.0658
  942POPC   C1B13791  16.794   4.943   6.707  0.0961  0.2141 -0.1671
  942POPC   C2B13792  16.888   4.987   7.073 -0.2421  0.1871 -0.2397
  942POPC   C3B13793  16.717   4.979   7.564 -0.3592 -0.1297 -0.0424
  942POPC   C4B13794  16.767   4.786   7.925 -0.1674  0.1754 -0.0112
  943POPC   NC313795   1.064  12.517   5.575  0.1350  0.1641 -0.0122
  943POPC   PO413796   1.302  12.135   5.726 -0.0676  0.0521  0.1893
  943POPC   GL113797   1.300  12.206   6.045 -0.1443  0.0506  0.0975
  943POPC   GL213798   1.090  12.432   6.144 -0.1347  0.2183  0.2724
  943POPC   C1A13799   1.485  11.908   6.447  0.4243 -0.0658  0.1601
  943POPC   D2A13800   1.364  11.683   6.884 -0.1473  0.5111  0.2644
  943POPC   C3A13801   1.487  11.444   7.312 -0.1313  0.0524 -0.0429
  943POPC   C4A13802   1.372  11.489   7.785 -0.2115 -0.0766 -0.2249
  943POPC   C1B13803   1.039  12.143   6.470  0.4139  0.0650 -0.1949
  943POPC   C2B13804   1.020  11.751   6.492  0.0555 -0.2107  0.3575
  943POPC   C3B13805   1.299  11.384   6.440 -0.0715 -0.2827 -0.0273
  943POPC   C4B13806   1.668  11.243   6.741 -0.1503  0.1196  0.0827
  944POPC   NC313807   2.116   3.955   5.785  0.1570  0.1760 -0.2224
  944POPC   PO413808   2.501   4.154   5.882  0.0976  0.1464 -0.2587
  944POPC   GL113809   2.341   4.067   6.265 -0.0768  0.1519 -0.1383
  944POPC   GL213810   2.292   4.356   6.249 -0.1178  0.0462  0.0865
  944POPC   C1A13811   2.398   4.185   6.675  0.1823 -0.2927 -0.0759
  944POPC   D2A13812   2.328   4.239   7.042 -0.0333  0.2790  0.1735
  944POPC   C3A13813   2.555   4.123   7.352  0.3207  0.4185 -0.1260
  944POPC   C4A13814   2.751   3.823   7.539 -0.0315  0.1952 -0.1219
  944POPC   C1B13815   2.626   4.555   6.466  0.1067 -0.0091 -0.1267
  944POPC   C2B13816   3.000   4.562   6.678  0.1604  0.2295  0.0225
  944POPC   C3B13817   3.216   4.627   7.005  0.3925 -0.3751 -0.1987
  944POPC   C4B13818   3.580   4.722   7.215 -0.2341 -0.1692  0.1834
  945POPC   NC313819  11.062  14.943   5.623  0.1608 -0.5463  0.0465
  945POPC   PO413820  11.139  15.240   5.978 -0.2669 -0.2772 -0.2023
  945POPC   GL113821  11.199  15.150   6.460 -0.2797 -0.0188 -0.0572
  945POPC   GL213822  11.494  15.382   6.683 -0.2121  0.1349 -0.2538
  945POPC   C1A13823  11.128  14.718   6.637  0.0452  0.0280 -0.2720
  945POPC   D2A13824  11.309  14.414   6.932 -0.1946  0.1572  0.1507
  945POPC   C3A13825  11.359  14.546   7.397 -0.1049  0.1839  0.4072
  945POPC   C4A13826  11.725  14.532   7.634 -0.0473 -0.0955 -0.1826
  945POPC   C1B13827  11.685  15.395   7.067  0.2467 -0.0768 -0.4115
  945POPC   C2B13828  11.727  15.159   7.433 -0.1472 -0.0067  0.3210
  945POPC   C3B13829  11.325  14.971   7.646  0.0278 -0.1116  0.0878
  945POPC   C4B13830  11.224  14.727   8.044 -0.1760  0.0759  0.1527
  946POPC   NC313831   5.940   6.437   5.529  0.1058 -0.0746 -0.1821
  946POPC   PO413832   5.672   6.728   5.745  0.0666 -0.3061 -0.0511
  946POPC   GL113833   5.935   6.765   6.141 -0.1223 -0.3623  0.1483
  946POPC   GL213834   5.975   7.086   6.199  0.0797 -0.2235 -0.2417
  946POPC   C1A13835   6.100   6.834   6.594 -0.2834  0.1628 -0.3430
  946POPC   D2A13836   6.266   7.270   6.772  0.0038 -0.0575 -0.3536
  946POPC   C3A13837   6.373   7.414   7.189  0.4556  0.0034 -0.1414
  946POPC   C4A13838   6.623   7.190   7.436 -0.1633 -0.2834  0.4211
  946POPC   C1B13839   5.863   7.303   6.563  0.2085 -0.1772  0.3880
  946POPC   C2B13840   5.818   7.156   7.059  0.0373  0.0115 -0.2911
  946POPC   C3B13841   6.033   7.209   7.557 -0.0295 -0.2458 -0.0015
  946POPC   C4B13842   6.283   7.492   7.806  0.2222 -0.4132 -0.0808
  947POPC   NC313843   1.592  14.732   5.549  0.0442  0.0361  0.5002
  947POPC   PO413844   1.655  15.208   5.627  0.0041 -0.0257 -0.3918
  947POPC   GL113845   1.612  15.049   6.120 -0.0496  0.1088  0.2294
  947POPC   GL213846   1.346  14.912   5.944 -0.0230 -0.0212  0.0418
  947POPC   C1A13847   1.748  15.226   6.520  0.2115 -0.0976  0.3604
  947POPC   D2A13848   1.553  15.422   6.833 -0.1882  0.1989  0.3182
  947POPC   C3A13849   1.499  15.400   7.265  0.2170 -0.0655  0.1991
  947POPC   C4A13850   1.549  15.286   7.754 -0.2075 -0.2242  0.0881
  947POPC   C1B13851   1.169  15.135   6.299  0.3094 -0.0143 -0.0902
  947POPC   C2B13852   1.106  14.938   6.649 -0.0576 -0.1374 -0.3664
  947POPC   C3B13853   1.057  15.068   7.148  0.1662 -0.2758 -0.1125
  947POPC   C4B13854   0.952  14.992   7.585  0.1756 -0.3091  0.0155
  948POPC   NC313855   5.747   2.767   5.691 -0.1884  0.1311 -0.1535
  948POPC   PO413856   5.625   2.897   6.106 -0.1006 -0.0402 -0.1186
  948POPC   GL113857   5.374   3.001   6.402 -0.1072  0.4908 -0.0947
  948POPC   GL213858   5.052   3.069   6.299 -0.1720 -0.1101 -0.1671
  948POPC   C1A13859   5.452   3.369   6.723  0.0219 -0.0405  0.2208
  948POPC   D2A13860   5.626   3.363   7.167  0.0109 -0.1892 -0.2156
  948POPC   C3A13861   5.863   3.078   7.415  0.2694  0.2572 -0.0728
  948POPC   C4A13862   6.097   2.783   7.099 -0.0937  0.1407 -0.0217
  948POPC   C1B13863   4.919   3.217   6.653  0.1260 -0.3878  0.0341
  948POPC   C2B13864   5.064   3.519   7.013 -0.0103  0.4514  0.2867
  948POPC   C3B13865   5.330   3.827   7.155  0.0417 -0.0703 -0.0055
  948POPC   C4B13866   5.512   3.875   7.529 -0.2754  0.3204 -0.4631
  949POPC   NC313867   2.955  12.528   5.637 -0.1527 -0.2112 -0.0748
  949POPC   PO413868   2.943  12.577   6.092 -0.1794  0.1678 -0.3060
  949POPC   GL113869   2.803  12.707   6.409  0.2835  0.2759  0.0558
  949POPC   GL213870   2.737  13.016   6.438 -0.3295  0.1983  0.2471
  949POPC   C1A13871   2.543  12.545   6.781  0.0884  0.0651 -0.1049
  949POPC   D2A13872   2.517  12.105   6.867  0.0654  0.3473 -0.0438
  949POPC   C3A13873   2.630  11.729   6.775 -0.0145  0.0267 -0.0737
  949POPC   C4A13874   2.773  11.397   6.833 -0.1927  0.0493 -0.0887
  949POPC   C1B13875   3.071  12.878   6.807 -0.2695 -0.2131 -0.0765
  949POPC   C2B13876   3.332  13.049   7.050  0.3769 -0.0187  0.0152
  949POPC   C3B13877   3.725  13.066   7.156  0.0897 -0.0741 -0.1799
  949POPC   C4B13878   4.067  13.234   6.880  0.0550 -0.1054  0.1661
  950POPC   NC313879  12.729  18.034   5.801 -0.1375 -0.2037 -0.0993
  950POPC   PO413880  12.702  17.637   5.826  0.2101  0.0767  0.1806
  950POPC   GL113881  12.442  17.785   6.155  0.3494  0.2870  0.0887
  950POPC   GL213882  12.271  17.576   6.374  0.3000 -0.1640 -0.1604
  950POPC   C1A13883  12.585  17.886   6.567 -0.1857  0.0051  0.3196
  950POPC   D2A13884  13.012  17.857   6.715 -0.2189 -0.2739 -0.0607
  950POPC   C3A13885  13.245  17.487   6.805 -0.1008 -0.0984  0.0929
  950POPC   C4A13886  13.100  17.094   6.740  0.0520 -0.0818 -0.0565
  950POPC   C1B13887  12.125  17.662   6.712 -0.2194  0.0316 -0.3512
  950POPC   C2B13888  12.143  17.618   7.212 -0.2002 -0.1164 -0.0040
  950POPC   C3B13889  12.303  17.384   7.573 -0.0375  0.2048 -0.0435
  950POPC   C4B13890  12.184  17.201   7.825  0.1176  0.2151  0.2540
  951POPC   NC313891  10.644   5.964   6.352 -0.1798 -0.1028  0.0680
  951POPC   PO413892  10.949   5.825   6.679  0.1719  0.0573  0.4488
  951POPC   GL113893  10.597   5.769   6.858 -0.2506  0.1075  0.4584
  951POPC   GL213894  10.174   5.644   6.779 -0.2024  0.0069 -0.0534
  951POPC   C1A13895  10.487   5.528   7.189  0.2834  0.2736  0.0676
  951POPC   D2A13896  10.093   5.640   7.286 -0.1473 -0.0081 -0.1247
  951POPC   C3A13897   9.753   5.426   7.471  0.0993  0.2063  0.1342
  951POPC   C4A13898   9.742   5.028   7.672 -0.1528  0.2285 -0.0747
  951POPC   C1B13899   9.735   5.784   6.933 -0.2437  0.0869  0.2682
  951POPC   C2B13900   9.569   5.945   7.344  0.2106  0.0118  0.1452
  951POPC   C3B13901   9.610   5.831   7.833 -0.1066  0.0353 -0.0166
  951POPC   C4B13902   9.644   5.805   8.236  0.0073 -0.0252 -0.1088
  952POPC   NC313903   3.987   2.917   5.947 -0.0583 -0.2518  0.1989
  952POPC   PO413904   4.205   2.713   6.244 -0.0748 -0.3136  0.2012
  952POPC   GL113905   4.200   2.520   6.652  0.1897 -0.0407  0.0422
  952POPC   GL213906   4.151   2.223   6.646 -0.2955 -0.0255  0.2490
  952POPC   C1A13907   4.462   2.569   7.054 -0.0299 -0.1712 -0.1700
  952POPC   D2A13908   4.532   2.675   7.493 -0.0486 -0.0805 -0.1429
  952POPC   C3A13909   4.785   2.602   7.813 -0.1546  0.0928  0.1707
  952POPC   C4A13910   5.268   2.467   7.846  0.1206 -0.1809  0.0977
  952POPC   C1B13911   4.026   2.385   7.149 -0.0115 -0.1733 -0.1765
  952POPC   C2B13912   3.918   2.407   7.506 -0.1298  0.4819 -0.0401
  952POPC   C3B13913   3.787   2.348   7.923 -0.2637 -0.1467  0.0170
  952POPC   C4B13914   3.718   2.208   8.360  0.1938 -0.0608 -0.1422
  953POPC   NC313915   4.556   9.107   5.839  0.1924 -0.0501  0.2920
  953POPC   PO413916   4.804   8.799   5.676 -0.4057 -0.2265 -0.1145
  953POPC   GL113917   4.832   8.482   6.002  0.0537 -0.0839  0.2595
  953POPC   GL213918   4.623   8.226   6.084  0.1618 -0.2477 -0.0298
  953POPC   C1A13919   4.841   8.850   6.420 -0.1379 -0.1485 -0.0232
  953POPC   D2A13920   4.526   9.068   6.625  0.4828  0.1821  0.2925
  953POPC   C3A13921   4.033   9.201   6.786  0.0916 -0.0105  0.0483
  953POPC   C4A13922   3.915   9.304   7.150  0.3174  0.0627 -0.1082
  953POPC   C1B13923   4.706   8.332   6.526  0.1374  0.2910  0.1150
  953POPC   C2B13924   4.639   8.605   6.871 -0.1967  0.0030 -0.1992
  953POPC   C3B13925   4.590   8.960   7.090  0.1241  0.1457 -0.3051
  953POPC   C4B13926   4.688   9.017   7.552  0.0132 -0.0711 -0.0319
  954POPC   NC313927  11.494   8.196   5.482 -0.1072  0.0873  0.0904
  954POPC   PO413928  11.722   8.128   5.742 -0.1370 -0.0948 -0.1405
  954POPC   GL113929  11.612   8.203   6.202 -0.0793  0.0726  0.0908
  954POPC   GL213930  11.717   7.943   6.358  0.0362  0.1571 -0.2228
  954POPC   C1A13931  11.759   8.390   6.537  0.2998  0.0544 -0.0420
  954POPC   D2A13932  11.663   8.360   6.964 -0.1518 -0.0223 -0.0171
  954POPC   C3A13933  11.671   7.974   7.309 -0.1073 -0.5295 -0.2764
  954POPC   C4A13934  11.755   7.891   7.779 -0.0043 -0.0198 -0.1216
  954POPC   C1B13935  12.018   7.845   6.751 -0.2607 -0.1924  0.0049
  954POPC   C2B13936  12.137   7.999   7.092 -0.2955 -0.0710  0.1412
  954POPC   C3B13937  12.454   7.904   7.403 -0.0488  0.0052  0.2240
  954POPC   C4B13938  12.616   8.293   7.671 -0.0190 -0.1137  0.1009
  955POPC   NC313939   7.809   5.145   5.842 -0.2320  0.2785 -0.0234
  955POPC   PO413940   8.215   5.180   5.956  0.0398 -0.2539 -0.1015
  955POPC   GL113941   7.900   5.410   6.241  0.0762 -0.0687 -0.1901
  955POPC   GL213942   7.514   5.372   6.286  0.1223  0.1908  0.2665
  955POPC   C1A13943   7.951   5.488   6.648  0.1804  0.1249 -0.0129
  955POPC   D2A13944   8.047   5.334   7.001  0.0102 -0.3727 -0.2428
  955POPC   C3A13945   8.249   5.285   7.258  0.0513 -0.0813  0.1416
  955POPC   C4A13946   8.329   5.187   7.650 -0.0308 -0.0078  0.0230
  955POPC   C1B13947   7.221   5.080   6.472  0.2461 -0.2755  0.0352
  955POPC   C2B13948   7.382   4.807   6.644  0.0496  0.0220  0.0491
  955POPC   C3B13949   7.529   4.543   6.940  0.1159 -0.0682 -0.0167
  955POPC   C4B13950   7.557   4.586   7.348  0.0032  0.1669  0.0331
  956POPC   NC313951  17.698   9.135   5.755  0.2004 -0.0792  0.1876
  956POPC   PO413952  17.963   8.916   5.997  0.0401 -0.0879 -0.1057
  956POPC   GL113953  17.803   8.666   6.367  0.0139 -0.0660 -0.3070
  956POPC   GL213954  17.796   8.327   6.471  0.1824  0.2212  0.0875
  956POPC   C1A13955  17.879   8.692   6.820 -0.0798  0.1898  0.1646
  956POPC   D2A13956  17.961   8.724   7.201  0.1431 -0.1296  0.0968
  956POPC   C3A13957  18.169   8.887   7.593 -0.2702  0.0783 -0.1561
  956POPC   C4A13958  18.465   8.860   7.905 -0.3985 -0.2155 -0.3527
  956POPC   C1B13959  17.725   7.836   6.529 -0.0144  0.0525  0.0816
  956POPC   C2B13960  17.910   7.674   6.961  0.1009  0.1079  0.2071
  956POPC   C3B13961  18.139   7.389   7.226 -0.1291 -0.0510  0.0676
  956POPC   C4B13962  18.273   7.540   7.662  0.2063 -0.2820  0.1406
  957POPC   NC313963  17.642  12.485   5.921  0.1800 -0.0345  0.1090
  957POPC   PO413964  17.592  12.070   6.005 -0.1863 -0.1728  0.1085
  957POPC   GL113965  17.701  12.034   6.387 -0.1094 -0.2614  0.1410
  957POPC   GL213966  18.047  12.119   6.415 -0.0769 -0.1357 -0.0030
  957POPC   C1A13967  17.754  12.029   6.892 -0.1308  0.3513 -0.1521
  957POPC   D2A13968  17.763  11.962   7.332 -0.1865 -0.1204  0.1143
  957POPC   C3A13969  18.017  11.653   7.540  0.2842  0.1359  0.5277
  957POPC   C4A13970  18.281  11.774   7.849 -0.5098 -0.0380 -0.3597
  957POPC   C1B13971  18.288  11.750   6.617 -0.1103  0.2315  0.1467
  957POPC   C2B13972  18.271  11.732   7.086  0.1774  0.0757 -0.1826
  957POPC   C3B13973  18.548  11.612   7.479 -0.0139 -0.3211 -0.0122
  957POPC   C4B13974  18.667  11.421   7.790 -0.0271 -0.0211 -0.2093
  958POPC   NC313975  14.914  16.914   5.226  0.3304 -0.3910 -0.1800
  958POPC   PO413976  14.775  16.810   5.694  0.1244  0.0780  0.1883
  958POPC   GL113977  14.898  16.509   6.108 -0.0629  0.2118  0.0564
  958POPC   GL213978  14.940  16.599   6.375 -0.0125 -0.5149  0.2155
  958POPC   C1A13979  14.865  16.127   6.319 -0.1027 -0.0608  0.0708
  958POPC   D2A13980  15.031  15.755   6.527  0.2715  0.1684 -0.0215
  958POPC   C3A13981  15.042  15.822   6.974  0.0344 -0.0119  0.2754
  958POPC   C4A13982  15.288  15.770   7.449  0.1028 -0.3039  0.2462
  958POPC   C1B13983  15.078  16.352   6.733 -0.2874 -0.2146  0.2808
  958POPC   C2B13984  15.085  16.215   7.270  0.1472  0.3264 -0.1075
  958POPC   C3B13985  14.963  16.433   7.593 -0.0721 -0.1666  0.2123
  958POPC   C4B13986  15.086  16.649   7.938 -0.1506 -0.2686  0.3935
  959POPC   NC313987   3.959   9.803   5.688 -0.0503 -0.1506  0.1428
  959POPC   PO413988   3.697  10.188   5.689 -0.0760 -0.3915 -0.1646
  959POPC   GL113989   3.521   9.873   5.875 -0.5286  0.1385  0.0802
  959POPC   GL213990   3.518   9.493   5.739  0.1871  0.1512  0.1944
  959POPC   C1A13991   3.398   9.702   6.179  0.1858 -0.0870 -0.4146
  959POPC   D2A13992   3.201   9.490   6.545  0.0869  0.1054  0.0160
  959POPC   C3A13993   3.175   9.788   6.816  0.1001  0.0218 -0.0104
  959POPC   C4A13994   2.976   9.872   7.131 -0.1029  0.1164  0.3751
  959POPC   C1B13995   3.524   9.202   6.078  0.0462 -0.1848 -0.0990
  959POPC   C2B13996   3.650   8.957   6.474 -0.0562 -0.1402  0.1366
  959POPC   C3B13997   3.623   8.858   6.896 -0.1460  0.0314 -0.1930
  959POPC   C4B13998   3.682   8.532   7.132 -0.0591 -0.0347  0.2178
  960POPC   NC313999   0.003   0.531   6.027 -0.3242 -0.3231 -0.2236
  960POPC   PO414000   0.314   0.317   6.158  0.0426 -0.0220  0.0073
  960POPC   GL114001   0.408   0.225   6.535  0.2009  0.0257 -0.1539
  960POPC   GL214002   0.692   0.476   6.595 -0.1410  0.3905  0.0004
  960POPC   C1A14003   0.642  -0.052   6.701 -0.2817  0.0055  0.0946
  960POPC   D2A14004   0.723  -0.359   7.118 -0.1048  0.1260 -0.0221
  960POPC   C3A14005   0.978  -0.588   7.484 -0.3651  0.2202  0.0701
  960POPC   C4A14006   1.442  -0.836   7.672 -0.0504  0.0699  0.0884
  960POPC   C1B14007   0.708   0.517   7.094  0.2341 -0.0019  0.0654
  960POPC   C2B14008   0.735   0.383   7.502  0.6397  0.2766 -0.1654
  960POPC   C3B14009   0.922   0.407   7.834 -0.0438 -0.0409 -0.0893
  960POPC   C4B14010   1.103   0.136   8.155  0.2015  0.2619 -0.0820
  961POPC   NC314011  15.929   2.204   5.493  0.3366  0.4066 -0.2859
  961POPC   PO414012  15.664   1.967   5.834 -0.0286  0.0203 -0.0574
  961POPC   GL114013  15.798   1.929   6.208  0.0392  0.1012 -0.0305
  961POPC   GL214014  16.045   1.845   6.325  0.6272 -0.4538  0.1861
  961POPC   C1A14015  15.784   2.205   6.585  0.1861  0.0119 -0.0401
  961POPC   D2A14016  15.769   2.034   7.054  0.0434 -0.1136 -0.0629
  961POPC   C3A14017  15.880   2.239   7.317  0.0687  0.0295 -0.3840
  961POPC   C4A14018  15.816   2.551   7.773  0.3718  0.0167 -0.2559
  961POPC   C1B14019  16.062   1.734   6.683  0.0634 -0.0007  0.1961
  961POPC   C2B14020  16.246   1.706   7.079 -0.1631  0.0332  0.0536
  961POPC   C3B14021  16.170   1.873   7.434  0.3260  0.1864 -0.0704
  961POPC   C4B14022  16.354   2.284   7.625  0.2047 -0.1222  0.1978
  962POPC   NC314023   5.031  13.431   6.194 -0.2165  0.1166 -0.0141
  962POPC   PO414024   5.356  13.719   6.290 -0.2067  0.0560 -0.0754
  962POPC   GL114025   5.235  13.963   6.589 -0.1770  0.2209 -0.0351
  962POPC   GL214026   4.876  13.918   6.550  0.2336 -0.0592  0.1493
  962POPC   C1A14027   5.297  14.165   6.949 -0.0335 -0.0320  0.2241
  962POPC   D2A14028   5.143  14.437   7.266  0.3528 -0.0438 -0.0641
  962POPC   C3A14029   5.170  14.465   7.675 -0.1070 -0.1250 -0.2301
  962POPC   C4A14030   5.146  14.562   8.056  0.1515  0.1607  0.2829
  962POPC   C1B14031   4.729  14.319   6.760 -0.1795 -0.1938  0.1428
  962POPC   C2B14032   4.651  14.520   7.207  0.2935 -0.0361 -0.2845
  962POPC   C3B14033   4.660  14.505   7.635 -0.0359  0.3034 -0.0188
  962POPC   C4B14034   4.590  14.789   8.025  0.5304 -0.0291  0.1765
  963YOPC   NC314035  11.618   9.555   5.999  0.0357 -0.0594 -0.0527
  963YOPC   PO414036  11.551   9.082   6.029  0.1716  0.4326  0.0421
  963YOPC   GL114037  11.651   9.049   6.410 -0.2281  0.0508 -0.0366
  963YOPC   GL214038  11.621   9.413   6.486  0.2653  0.1616  0.1696
  963YOPC   C1A14039  11.600   8.808   6.741 -0.0741 -0.0706  0.3081
  963YOPC   D2A14040  11.519   8.822   7.142 -0.1560 -0.0757 -0.2004
  963YOPC   C3A14041  11.239   8.796   7.553  0.0823  0.4895 -0.0891
  963YOPC   C4A14042  11.137   8.611   8.022 -0.0536  0.0365  0.1754
  963YOPC   C1B14043  11.674   9.781   6.829 -0.0883  0.0442 -0.0515
  963YOPC   C2B14044  11.771  10.070   7.134  0.0811 -0.0713  0.0971
  963YOPC   D3B14045  11.815   9.894   7.526  0.2138  0.2960 -0.2566
  963YOPC   C4B14046  11.579   9.992   7.929 -0.1999 -0.3766 -0.1031
  964YOPC   NC314047   7.564   0.145   6.219  0.0472  0.2931  0.1052
  964YOPC   PO414048   7.478   0.568   6.281 -0.0327  0.2722  0.1490
  964YOPC   GL114049   7.795   0.559   6.658 -0.0233 -0.0435 -0.1477
  964YOPC   GL214050   7.682   0.272   6.826 -0.0947 -0.0095 -0.1579
  964YOPC   C1A14051   8.005   0.669   7.028  0.0186  0.1105 -0.1240
  964YOPC   D2A14052   7.839   0.503   7.543  0.2102  0.2279  0.1969
  964YOPC   C3A14053   7.549   0.260   7.673 -0.0877 -0.1072 -0.3388
  964YOPC   C4A14054   7.465  -0.033   7.973  0.2634 -0.2235 -0.0069
  964YOPC   C1B14055   7.956   0.125   7.202 -0.2279  0.3179  0.1055
  964YOPC   C2B14056   8.244   0.255   7.550 -0.0621  0.0023 -0.0650
  964YOPC   D3B14057   8.449   0.636   7.556 -0.1084  0.1286  0.0139
  964YOPC   C4B14058   8.583   0.824   7.898 -0.0580 -0.0553  0.0745
  965YOPC   NC314059   8.474   8.338   4.991 -0.0481  0.0957 -0.0461
  965YOPC   PO414060   8.491   8.024   5.241 -0.0661  0.1058 -0.2281
  965YOPC   GL114061   8.251   8.050   5.657  0.2456  0.1522  0.3636
  965YOPC   GL214062   7.979   8.314   5.647  0.3898 -0.0701 -0.4636
  965YOPC   C1A14063   8.585   8.221   5.918  0.1581  0.0708  0.1901
  965YOPC   D2A14064   8.656   8.300   6.418 -0.0925  0.1070  0.3025
  965YOPC   C3A14065   9.000   7.992   6.622  0.2054 -0.0891 -0.0773
  965YOPC   C4A14066   9.009   7.913   7.095 -0.2441  0.1636 -0.2596
  965YOPC   C1B14067   8.151   8.488   5.983 -0.0425  0.3602 -0.0225
  965YOPC   C2B14068   7.941   8.691   6.362 -0.1171 -0.0317  0.0583
  965YOPC   D3B14069   7.754   8.453   6.727  0.4341  0.2767  0.2896
  965YOPC   C4B14070   7.419   8.127   6.562 -0.0448 -0.2886  0.0720
  966YOPC   NC314071   8.877   9.502   5.602  0.1270 -0.0251 -0.1658
  966YOPC   PO414072   9.075   9.720   5.996  0.1505  0.3078 -0.1402
  966YOPC   GL114073   8.720   9.862   6.323  0.0646  0.1073 -0.1907
  966YOPC   GL214074   8.399   9.791   6.400  0.3273  0.3112  0.0469
  966YOPC   C1A14075   8.797   9.715   6.751 -0.0207  0.0830  0.0764
  966YOPC   D2A14076   8.710   9.639   7.228 -0.3434  0.3958 -0.0690
  966YOPC   C3A14077   9.158   9.522   7.419  0.2681 -0.0408 -0.3085
  966YOPC   C4A14078   9.509   9.347   7.544 -0.1473 -0.0775  0.1601
  966YOPC   C1B14079   8.284   9.833   6.711 -0.0135  0.2232 -0.0301
  966YOPC   C2B14080   8.161   9.751   7.220  0.1072  0.0541 -0.2023
  966YOPC   D3B14081   8.346   9.572   7.581 -0.2308 -0.3698  0.1709
  966YOPC   C4B14082   8.706   9.454   7.769  0.1798 -0.0730 -0.1353
  967YOPC   NC314083  16.936  10.815   5.984 -0.1056  0.0194  0.1435
  967YOPC   PO414084  16.468  10.604   5.847 -0.0714 -0.1938 -0.1295
  967YOPC   GL114085  16.442  10.614   6.311 -0.1646 -0.1820 -0.1364
  967YOPC   GL214086  16.749  10.669   6.419  0.1223  0.1195 -0.1774
  967YOPC   C1A14087  16.394  10.378   6.605 -0.0410 -0.1612 -0.0366
  967YOPC   D2A14088  16.569  10.259   6.999 -0.1411  0.2854 -0.0317
  967YOPC   C3A14089  16.995  10.164   6.776 -0.2930 -0.0145  0.1048
  967YOPC   C4A14090  16.848  10.125   6.372  0.1875 -0.1445 -0.1075
  967YOPC   C1B14091  16.779  10.660   6.844 -0.1751 -0.1310 -0.3397
  967YOPC   C2B14092  16.968  10.677   7.250 -0.0752  0.0067  0.0383
  967YOPC   D3B14093  16.794  10.507   7.572  0.3009 -0.1681  0.1560
  967YOPC   C4B14094  16.630  10.110   7.659 -0.2458 -0.1817  0.1792
  968YOPC   NC314095   7.002  11.622   6.091  0.1131  0.3076 -0.1228
  968YOPC   PO414096   6.551  11.714   6.076  0.1455  0.0319 -0.0934
  968YOPC   GL114097   6.623  11.718   6.457  0.2393 -0.0572  0.3675
  968YOPC   GL214098   6.841  11.722   6.555 -0.0366 -0.1940 -0.0925
  968YOPC   C1A14099   6.471  11.809   6.905 -0.0959  0.2356 -0.0786
  968YOPC   D2A14100   6.483  11.800   7.284 -0.2796  0.1536  0.1167
  968YOPC   C3A14101   6.547  11.522   7.636 -0.2150 -0.0337  0.0884
  968YOPC   C4A14102   6.294  11.621   7.972  0.5584 -0.2488  0.1205
  968YOPC   C1B14103   6.921  11.982   7.001  0.1449  0.1804 -0.0259
  968YOPC   C2B14104   7.103  12.171   7.236  0.0415  0.2067 -0.0718
  968YOPC   D3B14105   7.068  12.079   7.691  0.0898 -0.1165  0.0180
  968YOPC   C4B14106   7.213  12.055   8.096  0.2355 -0.0076  0.1613
  969YOPC   NC314107   9.560  11.075   6.439  0.5192 -0.1919  0.0003
  969YOPC   PO414108   9.159  11.039   6.279 -0.2786  0.1886 -0.1227
  969YOPC   GL114109   8.976  11.076   6.659  0.3259  0.0389 -0.0833
  969YOPC   GL214110   8.679  11.242   6.609  0.3109  0.1342  0.1625
  969YOPC   C1A14111   9.238  11.087   7.031 -0.2846  0.0712 -0.0189
  969YOPC   D2A14112   9.387  10.778   7.174  0.1592 -0.2210  0.1852
  969YOPC   C3A14113   9.098  10.745   7.410  0.2123  0.0817 -0.0965
  969YOPC   C4A14114   8.850  11.025   7.788  0.0690  0.1021  0.3947
  969YOPC   C1B14115   8.389  11.307   6.880 -0.2533 -0.0323 -0.0976
  969YOPC   C2B14116   8.546  11.665   7.141  0.3490 -0.2224 -0.0630
  969YOPC   D3B14117   8.436  11.655   7.510 -0.1831 -0.2155 -0.0788
  969YOPC   C4B14118   8.597  11.518   7.873 -0.4039  0.0126  0.3504
  970YOPC   NC314119  13.649  11.032   5.563  0.0784 -0.0640 -0.0173
  970YOPC   PO414120  13.686  11.456   5.594 -0.2353 -0.0253  0.3261
  970YOPC   GL114121  13.441  11.624   5.987 -0.2128  0.1747 -0.3742
  970YOPC   GL214122  13.263  11.483   6.229  0.0941 -0.1240 -0.0912
  970YOPC   C1A14123  13.424  11.957   6.361 -0.0540 -0.2403 -0.0864
  970YOPC   D2A14124  13.145  11.833   6.696  0.0078 -0.4275  0.2630
  970YOPC   C3A14125  13.148  12.017   7.118  0.1903 -0.0964 -0.0208
  970YOPC   C4A14126  13.302  11.904   7.507 -0.4635 -0.2901  0.0957
  970YOPC   C1B14127  13.413  11.257   6.624 -0.2996 -0.0503  0.0619
  970YOPC   C2B14128  13.532  11.523   6.949  0.0434 -0.0909 -0.1386
  970YOPC   D3B14129  13.195  11.471   7.129 -0.0070  0.4691 -0.3457
  970YOPC   C4B14130  12.699  11.402   7.345 -0.3637 -0.2001  0.0132
  971YOPC   NC314131   1.709  16.908   5.616 -0.0118  0.4034  0.0229
  971YOPC   PO414132   1.940  17.152   5.942 -0.2402  0.2384  0.0233
  971YOPC   GL114133   1.940  17.113   6.440  0.0375  0.1031  0.1750
  971YOPC   GL214134   1.940  16.747   6.619  0.0007 -0.3139 -0.1881
  971YOPC   C1A14135   1.784  17.245   6.826  0.2403  0.0432  0.1634
  971YOPC   D2A14136   1.764  17.090   7.282  0.4317 -0.1714  0.1435
  971YOPC   C3A14137   2.077  16.925   7.465  0.1997 -0.0965 -0.1221
  971YOPC   C4A14138   2.482  17.157   7.618 -0.1483  0.1800 -0.2340
  971YOPC   C1B14139   2.125  16.885   6.935 -0.1257 -0.2546 -0.1245
  971YOPC   C2B14140   2.468  16.920   7.040  0.0387  0.0070 -0.1208
  971YOPC   D3B14141   2.782  16.640   7.094 -0.1218 -0.0789 -0.0652
  971YOPC   C4B14142   3.111  16.319   7.072  0.1476 -0.0072  0.0558
  972YOPC   NC314143   8.176   6.680   5.905 -0.0305 -0.2195  0.0970
  972YOPC   PO414144   8.344   6.339   6.118  0.1028 -0.1206 -0.1533
  972YOPC   GL114145   8.117   6.581   6.389 -0.2342 -0.0302 -0.3422
  972YOPC   GL214146   8.042   6.347   6.509  0.0599  0.0627 -0.2722
  972YOPC   C1A14147   7.986   6.788   6.697  0.3803 -0.2589  0.0119
  972YOPC   D2A14148   8.164   6.782   7.097 -0.0598  0.0138  0.1271
  972YOPC   C3A14149   7.979   6.790   7.517  0.2378 -0.0351 -0.1590
  972YOPC   C4A14150   8.186   6.622   7.979 -0.1656 -0.2232 -0.0647
  972YOPC   C1B14151   7.922   6.341   6.914  0.3682 -0.1066 -0.0600
  972YOPC   C2B14152   8.049   6.286   7.388  0.2185 -0.0272  0.2149
  972YOPC   D3B14153   7.691   6.422   7.642 -0.0580 -0.0696 -0.3107
  972YOPC   C4B14154   7.517   6.725   7.906 -0.1118 -0.1078 -0.0709
  973YOPC   NC314155  18.191  18.233   6.020  0.2291 -0.0458  0.0065
  973YOPC   PO414156  17.814  18.608   5.987 -0.0612  0.3005  0.2917
  973YOPC   GL114157  17.935  18.751   6.381 -0.1383  0.3439  0.0188
  973YOPC   GL214158  18.174  18.545   6.526 -0.1183  0.0165 -0.2041
  973YOPC   C1A14159  17.708  18.638   6.810  0.1030  0.1384  0.1687
  973YOPC   D2A14160  17.244  18.436   6.723 -0.0356  0.1670  0.0476
  973YOPC   C3A14161  17.033  18.032   7.019  0.4176  0.0884  0.1763
  973YOPC   C4A14162  16.663  17.804   7.084 -0.1277 -0.2107 -0.1135
  973YOPC   C1B14163  17.864  18.162   6.733 -0.1782  0.1025 -0.0661
  973YOPC   C2B14164  17.811  17.737   6.717 -0.0492  0.3455 -0.1386
  973YOPC   D3B14165  18.108  17.466   6.572  0.0221 -0.0021 -0.2541
  973YOPC   C4B14166  18.176  17.030   6.664 -0.0065 -0.1682 -0.0740
  974YOPC   NC314167   0.742   4.640   5.607  0.2023 -0.0573  0.1002
  974YOPC   PO414168   0.447   4.403   5.775 -0.1307  0.1067 -0.0968
  974YOPC   GL114169   0.484   4.489   6.167  0.0396  0.1587  0.1675
  974YOPC   GL214170   0.516   4.183   6.341 -0.4630  0.0446 -0.1238
  974YOPC   C1A14171   0.708   4.726   6.540  0.1315  0.1066  0.0529
  974YOPC   D2A14172   0.816   4.854   6.871 -0.0423 -0.3438  0.2478
  974YOPC   C3A14173   0.701   4.900   7.347 -0.1135 -0.0348  0.0560
  974YOPC   C4A14174   0.532   4.952   7.740 -0.0899 -0.1093 -0.0369
  974YOPC   C1B14175   0.441   4.320   6.722 -0.0364 -0.0407  0.1745
  974YOPC   C2B14176   0.345   4.603   7.088  0.2278  0.0097 -0.1727
  974YOPC   D3B14177   0.323   4.475   7.529  0.1853 -0.3175 -0.3308
  974YOPC   C4B14178   0.136   4.591   7.954 -0.0920 -0.0183 -0.1932
  975YOPC   NC314179   6.260   2.309   6.291  0.0123  0.4435  0.1241
  975YOPC   PO414180   6.165   2.777   6.134 -0.2183 -0.3908  0.0767
  975YOPC   GL114181   6.093   2.757   6.526 -0.1563 -0.1007  0.0945
  975YOPC   GL214182   5.836   2.746   6.617 -0.0043  0.2225  0.1319
  975YOPC   C1A14183   5.982   3.148   6.826  0.1580 -0.0283 -0.0478
  975YOPC   D2A14184   6.044   3.548   7.032  0.0663 -0.0835 -0.0445
  975YOPC   C3A14185   5.898   3.618   7.463 -0.1512 -0.1138 -0.0016
  975YOPC   C4A14186   5.674   3.472   7.801  0.0887  0.3490  0.1819
  975YOPC   C1B14187   5.556   2.920   6.901  0.3450 -0.2533  0.0924
  975YOPC   C2B14188   5.220   3.003   7.200  0.1108 -0.1241  0.4481
  975YOPC   D3B14189   5.410   3.018   7.544 -0.1066  0.1737 -0.0281
  975YOPC   C4B14190   5.701   3.016   7.966 -0.0679 -0.0419  0.2912
  976YOPC   NC314191   0.773  15.323   5.450 -0.2069  0.0334  0.1173
  976YOPC   PO414192   0.736  15.569   5.876  0.0530 -0.2464 -0.0492
  976YOPC   GL114193   0.958  15.861   6.075 -0.0600  0.0404  0.1941
  976YOPC   GL214194   1.280  15.930   6.072  0.2103 -0.1854  0.0123
  976YOPC   C1A14195   0.891  16.032   6.522 -0.1171  0.2032 -0.1531
  976YOPC   D2A14196   0.944  15.978   6.905  0.1659 -0.5955 -0.1590
  976YOPC   C3A14197   0.885  16.216   7.274  0.1247  0.0440 -0.0422
  976YOPC   C4A14198   0.709  16.199   7.706  0.1389  0.2799 -0.1435
  976YOPC   C1B14199   1.170  15.617   6.420 -0.0204 -0.3000 -0.0071
  976YOPC   C2B14200   1.029  15.411   6.798  0.0842 -0.1865  0.0977
  976YOPC   D3B14201   0.590  15.118   6.754  0.0915  0.0069 -0.1413
  976YOPC   C4B14202   0.317  14.865   6.991 -0.2936 -0.0646  0.1743
  977YOPC   NC314203   1.091  11.700   5.640  0.0601  0.3226 -0.2800
  977YOPC   PO414204   1.044  11.238   5.597 -0.1100  0.0987 -0.0787
  977YOPC   GL114205   1.027  11.221   6.013  0.2325 -0.0855  0.3175
  977YOPC   GL214206   1.316  10.980   5.984 -0.3296 -0.3366  0.1953
  977YOPC   C1A14207   0.796  11.343   6.352 -0.1860 -0.0253  0.0282
  977YOPC   D2A14208   0.878  11.333   6.734 -0.2223  0.0932  0.3252
  977YOPC   C3A14209   0.984  11.567   7.119 -0.1776 -0.1836  0.1709
  977YOPC   C4A14210   0.803  11.612   7.587 -0.0455  0.3557 -0.1419
  977YOPC   C1B14211   1.585  10.995   6.336  0.3823  0.2736  0.1088
  977YOPC   C2B14212   1.817  10.772   6.643  0.1139  0.1351  0.1275
  977YOPC   D3B14213   1.869  10.864   7.031 -0.5095  0.1619 -0.0040
  977YOPC   C4B14214   1.786  10.643   7.422  0.2052 -0.2380  0.1434
  978YOPC   NC314215  15.670   4.377   6.280  0.3564  0.1789  0.1550
  978YOPC   PO414216  15.681   3.959   6.232 -0.0318 -0.0138  0.1975
  978YOPC   GL114217  15.411   3.996   6.578 -0.0096 -0.0708  0.1237
  978YOPC   GL214218  15.682   4.101   6.728  0.2465 -0.3238  0.1113
  978YOPC   C1A14219  15.276   3.841   6.855 -0.1185 -0.2394 -0.1675
  978YOPC   D2A14220  15.156   3.817   7.253 -0.0261 -0.1916 -0.0724
  978YOPC   C3A14221  15.036   3.473   7.505 -0.0928 -0.1497  0.1630
  978YOPC   C4A14222  14.898   3.204   7.802  0.0797 -0.0197  0.1757
  978YOPC   C1B14223  15.516   4.170   7.160  0.1378  0.1929  0.2457
  978YOPC   C2B14224  15.664   4.333   7.498  0.1737  0.1014  0.3624
  978YOPC   D3B14225  15.298   4.349   7.836 -0.1202  0.1792 -0.1069
  978YOPC   C4B14226  14.888   4.328   8.045 -0.1440  0.1335  0.0963
  979YOPC   NC314227   7.651   7.323   5.251 -0.2115 -0.1461 -0.1492
  979YOPC   PO414228   7.412   7.307   5.589 -0.3337 -0.1040 -0.1377
  979YOPC   GL114229   7.567   7.452   6.032  0.1966 -0.1601 -0.3917
  979YOPC   GL214230   7.509   7.847   6.039 -0.0909  0.1001 -0.2246
  979YOPC   C1A14231   7.627   7.311   6.474  0.0667  0.2122  0.2177
  979YOPC   D2A14232   7.783   7.443   6.779 -0.0779  0.0663 -0.2931
  979YOPC   C3A14233   7.613   7.502   7.164 -0.0476  0.0509 -0.0548
  979YOPC   C4A14234   7.354   7.737   7.335 -0.1968 -0.0597  0.0938
  979YOPC   C1B14235   7.232   7.683   6.312  0.3447  0.1016  0.0885
  979YOPC   C2B14236   7.090   7.328   6.536  0.3006 -0.2129  0.1080
  979YOPC   D3B14237   7.348   7.056   6.924 -0.2706  0.1582 -0.0406
  979YOPC   C4B14238   7.777   7.078   7.114  0.1176 -0.3215  0.1381
  980YOPC   NC314239   4.126  11.673   5.622  0.1855  0.0035 -0.0315
  980YOPC   PO414240   3.739  11.520   5.873 -0.1220  0.1682 -0.2485
  980YOPC   GL114241   3.676  11.249   6.347 -0.3304 -0.3546 -0.0026
  980YOPC   GL214242   3.431  11.391   6.356  0.0412  0.0057 -0.3416
  980YOPC   C1A14243   3.592  10.922   6.693 -0.0008  0.0294 -0.4406
  980YOPC   D2A14244   3.488  10.718   7.173  0.0143  0.0135  0.2930
  980YOPC   C3A14245   3.786  10.893   7.562  0.0795 -0.1185  0.4727
  980YOPC   C4A14246   3.658  11.021   7.962 -0.0695 -0.0913  0.2495
  980YOPC   C1B14247   3.287  11.288   6.761 -0.1390 -0.0945  0.0351
  980YOPC   C2B14248   3.218  11.465   7.223 -0.1139 -0.1214  0.2265
  980YOPC   D3B14249   2.856  11.291   7.532 -0.1756 -0.1073 -0.0368
  980YOPC   C4B14250   2.777  11.050   7.840 -0.3749 -0.2587 -0.0041
  981YOPC   NC314251   5.533   0.163   5.930  0.1304 -0.0719 -0.1736
  981YOPC   PO414252   5.934   0.154   6.131  0.2861  0.0828  0.0899
  981YOPC   GL114253   5.871   0.098   6.477 -0.0200 -0.1550 -0.2254
  981YOPC   GL214254   5.709  -0.149   6.519  0.0773  0.1232 -0.0606
  981YOPC   C1A14255   5.751   0.204   6.944 -0.0761  0.1288  0.0366
  981YOPC   D2A14256   6.014   0.454   7.302 -0.3361  0.2471 -0.3693
  981YOPC   C3A14257   5.725   0.545   7.558 -0.1671  0.1695 -0.0941
  981YOPC   C4A14258   5.378   0.380   7.880 -0.0382 -0.0027  0.0464
  981YOPC   C1B14259   5.758  -0.326   6.993  0.1374 -0.0466 -0.2123
  981YOPC   C2B14260   5.822  -0.670   7.240 -0.1752  0.0653 -0.0797
  981YOPC   D3B14261   5.843  -0.687   7.597  0.0793  0.0470 -0.0956
  981YOPC   C4B14262   5.583  -0.753   7.980 -0.0353 -0.4056  0.1035
  982YOPC   NC314263   0.377   6.256   5.386  0.0928 -0.1892  0.3520
  982YOPC   PO414264   0.234   6.564   5.737 -0.1768  0.0527  0.1485
  982YOPC   GL114265   0.224   6.462   6.234  0.0419  0.1058 -0.0971
  982YOPC   GL214266   0.018   6.239   6.270 -0.0265  0.1930  0.0830
  982YOPC   C1A14267   0.304   6.492   6.626 -0.1843 -0.0287  0.0052
  982YOPC   D2A14268   0.436   6.208   6.972 -0.1533 -0.1461  0.1411
  982YOPC   C3A14269   0.768   5.996   7.005  0.1754  0.0854 -0.0840
  982YOPC   C4A14270   1.039   6.018   7.338  0.2601 -0.1306  0.2097
  982YOPC   C1B14271  -0.143   6.536   6.602 -0.0960 -0.1736  0.0515
  982YOPC   C2B14272  -0.435   6.682   6.986  0.1277  0.1110 -0.1664
  982YOPC   D3B14273  -0.267   6.857   7.300  0.2763 -0.1427  0.2887
  982YOPC   C4B14274  -0.129   6.625   7.649 -0.1526 -0.0352 -0.0337
  983YOPC   NC314275   6.899  13.236   6.139  0.0387 -0.1770 -0.3937
  983YOPC   PO414276   6.673  12.953   6.270  0.0267  0.0345  0.1729
  983YOPC   GL114277   6.577  12.709   6.585  0.1667 -0.0883 -0.1574
  983YOPC   GL214278   6.760  12.912   6.732  0.0911  0.2449  0.0498
  983YOPC   C1A14279   6.605  12.511   7.058 -0.0780 -0.2693 -0.2603
  983YOPC   D2A14280   6.837  12.630   7.447  0.1946 -0.3974 -0.2049
  983YOPC   C3A14281   6.832  12.507   7.913  0.1881 -0.2072  0.1026
  983YOPC   C4A14282   7.044  12.560   8.217 -0.2342  0.2348 -0.1226
  983YOPC   C1B14283   6.768  13.111   7.105 -0.0698  0.0480 -0.0055
  983YOPC   C2B14284   6.741  13.130   7.481 -0.1011  0.0908 -0.3563
  983YOPC   D3B14285   6.550  12.951   7.737 -0.0128  0.0030 -0.3007
  983YOPC   C4B14286   6.427  12.765   8.114 -0.2234  0.0338  0.1627
  984YOPC   NC314287  11.141   2.844   5.860  0.1297 -0.0564  0.2407
  984YOPC   PO414288  11.317   3.142   6.197  0.0291 -0.1240  0.0799
  984YOPC   GL114289  11.570   3.278   6.479 -0.1858 -0.2188 -0.4460
  984YOPC   GL214290  11.379   3.235   6.802 -0.2526 -0.1851 -0.2611
  984YOPC   C1A14291  11.860   3.437   6.848 -0.1500  0.2757 -0.0230
  984YOPC   D2A14292  12.294   3.403   7.107 -0.0841  0.0601 -0.1765
  984YOPC   C3A14293  12.627   3.122   6.991  0.0151 -0.1249 -0.1779
  984YOPC   C4A14294  13.016   3.216   7.221  0.3173  0.0664  0.0659
  984YOPC   C1B14295  11.529   3.142   7.184 -0.0512  0.0485  0.0960
  984YOPC   C2B14296  11.768   3.144   7.500 -0.0999  0.0685  0.2353
  984YOPC   D3B14297  11.550   3.227   7.900 -0.1294  0.5669  0.2983
  984YOPC   C4B14298  11.512   3.270   8.388 -0.0646 -0.0979  0.1503
  985YOPC   NC314299  10.189  10.499   5.904  0.4038  0.2393  0.0081
  985YOPC   PO414300  10.416  10.038   5.926  0.0822 -0.0645 -0.0673
  985YOPC   GL114301  10.146  10.132   6.240 -0.0631  0.2254  0.1301
  985YOPC   GL214302   9.882   9.907   6.385  0.1045  0.0827  0.2593
  985YOPC   C1A14303   9.954  10.335   6.628 -0.1246  0.2104 -0.1134
  985YOPC   D2A14304   9.599  10.444   6.805  0.1604  0.3020 -0.3700
  985YOPC   C3A14305   9.293  10.152   6.989 -0.0849 -0.1712 -0.1410
  985YOPC   C4A14306   9.218   9.744   7.008 -0.0392  0.1908 -0.1941
  985YOPC   C1B14307   9.683   9.893   6.788  0.0479 -0.4518 -0.0498
  985YOPC   C2B14308   9.746   9.673   7.124  0.0902 -0.2716 -0.1308
  985YOPC   D3B14309  10.045   9.834   7.510 -0.5441 -0.0192 -0.1410
  985YOPC   C4B14310  10.177   9.718   7.951  0.0747 -0.0021  0.0093
  986YOPC   NC314311   0.835   2.219   5.836 -0.1369 -0.1262  0.0741
  986YOPC   PO414312   1.247   2.181   5.962 -0.0167 -0.0469  0.2899
  986YOPC   GL114313   0.985   2.232   6.309  0.0266 -0.0043 -0.0465
  986YOPC   GL214314   0.867   1.953   6.474  0.2077 -0.1418  0.0279
  986YOPC   C1A14315   0.861   2.388   6.739 -0.1414  0.1465  0.1434
  986YOPC   D2A14316   0.657   2.438   7.078 -0.0376  0.0781  0.0610
  986YOPC   C3A14317   0.745   2.443   7.581 -0.0114  0.3151 -0.0845
  986YOPC   C4A14318   0.657   2.527   7.970 -0.2664 -0.0529  0.1454
  986YOPC   C1B14319   0.649   1.928   6.884 -0.0254 -0.1076 -0.1818
  986YOPC   C2B14320   0.647   1.873   7.316  0.0115 -0.0163 -0.0558
  986YOPC   D3B14321   0.564   1.992   7.772 -0.0524  0.2037  0.1057
  986YOPC   C4B14322   0.647   1.999   8.179  0.3381  0.2775 -0.0572
  987YOPC   NC314323  17.096   0.913   5.805  0.3257  0.2589 -0.1000
  987YOPC   PO414324  17.396   1.256   5.963  0.1070  0.2869 -0.0230
  987YOPC   GL114325  17.549   1.274   6.387 -0.0896  0.2129  0.1085
  987YOPC   GL214326  17.383   1.177   6.656  0.2260  0.1572 -0.0155
  987YOPC   C1A14327  17.728   1.490   6.738  0.0472  0.1864  0.0535
  987YOPC   D2A14328  17.966   1.693   6.995  0.0096 -0.2571 -0.1931
  987YOPC   C3A14329  18.003   2.055   7.301 -0.0643 -0.2790  0.3924
  987YOPC   C4A14330  18.001   2.474   7.324 -0.0504  0.2159  0.1345
  987YOPC   C1B14331  17.433   0.920   7.129 -0.0477 -0.1815 -0.1097
  987YOPC   C2B14332  17.762   0.704   7.254  0.3446 -0.1791  0.1441
  987YOPC   D3B14333  17.928   0.705   7.520 -0.4401 -0.2787 -0.2869
  987YOPC   C4B14334  18.335   0.728   7.725 -0.1810 -0.0648  0.0570
  988YOPC   NC314335   2.835   0.084   5.624  0.0449  0.2432  0.0826
  988YOPC   PO414336   2.605   0.093   5.952 -0.1018 -0.3720  0.0389
  988YOPC   GL114337   2.865   0.034   6.446 -0.1757 -0.0925  0.0309
  988YOPC   GL214338   2.711  -0.047   6.675 -0.2307 -0.1804 -0.1108
  988YOPC   C1A14339   3.167   0.336   6.637  0.1083  0.1729  0.1868
  988YOPC   D2A14340   3.597   0.363   6.950  0.1513  0.2148  0.3809
  988YOPC   C3A14341   3.646   0.048   7.311  0.2222 -0.0457  0.0601
  988YOPC   C4A14342   3.463   0.054   7.620 -0.1625 -0.2546 -0.0948
  988YOPC   C1B14343   2.616  -0.169   7.055 -0.0224 -0.1906  0.0667
  988YOPC   C2B14344   2.291  -0.357   7.172  0.0065 -0.1503 -0.2055
  988YOPC   D3B14345   2.046  -0.152   7.494  0.2267  0.0651 -0.1351
  988YOPC   C4B14346   1.809   0.174   7.434 -0.1305  0.1099  0.2241
  989YOPC   NC314347   9.464  12.930   5.971  0.0552  0.1902  0.0560
  989YOPC   PO414348   9.294  13.405   6.004 -0.2184 -0.0035  0.0612
  989YOPC   GL114349   9.197  13.667   6.391 -0.2232  0.0619  0.1664
  989YOPC   GL214350   9.223  13.327   6.487 -0.2124 -0.1238 -0.2150
  989YOPC   C1A14351   9.204  13.696   6.877 -0.1380 -0.0157  0.1693
  989YOPC   D2A14352   8.945  13.474   7.151 -0.1482  0.1380  0.1565
  989YOPC   C3A14353   8.606  13.613   6.987  0.2428 -0.1665 -0.2718
  989YOPC   C4A14354   8.168  13.669   6.868 -0.1249 -0.2023  0.1806
  989YOPC   C1B14355   9.121  13.040   6.848  0.0847  0.2225 -0.4979
  989YOPC   C2B14356   9.044  12.980   7.204 -0.4754  0.4270 -0.0074
  989YOPC   D3B14357   9.054  13.014   7.589 -0.0377  0.0177  0.2476
  989YOPC   C4B14358   8.997  12.947   7.993 -0.4771  0.2297 -0.0921
  990YOPC   NC314359   6.411  16.396   6.283 -0.0896  0.0574  0.1919
  990YOPC   PO414360   5.880  16.382   6.342 -0.1271  0.2494  0.0293
  990YOPC   GL114361   6.027  16.674   6.621 -0.3196 -0.1982 -0.0007
  990YOPC   GL214362   6.313  16.680   6.761 -0.0217 -0.0775 -0.3279
  990YOPC   C1A14363   5.801  16.827   7.036 -0.0772  0.1827 -0.1901
  990YOPC   D2A14364   5.775  17.047   7.239 -0.0429 -0.1661 -0.3508
  990YOPC   C3A14365   5.801  17.083   7.751 -0.1752 -0.0031  0.0002
  990YOPC   C4A14366   5.627  16.938   8.102  0.1578  0.0765  0.2683
  990YOPC   C1B14367   6.274  16.646   7.202 -0.1109 -0.1985 -0.0052
  990YOPC   C2B14368   6.150  16.705   7.652 -0.1829 -0.1188 -0.3261
  990YOPC   D3B14369   5.899  16.569   7.796  0.3020  0.0285 -0.0927
  990YOPC   C4B14370   5.479  16.471   7.929 -0.0304 -0.0473  0.0680
  991YOPC   NC314371  16.547  14.511   5.341  0.0547  0.0603  0.0284
  991YOPC   PO414372  16.649  14.352   5.800  0.1024  0.0921 -0.1351
  991YOPC   GL114373  16.755  14.449   6.218 -0.1906  0.3041 -0.0378
  991YOPC   GL214374  16.982  14.541   6.376  0.0736 -0.4891  0.0984
  991YOPC   C1A14375  16.879  14.147   6.591 -0.0677  0.0556 -0.1303
  991YOPC   D2A14376  16.781  14.022   7.012  0.1787  0.2775 -0.1327
  991YOPC   C3A14377  16.835  14.235   7.464 -0.1216 -0.0721  0.0254
  991YOPC   C4A14378  17.217  14.389   7.753  0.2902  0.2063  0.2355
  991YOPC   C1B14379  17.314  14.552   6.627 -0.1406  0.1600  0.0594
  991YOPC   C2B14380  17.707  14.599   6.724  0.1607 -0.0730  0.3735
  991YOPC   D3B14381  17.693  14.895   7.095  0.0770 -0.1591 -0.1859
  991YOPC   C4B14382  17.814  15.306   7.293  0.1675 -0.1530 -0.0636
  992YOPC   NC314383   4.655  13.892   6.084 -0.3020  0.1827  0.0270
  992YOPC   PO414384   4.478  13.408   6.052 -0.0463 -0.3422  0.2294
  992YOPC   GL114385   4.576  13.471   6.442 -0.2068 -0.3295 -0.0721
  992YOPC   GL214386   4.620  13.051   6.568 -0.2618  0.2293 -0.0648
  992YOPC   C1A14387   4.920  13.401   6.784  0.0122  0.1877  0.0221
  992YOPC   D2A14388   5.024  13.698   6.948  0.0604 -0.1065  0.1939
  992YOPC   C3A14389   4.753  13.955   7.100 -0.1866 -0.3074  0.2599
  992YOPC   C4A14390   4.604  13.967   7.532  0.1835 -0.1044 -0.0427
  992YOPC   C1B14391   4.622  13.086   7.089  0.1025 -0.1267 -0.1159
  992YOPC   C2B14392   4.354  13.193   7.395  0.0252  0.0090 -0.1355
  992YOPC   D3B14393   4.428  13.488   7.794  0.3588 -0.3680  0.0027
  992YOPC   C4B14394   4.478  13.866   8.062  0.0697  0.0380 -0.2954
  993YOPC   NC314395   7.767   1.888   6.181  0.1113 -0.0078  0.2121
  993YOPC   PO414396   7.375   2.158   6.146  0.0452  0.0017 -0.0392
  993YOPC   GL114397   7.499   2.112   6.540 -0.1913 -0.4286  0.4185
  993YOPC   GL214398   7.766   1.862   6.660 -0.0176  0.0062 -0.1034
  993YOPC   C1A14399   7.359   2.334   6.930  0.1267 -0.1743 -0.2680
  993YOPC   D2A14400   7.081   2.437   7.231 -0.0292  0.0868 -0.2089
  993YOPC   C3A14401   7.014   2.409   7.598  0.0333  0.2524  0.0478
  993YOPC   C4A14402   6.937   2.119   7.714 -0.2652 -0.0854  0.0232
  993YOPC   C1B14403   7.791   2.112   7.085 -0.0060  0.0305  0.1592
  993YOPC   C2B14404   8.083   2.041   7.411 -0.0153 -0.3258 -0.0337
  993YOPC   D3B14405   7.892   2.252   7.765  0.2303  0.1680 -0.0409
  993YOPC   C4B14406   7.934   2.401   8.179 -0.1884  0.0681  0.0187
  994YOPC   NC314407  13.944   5.957   5.818 -0.3609  0.1269  0.1152
  994YOPC   PO414408  13.827   6.263   6.023 -0.1266 -0.0909  0.1756
  994YOPC   GL114409  13.960   6.255   6.397  0.0770 -0.1539 -0.0880
  994YOPC   GL214410  13.912   6.503   6.575 -0.2436  0.1683  0.0044
  994YOPC   C1A14411  14.087   6.120   6.785  0.0703 -0.1890  0.1577
  994YOPC   D2A14412  13.778   5.766   6.789 -0.0913 -0.0554  0.2127
  994YOPC   C3A14413  13.650   5.484   7.020  0.1005 -0.1140  0.1877
  994YOPC   C4A14414  13.633   5.473   7.466  0.0206 -0.1033  0.2031
  994YOPC   C1B14415  14.010   6.574   7.017  0.0421  0.1604 -0.0677
  994YOPC   C2B14416  14.265   6.614   7.404  0.1154  0.1016  0.0657
  994YOPC   D3B14417  14.158   6.298   7.547 -0.0790  0.0527  0.3343
  994YOPC   C4B14418  14.485   6.096   7.841 -0.2151  0.2786  0.2641
  995YOPC   NC314419  16.282   7.733   5.413 -0.2044  0.0549 -0.2610
  995YOPC   PO414420  16.249   8.075   5.615 -0.1368 -0.2495  0.0427
  995YOPC   GL114421  16.226   7.939   5.964 -0.0155 -0.1512 -0.0224
  995YOPC   GL214422  16.319   8.125   6.252 -0.0265  0.3141  0.2360
  995YOPC   C1A14423  15.945   7.766   6.350 -0.0900 -0.0804  0.0208
  995YOPC   D2A14424  15.752   7.516   6.645 -0.0903 -0.1821  0.0846
  995YOPC   C3A14425  15.875   7.766   6.976 -0.3546  0.1217  0.0365
  995YOPC   C4A14426  15.984   7.574   7.330 -0.1575  0.0752  0.0008
  995YOPC   C1B14427  16.428   7.927   6.546 -0.4373  0.0647 -0.3004
  995YOPC   C2B14428  16.404   7.719   6.903 -0.1172 -0.3829  0.2572
  995YOPC   D3B14429  16.405   7.830   7.261  0.1458  0.1359  0.1022
  995YOPC   C4B14430  16.287   7.602   7.691  0.0394  0.2494 -0.2311
  996YOPC   NC314431  12.375  16.233   6.094 -0.2200 -0.1634  0.0040
  996YOPC   PO414432  12.443  16.627   6.174  0.0453  0.1414 -0.1098
  996YOPC   GL114433  12.503  16.392   6.621 -0.2889 -0.3608 -0.3905
  996YOPC   GL214434  12.546  16.075   6.607  0.3549  0.0818  0.0653
  996YOPC   C1A14435  12.738  16.398   6.989  0.0253 -0.2700  0.1488
  996YOPC   D2A14436  13.051  16.534   7.183 -0.1362 -0.0458  0.0760
  996YOPC   C3A14437  13.340  16.844   7.141  0.2112  0.1718 -0.4247
  996YOPC   C4A14438  13.134  17.249   7.266  0.0269  0.0585  0.0339
  996YOPC   C1B14439  12.941  15.902   6.833 -0.0958  0.1455  0.0051
  996YOPC   C2B14440  13.202  15.938   7.200  0.1588 -0.1411 -0.6431
  996YOPC   D3B14441  13.104  16.149   7.610 -0.1065 -0.0707 -0.3613
  996YOPC   C4B14442  12.998  15.866   8.078  0.1429 -0.3649 -0.1773
  997YOPC   NC314443  10.712   2.236   6.354  0.1069  0.1737  0.0042
  997YOPC   PO414444  11.178   2.467   6.290  0.2152  0.0377 -0.2714
  997YOPC   GL114445  11.237   2.320   6.702 -0.2162  0.1616 -0.1852
  997YOPC   GL214446  11.421   2.496   6.803  0.2657 -0.0334  0.0815
  997YOPC   C1A14447  11.234   2.281   7.170  0.0059 -0.0007 -0.0147
  997YOPC   D2A14448  11.261   2.416   7.500  0.3747 -0.0043 -0.1852
  997YOPC   C3A14449  11.211   2.919   7.699 -0.1053 -0.2498 -0.3234
  997YOPC   C4A14450  11.132   3.269   7.549  0.2208 -0.4000  0.3617
  997YOPC   C1B14451  11.616   2.645   7.123 -0.0972  0.1007  0.2030
  997YOPC   C2B14452  11.783   2.544   7.476  0.3405  0.0263  0.6024
  997YOPC   D3B14453  11.716   2.710   7.887  0.1108 -0.1041  0.1918
  997YOPC   C4B14454  11.874   2.933   8.202  0.2181 -0.1510  0.0501
  998YOPC   NC314455   9.502   5.997   5.338  0.0066  0.1069 -0.1411
  998YOPC   PO414456   9.348   5.989   5.814  0.0611 -0.0255  0.2171
  998YOPC   GL114457   9.081   6.280   6.094  0.1433 -0.2236 -0.1639
  998YOPC   GL214458   8.908   5.931   6.330  0.3231  0.2927 -0.0039
  998YOPC   C1A14459   8.975   6.412   6.468 -0.0029  0.0143 -0.3901
  998YOPC   D2A14460   8.578   6.454   6.512 -0.0177 -0.0623 -0.0935
  998YOPC   C3A14461   8.530   6.850   6.655  0.0986 -0.0368 -0.0101
  998YOPC   C4A14462   8.569   7.002   7.050 -0.1148 -0.2277  0.2287
  998YOPC   C1B14463   8.803   5.996   6.707 -0.3627  0.2281 -0.2536
  998YOPC   C2B14464   8.787   5.992   7.163  0.1756 -0.1368 -0.0070
  998YOPC   D3B14465   8.665   6.192   7.466 -0.0461 -0.0170  0.0437
  998YOPC   C4B14466   8.406   6.591   7.514  0.0459  0.1042  0.1929
  999YOPC   NC314467   6.196  11.257   5.878 -0.2307 -0.1286  0.2620
  999YOPC   PO414468   5.739  11.029   5.974 -0.1709  0.0189  0.0793
  999YOPC   GL114469   5.846  10.864   6.411 -0.2155 -0.1140  0.0944
  999YOPC   GL214470   5.735  11.152   6.606 -0.4072  0.2543  0.1723
  999YOPC   C1A14471   5.920  10.738   6.749 -0.0713 -0.1323  0.0063
  999YOPC   D2A14472   5.859  10.844   7.221  0.1564 -0.4261  0.4249
  999YOPC   C3A14473   6.056  10.747   7.597  0.0688  0.0881  0.0394
  999YOPC   C4A14474   6.390  10.584   7.760  0.0492  0.1972 -0.2133
  999YOPC   C1B14475   5.720  11.298   7.046  0.0511  0.1384 -0.1731
  999YOPC   C2B14476   5.419  11.547   7.205  0.0050  0.2661  0.3094
  999YOPC   D3B14477   4.983  11.433   7.335  0.0976  0.1201 -0.1312
  999YOPC   C4B14478   4.550  11.181   7.389 -0.1460 -0.2118  0.1672
 1000YOPC   NC314479  11.651   4.893   6.140  0.1466 -0.2368 -0.0588
 1000YOPC   PO414480  11.550   5.270   6.225  0.0023 -0.3164  0.0674
 1000YOPC   GL114481  11.664   5.134   6.632 -0.2138  0.1480  0.1105
 1000YOPC   GL214482  11.950   5.236   6.785  0.0165  0.2255 -0.2895
 1000YOPC   C1A14483  11.579   4.726   7.040  0.1219  0.2886  0.2428
 1000YOPC   D2A14484  11.484   4.323   7.124 -0.0322  0.0058  0.0358
 1000YOPC   C3A14485  11.762   4.247   7.413  0.0370 -0.2408 -0.1244
 1000YOPC   C4A14486  11.852   4.173   7.783 -0.3591 -0.2391  0.1033
 1000YOPC   C1B14487  11.834   5.094   7.153 -0.0759 -0.1946  0.2729
 1000YOPC   C2B14488  11.884   5.134   7.675  0.0026 -0.0915 -0.0568
 1000YOPC   D3B14489  12.262   5.300   7.951 -0.0471  0.0987 -0.0278
 1000YOPC   C4B14490  12.739   5.413   8.234 -0.2019  0.0046 -0.2728
 1001YOPC   NC314491  16.967  12.810   5.741  0.1002  0.0974  0.1158
 1001YOPC   PO414492  17.390  13.044   5.874 -0.1963  0.0675  0.4065
 1001YOPC   GL114493  17.238  12.730   6.146 -0.1091 -0.0134  0.0377
 1001YOPC   GL214494  17.176  12.348   6.115 -0.2315  0.1505  0.0933
 1001YOPC   C1A14495  16.801  12.600   6.364 -0.2300  0.5282 -0.0141
 1001YOPC   D2A14496  16.766  12.573   6.839 -0.0249  0.0318  0.0228
 1001YOPC   C3A14497  17.029  12.626   7.119 -0.2185  0.1867  0.2699
 1001YOPC   C4A14498  17.213  12.577   7.434  0.0437 -0.0123  0.0856
 1001YOPC   C1B14499  17.205  12.142   6.514  0.1835 -0.0320  0.2046
 1001YOPC   C2B14500  17.333  12.488   6.729  0.1754  0.0307 -0.0076
 1001YOPC   D3B14501  17.602  12.517   7.155  0.3204  0.0142  0.0163
 1001YOPC   C4B14502  17.721  12.925   7.444  0.0337  0.0972 -0.3567
 1002YOPC   NC314503  17.319   0.107   5.892 -0.3239  0.5228  0.0750
 1002YOPC   PO414504  17.032   0.027   6.229  0.1176  0.0696  0.3707
 1002YOPC   GL114505  16.661  -0.021   6.591  0.1517  0.1817 -0.2108
 1002YOPC   GL214506  16.344   0.170   6.617 -0.2830 -0.3884 -0.0736
 1002YOPC   C1A14507  16.654   0.155   6.994  0.0833 -0.2633  0.0409
 1002YOPC   D2A14508  16.640   0.468   7.268  0.2433 -0.0022 -0.2374
 1002YOPC   C3A14509  16.489   0.298   7.638  0.0368 -0.1584 -0.0789
 1002YOPC   C4A14510  16.085   0.254   7.900  0.2154  0.1974 -0.3790
 1002YOPC   C1B14511  16.165   0.353   7.078 -0.2883  0.0247 -0.4050
 1002YOPC   C2B14512  15.952   0.367   7.463  0.0804  0.0611 -0.1707
 1002YOPC   D3B14513  15.817  -0.077   7.515 -0.2597 -0.0376 -0.3990
 1002YOPC   C4B14514  15.737  -0.487   7.587  0.1650 -0.0420  0.1942
 1003YOPC   NC314515  14.526  13.745   5.910 -0.0559 -0.2121  0.1029
 1003YOPC   PO414516  14.389  13.442   6.022 -0.2031 -0.0286 -0.3215
 1003YOPC   GL114517  14.300  13.466   6.388  0.3056  0.2771 -0.4600
 1003YOPC   GL214518  14.479  13.700   6.432 -0.1118  0.0988  0.0412
 1003YOPC   C1A14519  14.365  13.326   6.800 -0.1447 -0.1135  0.1700
 1003YOPC   D2A14520  14.272  13.353   7.258 -0.2325 -0.0510  0.0468
 1003YOPC   C3A14521  14.156  13.611   7.407  0.1674  0.0313 -0.1934
 1003YOPC   C4A14522  13.716  13.788   7.301  0.3998 -0.4067 -0.1496
 1003YOPC   C1B14523  14.833  13.456   6.672 -0.0155  0.2153  0.0696
 1003YOPC   C2B14524  14.862  13.108   6.801 -0.1541 -0.1349 -0.0712
 1003YOPC   D3B14525  14.802  13.158   7.250  0.0669 -0.2308  0.0090
 1003YOPC   C4B14526  14.703  13.299   7.683  0.0442  0.0175  0.0048
 1004YOPC   NC314527   3.790   1.338   5.959  0.1173 -0.0784  0.1323
 1004YOPC   PO414528   3.456   1.613   5.996  0.1629  0.0286  0.0237
 1004YOPC   GL114529   3.621   1.682   6.394 -0.0974  0.1799 -0.0827
 1004YOPC   GL214530   3.694   1.956   6.439 -0.0643 -0.0426  0.0670
 1004YOPC   C1A14531   3.636   1.605   6.850  0.0578 -0.0669  0.2405
 1004YOPC   D2A14532   3.745   1.319   7.090  0.3109  0.1755 -0.1527
 1004YOPC   C3A14533   3.733   1.405   7.443  0.0184  0.1078  0.0770
 1004YOPC   C4A14534   3.477   1.329   7.874  0.1041 -0.1352 -0.4068
 1004YOPC   C1B14535   3.615   2.082   6.891 -0.0887 -0.3499 -0.1738
 1004YOPC   C2B14536   3.461   2.309   7.171 -0.3878 -0.1914  0.0298
 1004YOPC   D3B14537   3.096   2.485   7.195 -0.1164 -0.1592  0.2553
 1004YOPC   C4B14538   2.725   2.722   7.366 -0.3665  0.5912 -0.0071
 1005YOPC   NC314539   5.529  12.803   6.175  0.0846 -0.2146 -0.1913
 1005YOPC   PO414540   5.432  13.166   6.337  0.1477 -0.1410 -0.2883
 1005YOPC   GL114541   5.388  13.322   6.732 -0.1000  0.1393  0.2053
 1005YOPC   GL214542   5.591  13.552   6.767  0.0957 -0.0113 -0.0404
 1005YOPC   C1A14543   5.219  13.253   7.162 -0.3366 -0.2512  0.0858
 1005YOPC   D2A14544   5.262  13.609   7.427  0.0007 -0.2086  0.2914
 1005YOPC   C3A14545   5.067  14.029   7.502  0.1234  0.1174 -0.2943
 1005YOPC   C4A14546   4.879  14.148   7.889  0.3287 -0.1179  0.1858
 1005YOPC   C1B14547   5.713  13.520   7.205  0.0533 -0.2787 -0.1151
 1005YOPC   C2B14548   5.626  13.236   7.478  0.0385  0.0897  0.1636
 1005YOPC   D3B14549   5.563  13.580   7.867  0.0503 -0.0958  0.0440
 1005YOPC   C4B14550   5.735  13.606   8.225 -0.2297 -0.1833 -0.1009
 1006YOPC   NC314551  13.968   1.782   5.683  0.2130 -0.1675 -0.1753
 1006YOPC   PO414552  14.249   1.865   5.945  0.3933  0.0475  0.2067
 1006YOPC   GL114553  14.548   1.728   6.262  0.2919 -0.1347  0.3162
 1006YOPC   GL214554  14.467   1.667   6.447  0.1582  0.3688  0.0952
 1006YOPC   C1A14555  14.836   1.985   6.611 -0.3437 -0.0339  0.1056
 1006YOPC   D2A14556  15.092   2.210   6.940 -0.0165 -0.1735  0.2479
 1006YOPC   C3A14557  15.350   2.000   7.325 -0.0986 -0.0832  0.0095
 1006YOPC   C4A14558  15.702   1.751   7.538 -0.3287  0.0671  0.0138
 1006YOPC   C1B14559  14.368   1.819   6.698  0.3249 -0.0799  0.2321
 1006YOPC   C2B14560  14.326   1.727   7.127  0.0315  0.4304  0.0014
 1006YOPC   D3B14561  14.440   1.449   7.566 -0.0164  0.2816  0.1238
 1006YOPC   C4B14562  14.463   1.232   7.914  0.1400  0.1313  0.1111
 1007YOPC   NC314563  12.689   1.949   5.877 -0.3814  0.2000  0.1322
 1007YOPC   PO414564  13.148   2.088   6.046  0.2257  0.2065 -0.2692
 1007YOPC   GL114565  13.054   2.024   6.485  0.0693 -0.4012 -0.0700
 1007YOPC   GL214566  12.808   1.878   6.392 -0.0040  0.0261 -0.1348
 1007YOPC   C1A14567  13.280   2.137   6.831  0.2739 -0.0426 -0.0343
 1007YOPC   D2A14568  13.468   2.328   7.206  0.0098 -0.0317 -0.1153
 1007YOPC   C3A14569  13.453   2.628   7.561 -0.0328 -0.0453 -0.2543
 1007YOPC   C4A14570  13.523   2.553   8.069  0.1962 -0.3597  0.0712
 1007YOPC   C1B14571  12.927   1.725   6.880 -0.0985  0.3999  0.2511
 1007YOPC   C2B14572  12.919   1.449   7.295 -0.0559  0.1581 -0.0040
 1007YOPC   D3B14573  12.935   1.650   7.581 -0.0859 -0.6133 -0.2695
 1007YOPC   C4B14574  12.633   1.932   7.720 -0.3248 -0.0574 -0.0433
 1008YOPC   NC314575   0.048  11.129   5.875  0.0628  0.2415 -0.0207
 1008YOPC   PO414576   0.071  11.601   5.783 -0.1212  0.0191  0.1737
 1008YOPC   GL114577   0.306  11.436   6.186  0.0076 -0.2953  0.1004
 1008YOPC   GL214578   0.342  11.058   6.264 -0.0879 -0.0230 -0.2828
 1008YOPC   C1A14579   0.373  11.350   6.677 -0.0772 -0.0032 -0.0394
 1008YOPC   D2A14580   0.501  11.429   7.091 -0.2467 -0.0360  0.3715
 1008YOPC   C3A14581   0.764  11.197   7.313  0.2349  0.3396  0.0546
 1008YOPC   C4A14582   0.934  11.066   7.617  0.1588 -0.1609 -0.1523
 1008YOPC   C1B14583   0.654  10.913   6.547 -0.0629 -0.0205  0.0345
 1008YOPC   C2B14584   0.830  10.896   6.924  0.0879  0.0561  0.0193
 1008YOPC   D3B14585   0.753  10.714   7.256  0.0036  0.1999 -0.3019
 1008YOPC   C4B14586   0.846  10.535   7.672  0.1244  0.1452  0.1296
 1009YOPC   NC314587   9.606  14.306   6.113 -0.0374 -0.0507  0.0519
 1009YOPC   PO414588   9.580  14.701   6.207 -0.2361  0.0594  0.1490
 1009YOPC   GL114589   9.635  14.903   6.669  0.3836  0.0138 -0.2648
 1009YOPC   GL214590   9.962  15.056   6.762  0.2051  0.1944  0.2874
 1009YOPC   C1A14591   9.550  14.844   7.080  0.2458  0.1128 -0.1330
 1009YOPC   D2A14592   9.600  14.950   7.492  0.1673 -0.0819 -0.0142
 1009YOPC   C3A14593   9.740  15.399   7.531 -0.0824 -0.1764  0.0550
 1009YOPC   C4A14594   9.824  15.511   7.893  0.0802  0.1642 -0.1406
 1009YOPC   C1B14595  10.222  15.042   7.210  0.0427 -0.0248 -0.5497
 1009YOPC   C2B14596  10.074  15.113   7.677  0.1540  0.0110  0.1623
 1009YOPC   D3B14597   9.799  14.985   7.978  0.1767  0.1163 -0.3373
 1009YOPC   C4B14598   9.512  14.644   7.993  0.1580  0.2220  0.1486
 1010YOPC   NC314599  13.080   5.980   5.509  0.0317  0.1741  0.3051
 1010YOPC   PO414600  13.032   6.249   5.886  0.1836  0.0037  0.1082
 1010YOPC   GL114601  13.176   6.171   6.315  0.0602 -0.1511 -0.2736
 1010YOPC   GL214602  13.433   6.289   6.363  0.3037 -0.1660 -0.0258
 1010YOPC   C1A14603  13.095   6.391   6.769 -0.2398 -0.0620 -0.0593
 1010YOPC   D2A14604  12.770   6.555   7.075  0.0786 -0.2305  0.1621
 1010YOPC   C3A14605  12.735   6.370   7.473  0.3992 -0.2846 -0.0515
 1010YOPC   C4A14606  12.988   6.306   7.811  0.1436  0.2490 -0.2258
 1010YOPC   C1B14607  13.563   6.261   6.781  0.0975  0.0959  0.1777
 1010YOPC   C2B14608  13.305   6.355   7.234 -0.1349  0.0566  0.0057
 1010YOPC   D3B14609  13.644   6.632   7.445  0.0890  0.0837 -0.3924
 1010YOPC   C4B14610  13.915   6.823   7.704 -0.0015 -0.2419  0.0446
 1011YOPC   NC314611   6.932   1.919   6.246 -0.0620 -0.3640  0.3300
 1011YOPC   PO414612   7.035   1.401   6.172  0.2129 -0.0415 -0.0572
 1011YOPC   GL114613   6.979   1.470   6.657  0.0766 -0.0293 -0.0346
 1011YOPC   GL214614   7.081   1.202   6.819 -0.0120 -0.0564 -0.2413
 1011YOPC   C1A14615   6.664   1.541   6.817 -0.2544  0.0640  0.3816
 1011YOPC   D2A14616   6.452   1.420   7.117  0.2431  0.1554 -0.0502
 1011YOPC   C3A14617   6.605   1.362   7.507 -0.0174 -0.3606 -0.2447
 1011YOPC   C4A14618   6.511   1.151   7.936  0.0472 -0.1221 -0.0459
 1011YOPC   C1B14619   7.009   1.464   7.209 -0.0039 -0.0905 -0.1882
 1011YOPC   C2B14620   7.130   1.702   7.614 -0.0617  0.3258  0.1288
 1011YOPC   D3B14621   6.808   1.608   7.919 -0.0984  0.1895 -0.0914
 1011YOPC   C4B14622   6.631   1.613   8.300 -0.1605 -0.2555  0.3192
 1012YOPC   NC314623   0.941  16.735   5.757 -0.2097  0.0433 -0.1051
 1012YOPC   PO414624   1.228  17.076   5.771  0.1888  0.3659 -0.0796
 1012YOPC   GL114625   1.152  16.946   6.197  0.2655  0.2927  0.0683
 1012YOPC   GL214626   0.788  16.939   6.191 -0.4872 -0.0915  0.1681
 1012YOPC   C1A14627   1.441  16.918   6.546 -0.1594 -0.0591  0.2726
 1012YOPC   D2A14628   1.357  17.016   6.877 -0.1874 -0.0581 -0.0762
 1012YOPC   C3A14629   1.252  16.973   7.304  0.0961  0.0416 -0.0324
 1012YOPC   C4A14630   1.368  16.951   7.714 -0.1955 -0.0761 -0.0200
 1012YOPC   C1B14631   0.935  16.701   6.537 -0.0374 -0.1333 -0.2391
 1012YOPC   C2B14632   1.205  16.385   6.809 -0.1987 -0.0700 -0.1013
 1012YOPC   D3B14633   1.472  15.985   6.655 -0.2161  0.2230  0.0552
 1012YOPC   C4B14634   1.699  15.727   6.382 -0.0995  0.3068 -0.1974
 1013YOPC   NC314635   8.729  14.008   6.121  0.1398  0.2582  0.2419
 1013YOPC   PO414636   8.350  13.911   6.285 -0.3457  0.1652 -0.0582
 1013YOPC   GL114637   8.471  14.024   6.645  0.0811 -0.2889 -0.2289
 1013YOPC   GL214638   8.857  13.953   6.603  0.1286  0.2353  0.0742
 1013YOPC   C1A14639   8.644  14.370   6.831 -0.1589  0.1881 -0.1127
 1013YOPC   D2A14640   8.450  14.584   7.235  0.3960 -0.0209  0.0324
 1013YOPC   C3A14641   8.829  14.701   7.368 -0.2284 -0.4405 -0.3033
 1013YOPC   C4A14642   8.966  15.103   7.522 -0.0469 -0.2371 -0.5523
 1013YOPC   C1B14643   8.920  13.999   7.058  0.1063  0.0688 -0.0998
 1013YOPC   C2B14644   8.900  14.130   7.409 -0.2883  0.0094  0.3961
 1013YOPC   D3B14645   8.563  14.143   7.646 -0.0812 -0.2284 -0.3408
 1013YOPC   C4B14646   8.322  13.935   7.866  0.0454  0.0124 -0.0785
 1014YOPC   NC314647   7.850  17.217   6.035 -0.0678 -0.0114  0.0639
 1014YOPC   PO414648   7.650  16.898   6.348 -0.0767 -0.1352 -0.1729
 1014YOPC   GL114649   7.594  16.789   6.765  0.1596  0.1321  0.0337
 1014YOPC   GL214650   7.868  16.780   6.841 -0.4045 -0.2689  0.0068
 1014YOPC   C1A14651   7.355  16.648   7.196 -0.1536  0.0606  0.2635
 1014YOPC   D2A14652   7.184  16.304   7.427 -0.3253  0.1310 -0.0464
 1014YOPC   C3A14653   7.467  16.133   7.800 -0.0007  0.1276  0.3774
 1014YOPC   C4A14654   7.637  15.617   7.881  0.2214 -0.0121  0.1277
 1014YOPC   C1B14655   7.802  16.766   7.307  0.0215 -0.0123  0.2516
 1014YOPC   C2B14656   7.798  16.724   7.720 -0.1141  0.1274  0.0876
 1014YOPC   D3B14657   7.415  16.716   7.822  0.2536 -0.0112  0.1006
 1014YOPC   C4B14658   7.239  16.506   8.128  0.0710  0.0904 -0.0665
 1015YOPC   NC314659  12.719  15.345   6.046  0.2564  0.1409  0.0318
 1015YOPC   PO414660  12.593  14.939   6.143  0.0559  0.1068  0.3814
 1015YOPC   GL114661  12.582  14.815   6.573 -0.5563  0.1705 -0.0459
 1015YOPC   GL214662  12.660  14.504   6.660  0.4355  0.4133  0.0467
 1015YOPC   C1A14663  12.591  15.104   6.902 -0.0191  0.1494  0.1764
 1015YOPC   D2A14664  12.679  15.468   7.161 -0.0380 -0.0952  0.0080
 1015YOPC   C3A14665  12.886  15.653   7.481 -0.1029  0.0907  0.1829
 1015YOPC   C4A14666  13.315  15.708   7.659  0.0992  0.1264  0.1816
 1015YOPC   C1B14667  12.662  14.529   7.060 -0.2067 -0.3794 -0.0595
 1015YOPC   C2B14668  12.879  14.466   7.405 -0.3369  0.1783 -0.0695
 1015YOPC   D3B14669  12.995  14.679   7.714 -0.1509 -0.0640  0.2712
 1015YOPC   C4B14670  12.982  14.996   8.043  0.1524 -0.0055  0.1068
 1016YOPC   NC314671   9.289   0.064   6.024 -0.1167  0.0042 -0.2081
 1016YOPC   PO414672   9.380   0.420   6.275  0.1776 -0.1301 -0.0379
 1016YOPC   GL114673   9.358   0.381   6.742  0.2170  0.2861 -0.3076
 1016YOPC   GL214674   9.255   0.654   6.948  0.3634 -0.0547 -0.5622
 1016YOPC   C1A14675   9.236   0.117   7.021 -0.2014 -0.4222  0.2398
 1016YOPC   D2A14676   9.270   0.025   7.426  0.0832 -0.3700 -0.1026
 1016YOPC   C3A14677   9.171  -0.125   7.740  0.1988  0.2403  0.0741
 1016YOPC   C4A14678   9.150   0.129   8.161 -0.1407  0.0598 -0.0526
 1016YOPC   C1B14679   9.300   0.629   7.400  0.1261  0.1745  0.4698
 1016YOPC   C2B14680   9.058   0.782   7.741 -0.0028  0.1240  0.0372
 1016YOPC   D3B14681   8.997   0.700   8.183 -0.0994  0.1357 -0.1272
 1016YOPC   C4B14682   8.699   0.542   8.498 -0.0034 -0.2237 -0.2439
 1017YOPC   NC314683   4.055   0.548   6.053  0.1374 -0.0424 -0.0314
 1017YOPC   PO414684   4.508   0.474   6.171  0.2328  0.0586  0.0159
 1017YOPC   GL114685   4.351   0.271   6.453 -0.0828 -0.0602 -0.2793
 1017YOPC   GL214686   4.334   0.308   6.754  0.0397 -0.0369  0.1946
 1017YOPC   C1A14687   4.473  -0.186   6.672  0.1635 -0.2072  0.1218
 1017YOPC   D2A14688   4.723  -0.357   7.021  0.1302  0.0338 -0.1688
 1017YOPC   C3A14689   4.507  -0.447   7.338  0.1052 -0.0148 -0.1048
 1017YOPC   C4A14690   4.240  -0.479   7.753 -0.1632 -0.3531  0.0516
 1017YOPC   C1B14691   4.134   0.438   6.991 -0.4253  0.1191  0.1056
 1017YOPC   C2B14692   4.303   0.495   7.367  0.3835 -0.1029  0.1797
 1017YOPC   D3B14693   4.290   0.565   7.870  0.1709  0.2160 -0.0300
 1017YOPC   C4B14694   4.465   0.981   8.105 -0.4614 -0.1734  0.2705
 1018YOPC   NC314695   2.958   1.194   5.875 -0.0490  0.1002 -0.1334
 1018YOPC   PO414696   3.118   0.840   5.960  0.0666 -0.1417 -0.0824
 1018YOPC   GL114697   3.069   0.752   6.390  0.1810 -0.0267 -0.0621
 1018YOPC   GL214698   3.439   0.742   6.534  0.3605  0.1134  0.1895
 1018YOPC   C1A14699   2.734   0.534   6.667 -0.1432  0.2501  0.0667
 1018YOPC   D2A14700   2.745   0.305   7.002  0.1058 -0.0192  0.1210
 1018YOPC   C3A14701   2.409   0.274   7.206  0.3429  0.0566 -0.0785
 1018YOPC   C4A14702   2.152   0.547   7.320 -0.5210 -0.1317 -0.1877
 1018YOPC   C1B14703   3.235   0.697   6.946 -0.0577 -0.1000 -0.2707
 1018YOPC   C2B14704   3.164   0.619   7.328  0.2515 -0.1175 -0.0674
 1018YOPC   D3B14705   3.054   1.000   7.660  0.3340  0.1519 -0.2441
 1018YOPC   C4B14706   2.770   1.354   7.734  0.0278 -0.0126  0.3527
 1019YOPC   NC314707   8.748  15.749   6.242  0.0315 -0.0918  0.0013
 1019YOPC   PO414708   8.812  16.157   6.213  0.0437  0.0535 -0.1512
 1019YOPC   GL114709   8.741  16.020   6.671 -0.1384 -0.1631 -0.1669
 1019YOPC   GL214710   8.464  16.293   6.667  0.1240  0.0860  0.1803
 1019YOPC   C1A14711   8.580  15.819   7.065 -0.2188  0.0809 -0.0955
 1019YOPC   D2A14712   8.369  16.071   7.421  0.2354  0.1016 -0.0234
 1019YOPC   C3A14713   8.615  16.099   7.796 -0.0457  0.2230 -0.0002
 1019YOPC   C4A14714   8.795  16.510   7.934  0.3653  0.2413 -0.2207
 1019YOPC   C1B14715   8.628  16.347   7.048 -0.0075  0.3240  0.1787
 1019YOPC   C2B14716   8.945  16.200   7.370 -0.0707 -0.2051 -0.6046
 1019YOPC   D3B14717   9.132  16.169   7.728 -0.0160  0.1351  0.1201
 1019YOPC   C4B14718   9.160  16.127   8.138  0.0256  0.0529 -0.1502
 1020YOPC   NC314719  15.355   2.340   5.786 -0.0844  0.0349 -0.1009
 1020YOPC   PO414720  15.329   2.631   6.170 -0.2372  0.2121 -0.0851
 1020YOPC   GL114721  15.295   2.650   6.640  0.3131 -0.1171  0.0140
 1020YOPC   GL214722  14.989   2.608   6.603 -0.1368 -0.1061 -0.1399
 1020YOPC   C1A14723  15.277   2.891   6.994 -0.3666 -0.0053  0.0476
 1020YOPC   D2A14724  15.156   2.975   7.464  0.2127 -0.0465 -0.2223
 1020YOPC   C3A14725  15.389   2.891   7.852  0.0743 -0.0460  0.0466
 1020YOPC   C4A14726  15.393   2.652   8.182 -0.1638 -0.0761 -0.0727
 1020YOPC   C1B14727  14.620   2.423   6.810 -0.0626 -0.1984  0.0834
 1020YOPC   C2B14728  14.511   2.140   7.056 -0.0834 -0.1137 -0.1307
 1020YOPC   D3B14729  14.303   2.182   7.520 -0.0740 -0.3036  0.0596
 1020YOPC   C4B14730  13.940   2.390   7.694 -0.2278  0.0990  0.1703
 1021YOPC   NC314731   0.041   3.720   5.941 -0.1293  0.3015 -0.2232
 1021YOPC   PO414732   0.384   3.355   5.734 -0.3639  0.1688 -0.2968
 1021YOPC   GL114733   0.455   3.399   6.169  0.0155  0.1245  0.0739
 1021YOPC   GL214734   0.547   3.229   6.417  0.2367 -0.2180 -0.2226
 1021YOPC   C1A14735   0.318   3.730   6.534 -0.3364  0.1407  0.1390
 1021YOPC   D2A14736   0.315   3.753   6.989 -0.2279  0.3379 -0.0050
 1021YOPC   C3A14737   0.518   4.034   7.139  0.0915  0.2824  0.2263
 1021YOPC   C4A14738   0.826   4.368   7.281  0.3058  0.2063  0.1498
 1021YOPC   C1B14739   0.469   3.192   6.742 -0.3944 -0.2111 -0.0423
 1021YOPC   C2B14740   0.415   3.247   7.207  0.1020  0.4124  0.0354
 1021YOPC   D3B14741   0.391   3.633   7.472 -0.0428  0.0109  0.1266
 1021YOPC   C4B14742   0.696   3.998   7.658 -0.0022  0.4269 -0.0539
 1022YOPC   NC314743   3.136   7.199   5.660  0.1312 -0.1784  0.1516
 1022YOPC   PO414744   2.786   7.502   5.710  0.1576  0.1912  0.2655
 1022YOPC   GL114745   2.927   7.408   6.119 -0.1531  0.0547 -0.4188
 1022YOPC   GL214746   3.172   7.687   6.281  0.0487 -0.1120  0.1231
 1022YOPC   C1A14747   2.823   7.500   6.584 -0.2058  0.0763  0.0748
 1022YOPC   D2A14748   2.664   7.573   6.968  0.1250 -0.2510 -0.1041
 1022YOPC   C3A14749   2.738   7.882   7.217  0.1568  0.0169  0.0401
 1022YOPC   C4A14750   3.055   8.016   7.329 -0.0589  0.2603  0.2415
 1022YOPC   C1B14751   3.422   7.558   6.621  0.2675  0.2211 -0.0237
 1022YOPC   C2B14752   3.625   7.382   7.012  0.0531  0.2460  0.2611
 1022YOPC   D3B14753   3.913   7.499   7.271  0.1305 -0.0451 -0.1935
 1022YOPC   C4B14754   3.877   7.400   7.676  0.3573  0.1153 -0.0010
 1023YOPC   NC314755   2.269  11.508   5.803  0.2623  0.0584 -0.0764
 1023YOPC   PO414756   1.865  11.476   5.954  0.0367  0.1592 -0.1711
 1023YOPC   GL114757   1.827  11.598   6.393  0.0215 -0.1235  0.2251
 1023YOPC   GL214758   2.026  11.446   6.517  0.0850 -0.1369  0.2117
 1023YOPC   C1A14759   1.864  11.816   6.746  0.0692  0.2037  0.2500
 1023YOPC   D2A14760   2.189  11.742   6.986  0.2081 -0.1766 -0.0028
 1023YOPC   C3A14761   1.971  11.380   7.196  0.0392  0.0649  0.0203
 1023YOPC   C4A14762   1.846  11.169   7.574  0.2816 -0.0566  0.1615
 1023YOPC   C1B14763   2.287  11.245   6.799 -0.1980 -0.2823 -0.3479
 1023YOPC   C2B14764   2.468  11.389   7.251  0.0648 -0.2903 -0.1120
 1023YOPC   D3B14765   2.663  11.749   7.286 -0.1096 -0.0519 -0.2115
 1023YOPC   C4B14766   3.018  11.906   7.048 -0.0138 -0.2287  0.2120
 1024YOPC   NC314767  16.077  10.836   5.931  0.2259  0.0680  0.1763
 1024YOPC   PO414768  15.540  10.607   5.930 -0.3763 -0.0760 -0.0510
 1024YOPC   GL114769  15.564  10.658   6.369  0.0804  0.1445 -0.1505
 1024YOPC   GL214770  15.306  10.832   6.587 -0.1242  0.0687 -0.0994
 1024YOPC   C1A14771  15.741  10.626   6.745 -0.1063 -0.1738  0.2354
 1024YOPC   D2A14772  15.744  10.495   7.208  0.1735 -0.0042 -0.2466
 1024YOPC   C3A14773  15.827  10.695   7.534 -0.3125  0.0753 -0.2261
 1024YOPC   C4A14774  15.990  10.903   7.939  0.2029 -0.0983  0.1465
 1024YOPC   C1B14775  15.268  10.853   6.935  0.3101 -0.0716 -0.0293
 1024YOPC   C2B14776  15.201  10.573   7.300  0.2422 -0.1729 -0.1337
 1024YOPC   D3B14777  14.814  10.552   7.478  0.3286  0.1074  0.0540
 1024YOPC   C4B14778  14.528  10.635   7.674 -0.0656 -0.0500  0.1650
 1025YOPC   NC314779   4.950   9.692   5.283 -0.0378 -0.1367 -0.1211
 1025YOPC   PO414780   5.114   9.367   5.540 -0.1701  0.0149 -0.0965
 1025YOPC   GL114781   5.183   9.697   5.889  0.0243 -0.1233  0.0660
 1025YOPC   GL214782   5.482   9.626   6.089 -0.2160  0.0583  0.3200
 1025YOPC   C1A14783   5.083  10.041   6.108  0.0741 -0.0036  0.1226
 1025YOPC   D2A14784   5.255  10.111   6.494  0.0572  0.0302 -0.0179
 1025YOPC   C3A14785   5.185   9.966   6.830  0.1221  0.3824  0.0083
 1025YOPC   C4A14786   5.273   9.739   7.283 -0.3447  0.0541 -0.0224
 1025YOPC   C1B14787   5.549   9.693   6.541 -0.0177 -0.3548  0.0620
 1025YOPC   C2B14788   5.559   9.603   6.870  0.1582  0.1184 -0.0453
 1025YOPC   D3B14789   5.696   9.492   7.288 -0.2499 -0.3553 -0.1406
 1025YOPC   C4B14790   5.704   9.059   7.646 -0.2255  0.2561  0.1623
 1026YOPC   NC314791   2.524  15.305   5.456  0.1658 -0.0801 -0.4102
 1026YOPC   PO414792   2.516  15.125   5.813  0.3192  0.1091 -0.1193
 1026YOPC   GL114793   2.717  15.063   6.128 -0.0242  0.0514 -0.0139
 1026YOPC   GL214794   2.612  14.808   6.314 -0.2661 -0.0714 -0.3073
 1026YOPC   C1A14795   2.840  15.180   6.510  0.1590 -0.4212  0.0735
 1026YOPC   D2A14796   2.653  15.089   6.899  0.0134  0.0854 -0.0873
 1026YOPC   C3A14797   2.873  15.357   7.109  0.1890 -0.1511  0.2211
 1026YOPC   C4A14798   2.916  15.733   7.186  0.0078  0.0619 -0.1341
 1026YOPC   C1B14799   2.610  14.645   6.704  0.1394  0.0444  0.3714
 1026YOPC   C2B14800   2.683  14.602   7.094 -0.1408 -0.0610 -0.3066
 1026YOPC   D3B14801   2.693  14.901   7.391 -0.3464 -0.0781 -0.1118
 1026YOPC   C4B14802   2.901  15.104   7.688 -0.1145  0.2961  0.2825
 1027YOPC   NC314803  16.608   3.017   6.030  0.0841  0.1340  0.0700
 1027YOPC   PO414804  16.685   2.628   6.023  0.0174  0.0280 -0.0762
 1027YOPC   GL114805  16.546   2.723   6.415 -0.3168 -0.1094  0.4204
 1027YOPC   GL214806  16.830   2.862   6.610  0.0937  0.0325 -0.1931
 1027YOPC   C1A14807  16.381   2.895   6.818  0.0748  0.0100 -0.2648
 1027YOPC   D2A14808  16.633   2.997   7.209 -0.1040 -0.5803  0.2079
 1027YOPC   C3A14809  16.515   3.191   7.556 -0.3300 -0.1689 -0.3239
 1027YOPC   C4A14810  16.297   3.370   7.907  0.3048  0.0943 -0.0952
 1027YOPC   C1B14811  16.643   3.250   6.675  0.2310  0.1387  0.2783
 1027YOPC   C2B14812  16.614   3.509   7.015  0.1731 -0.1012 -0.0681
 1027YOPC   D3B14813  16.259   3.569   7.383 -0.0603  0.0490  0.0850
 1027YOPC   C4B14814  16.069   3.780   7.641  0.2875 -0.2449 -0.2293
 1028YOPC   NC314815  11.486   6.828   6.113 -0.3768  0.1532  0.2146
 1028YOPC   PO414816  10.977   6.825   6.093 -0.0535  0.0989 -0.0950
 1028YOPC   GL114817  10.852   7.096   6.482  0.0431  0.0443  0.2586
 1028YOPC   GL214818  10.671   6.793   6.521 -0.2766 -0.0999  0.0867
 1028YOPC   C1A14819  10.607   7.334   6.728 -0.0417  0.1012 -0.0345
 1028YOPC   D2A14820  10.265   7.183   7.136 -0.4694 -0.0263 -0.0788
 1028YOPC   C3A14821  10.290   7.216   7.614 -0.2282  0.1673  0.3421
 1028YOPC   C4A14822  10.630   7.300   7.886 -0.1208  0.1975  0.4076
 1028YOPC   C1B14823  10.673   6.903   7.020 -0.2101  0.0241  0.3388
 1028YOPC   C2B14824  10.738   7.108   7.406 -0.1238  0.2628 -0.4311
 1028YOPC   D3B14825  10.697   6.813   7.708  0.2609  0.3478  0.0029
 1028YOPC   C4B14826  10.371   6.805   7.993  0.0026 -0.0773 -0.1901
 1029YOPC   NC314827  10.450   0.535   5.989 -0.1333 -0.0409  0.3805
 1029YOPC   PO414828  10.422   0.603   6.328 -0.1640  0.0728 -0.0769
 1029YOPC   GL114829  10.582   0.366   6.584 -0.0539  0.0494 -0.0159
 1029YOPC   GL214830  10.340   0.256   6.711  0.0640  0.1049  0.0913
 1029YOPC   C1A14831  10.912   0.367   6.916 -0.0638 -0.1564 -0.1920
 1029YOPC   D2A14832  10.817   0.339   7.327  0.1113  0.0279  0.0179
 1029YOPC   C3A14833  11.015   0.279   7.722  0.0686  0.2053  0.1361
 1029YOPC   C4A14834  10.816   0.165   8.097 -0.2707  0.2276 -0.1318
 1029YOPC   C1B14835  10.408   0.455   7.061  0.0965  0.1370  0.0633
 1029YOPC   C2B14836  10.331   0.541   7.446  0.3424  0.0488 -0.1069
 1029YOPC   D3B14837  10.549   0.546   7.810  0.1365 -0.1060  0.0635
 1029YOPC   C4B14838  10.565   0.526   8.313  0.1821 -0.4357  0.0646
 1030YOPC   NC314839   7.861  13.995   6.284  0.0711  0.0962 -0.3012
 1030YOPC   PO414840   7.494  13.987   6.151  0.0637  0.2972 -0.1016
 1030YOPC   GL114841   7.443  14.077   6.682  0.2294 -0.4329 -0.1987
 1030YOPC   GL214842   7.743  13.878   6.806  0.0248  0.2306 -0.0287
 1030YOPC   C1A14843   7.310  13.811   7.078 -0.0694 -0.0920  0.1127
 1030YOPC   D2A14844   7.349  13.899   7.427 -0.1466  0.0330 -0.0526
 1030YOPC   C3A14845   7.017  13.854   7.857  0.1221  0.0411 -0.0052
 1030YOPC   C4A14846   6.719  13.431   7.873 -0.0885 -0.1498 -0.0578
 1030YOPC   C1B14847   7.836  13.776   7.229 -0.2316  0.2423  0.0689
 1030YOPC   C2B14848   7.927  13.834   7.530  0.1893  0.0132  0.1846
 1030YOPC   D3B14849   8.052  13.479   7.868 -0.1074 -0.0383  0.0447
 1030YOPC   C4B14850   8.136  13.033   7.920  0.3471 -0.1490  0.0309
 1031YOPC   NC314851   0.251  12.562   5.801 -0.2469  0.2385  0.2025
 1031YOPC   PO414852  -0.132  12.428   5.971 -0.1827  0.0637  0.1049
 1031YOPC   GL114853   0.106  12.541   6.276 -0.0340 -0.1920 -0.1445
 1031YOPC   GL214854  -0.020  12.863   6.212 -0.0551 -0.0263 -0.1796
 1031YOPC   C1A14855   0.291  12.813   6.644  0.0347 -0.1965 -0.0160
 1031YOPC   D2A14856   0.343  12.620   6.957 -0.1773  0.0195  0.0410
 1031YOPC   C3A14857   0.210  12.764   7.412 -0.2661  0.0021  0.2126
 1031YOPC   C4A14858  -0.097  12.897   7.723  0.1098 -0.2223  0.1878
 1031YOPC   C1B14859  -0.307  13.043   6.405  0.0093 -0.1408 -0.1450
 1031YOPC   C2B14860  -0.328  13.329   6.713  0.0651 -0.0091  0.1947
 1031YOPC   D3B14861  -0.575  13.269   7.018  0.0601  0.1441  0.0390
 1031YOPC   C4B14862  -0.892  12.986   7.150  0.1506 -0.1172  0.0117
 1032YOPC   NC314863   2.140   0.190   5.983  0.1538 -0.1104  0.1230
 1032YOPC   PO414864   1.724   0.345   6.039 -0.1724 -0.0429 -0.1926
 1032YOPC   GL114865   1.624   0.392   6.392  0.0540 -0.2230 -0.1113
 1032YOPC   GL214866   1.868   0.384   6.628  0.1042  0.0752  0.1635
 1032YOPC   C1A14867   1.432   0.079   6.753  0.1135  0.4760 -0.1851
 1032YOPC   D2A14868   1.423   0.163   7.185 -0.2510  0.2756  0.0375
 1032YOPC   C3A14869   1.196   0.501   7.329 -0.1444  0.0822  0.1016
 1032YOPC   C4A14870   1.149   0.852   7.603  0.2164 -0.3500  0.0323
 1032YOPC   C1B14871   1.756   0.448   7.039 -0.0993  0.2905  0.2755
 1032YOPC   C2B14872   1.655   0.717   7.386  0.0596 -0.0187 -0.0903
 1032YOPC   D3B14873   1.946   0.724   7.830 -0.0293 -0.1532  0.0206
 1032YOPC   C4B14874   1.790   0.432   8.131 -0.3157 -0.0240  0.2845
 1033YOPC   NC314875   6.188  11.963   6.277 -0.0292  0.1425 -0.0649
 1033YOPC   PO414876   5.968  11.625   6.134  0.1401 -0.1410 -0.0936
 1033YOPC   GL114877   5.778  11.649   6.539 -0.2713 -0.1140  0.1588
 1033YOPC   GL214878   5.807  11.991   6.636 -0.1666  0.1704 -0.0712
 1033YOPC   C1A14879   5.986  11.668   6.907  0.2093 -0.0170  0.1470
 1033YOPC   D2A14880   5.993  11.714   7.392 -0.2988 -0.0951  0.2607
 1033YOPC   C3A14881   6.125  11.995   7.696  0.1114  0.1315  0.2547
 1033YOPC   C4A14882   6.054  12.205   8.029  0.0130 -0.0222 -0.0500
 1033YOPC   C1B14883   5.596  11.972   7.118 -0.4331 -0.4702  0.2395
 1033YOPC   C2B14884   5.411  12.386   7.430 -0.1818  0.2000  0.0784
 1033YOPC   D3B14885   5.398  12.270   7.914 -0.2487  0.0390  0.1657
 1033YOPC   C4B14886   5.633  12.198   8.256  0.5791  0.1865 -0.0749
 1034YOPC   NC314887   2.745   8.544   5.837 -0.4438  0.3512 -0.0099
 1034YOPC   PO414888   3.132   8.400   5.926 -0.1731 -0.4106  0.2294
 1034YOPC   GL114889   3.114   8.679   6.237  0.1880 -0.1488  0.2239
 1034YOPC   GL214890   2.890   8.734   6.339  0.1692  0.1468 -0.1695
 1034YOPC   C1A14891   3.053   9.173   6.206  0.1026 -0.1467  0.0039
 1034YOPC   D2A14892   2.747   9.262   6.512 -0.0955 -0.3385  0.1813
 1034YOPC   C3A14893   2.869   9.298   7.006  0.1592  0.1382  0.1827
 1034YOPC   C4A14894   3.006   9.394   7.367  0.1295  0.0315  0.0349
 1034YOPC   C1B14895   3.120   8.978   6.680  0.4143  0.0441 -0.5757
 1034YOPC   C2B14896   3.275   9.014   7.168  0.2789  0.0443 -0.1507
 1034YOPC   D3B14897   3.577   8.899   7.443 -0.0775 -0.1257 -0.2813
 1034YOPC   C4B14898   3.787   9.168   7.745  0.2208 -0.0838  0.0757
 1035YOPC   NC314899  17.004  16.220   5.932  0.0681 -0.2626  0.1602
 1035YOPC   PO414900  16.863  16.630   5.900  0.1575 -0.1934 -0.3520
 1035YOPC   GL114901  16.769  16.516   6.362  0.2583  0.1952 -0.0025
 1035YOPC   GL214902  16.385  16.404   6.446 -0.1418 -0.0025 -0.1632
 1035YOPC   C1A14903  16.879  16.490   6.827 -0.1140 -0.0270  0.0373
 1035YOPC   D2A14904  17.229  16.451   7.247 -0.2302 -0.2597 -0.0449
 1035YOPC   C3A14905  17.369  16.862   7.294  0.0297 -0.0013 -0.1914
 1035YOPC   C4A14906  17.357  17.154   7.130  0.2169 -0.1652 -0.0499
 1035YOPC   C1B14907  16.401  16.678   6.724  0.1413 -0.2084  0.2636
 1035YOPC   C2B14908  16.478  16.646   7.143  0.0458 -0.1115 -0.0414
 1035YOPC   D3B14909  16.705  16.302   7.259  0.0575 -0.3190 -0.2138
 1035YOPC   C4B14910  16.977  16.322   7.686 -0.2380  0.3095  0.2174
 1036YOPC   NC314911  17.377  15.432   5.913 -0.0886  0.2823  0.1568
 1036YOPC   PO414912  17.682  15.120   5.850 -0.2890  0.2480 -0.0671
 1036YOPC   GL114913  17.592  15.153   6.262  0.0312 -0.1428  0.0383
 1036YOPC   GL214914  17.638  15.395   6.324  0.1014 -0.0894 -0.4783
 1036YOPC   C1A14915  17.420  15.071   6.687  0.1719  0.1237 -0.2630
 1036YOPC   D2A14916  17.225  14.961   6.916  0.0631 -0.1269  0.2875
 1036YOPC   C3A14917  16.922  14.995   7.221 -0.0057 -0.1350 -0.2501
 1036YOPC   C4A14918  16.703  14.653   7.340  0.1420  0.0258 -0.0285
 1036YOPC   C1B14919  17.894  15.076   6.627 -0.1287 -0.4403  0.0055
 1036YOPC   C2B14920  18.113  15.149   6.989 -0.1684  0.1162  0.1864
 1036YOPC   D3B14921  18.255  15.122   7.396  0.1665  0.3059 -0.0077
 1036YOPC   C4B14922  18.222  15.154   7.906 -0.0250 -0.2338  0.2162
 1037YOPC   NC314923  13.614  17.892   5.849  0.1001 -0.2581 -0.0397
 1037YOPC   PO414924  14.109  18.071   5.850 -0.2807  0.0871 -0.0499
 1037YOPC   GL114925  13.882  18.065   6.234  0.2591 -0.1433  0.0388
 1037YOPC   GL214926  14.192  17.900   6.364  0.0026  0.0842 -0.1544
 1037YOPC   C1A14927  13.757  18.026   6.635  0.0530  0.1623  0.0472
 1037YOPC   D2A14928  13.659  17.790   6.964  0.0505 -0.0415 -0.1030
 1037YOPC   C3A14929  13.565  17.554   7.402  0.3027 -0.0317  0.2269
 1037YOPC   C4A14930  13.194  17.599   7.651 -0.3996 -0.4793  0.1360
 1037YOPC   C1B14931  14.015  17.577   6.617 -0.1652  0.1300 -0.0656
 1037YOPC   C2B14932  13.725  17.374   6.532  0.2500  0.0009  0.1737
 1037YOPC   D3B14933  13.475  17.646   6.362  0.1765  0.5587 -0.1043
 1037YOPC   C4B14934  13.281  18.120   6.383 -0.0186 -0.1624 -0.0509
 1038YOPC   NC314935  11.685  16.851   6.403 -0.1423  0.0067 -0.1721
 1038YOPC   PO414936  11.352  16.650   6.256 -0.0558 -0.1952 -0.1662
 1038YOPC   GL114937  11.444  16.392   6.658 -0.2036 -0.0710  0.0163
 1038YOPC   GL214938  11.702  16.599   6.804 -0.1370 -0.0442 -0.1636
 1038YOPC   C1A14939  11.363  16.516   7.139  0.0202  0.3002  0.0875
 1038YOPC   D2A14940  11.017  16.346   7.375  0.1240 -0.1366 -0.4224
 1038YOPC   C3A14941  11.043  16.070   7.742  0.1622  0.0102 -0.0131
 1038YOPC   C4A14942  11.180  15.979   8.059 -0.0085  0.2551 -0.2694
 1038YOPC   C1B14943  11.940  16.187   6.968  0.0632 -0.0289  0.0060
 1038YOPC   C2B14944  11.870  15.891   7.261 -0.0118 -0.0981 -0.1661
 1038YOPC   D3B14945  11.991  15.892   7.598  0.4148 -0.0388 -0.3485
 1038YOPC   C4B14946  12.168  15.723   7.998 -0.0987 -0.1722  0.1296
 1039YOPC   NC314947  15.016  15.311   5.841 -0.0689  0.2211 -0.0261
 1039YOPC   PO414948  15.153  15.698   6.039 -0.1601  0.1472 -0.1059
 1039YOPC   GL114949  15.394  15.595   6.294  0.2882 -0.0376  0.1156
 1039YOPC   GL214950  15.674  15.568   6.367 -0.1731 -0.1029 -0.1137
 1039YOPC   C1A14951  15.398  15.450   6.775 -0.0871  0.0905 -0.0847
 1039YOPC   D2A14952  15.457  15.299   7.213 -0.2016 -0.0459 -0.0357
 1039YOPC   C3A14953  15.421  15.280   7.643 -0.1315  0.0273 -0.1141
 1039YOPC   C4A14954  15.490  14.992   8.111  0.1474  0.1143 -0.0825
 1039YOPC   C1B14955  16.082  15.955   6.501 -0.0909  0.0143  0.0301
 1039YOPC   C2B14956  16.508  16.026   6.771  0.3118  0.0721 -0.0881
 1039YOPC   D3B14957  16.486  15.826   7.262  0.4617 -0.1797  0.1018
 1039YOPC   C4B14958  16.528  15.985   7.642  0.0673 -0.0973  0.0688
 1040YOPC   NC314959   4.868   1.870   5.654 -0.1820 -0.1824 -0.0279
 1040YOPC   PO414960   4.784   1.824   6.200  0.0937  0.0068  0.1592
 1040YOPC   GL114961   4.524   1.733   6.587  0.1735  0.1114  0.1688
 1040YOPC   GL214962   4.712   1.512   6.798 -0.0887 -0.1120 -0.0928
 1040YOPC   C1A14963   4.137   1.738   6.756  0.1041  0.3925  0.1094
 1040YOPC   D2A14964   4.025   1.802   7.173  0.1329  0.1434 -0.0442
 1040YOPC   C3A14965   3.651   1.930   7.435 -0.0634  0.0640  0.1481
 1040YOPC   C4A14966   3.267   2.103   7.596  0.1204  0.2262  0.3877
 1040YOPC   C1B14967   4.478   1.524   7.140 -0.2648 -0.2328 -0.2107
 1040YOPC   C2B14968   4.254   1.538   7.479 -0.0924  0.1493 -0.2708
 1040YOPC   D3B14969   4.400   1.536   7.873  0.1951 -0.0706 -0.2589
 1040YOPC   C4B14970   4.252   1.531   8.260  0.2935  0.3084  0.1202
 1041YOPC   NC314971  14.402  10.950   5.982 -0.0202  0.1174 -0.0071
 1041YOPC   PO414972  14.599  10.486   6.015  0.1571 -0.2130  0.0651
 1041YOPC   GL114973  14.496  10.647   6.420 -0.1665 -0.2817 -0.1975
 1041YOPC   GL214974  14.652  10.436   6.543 -0.2710 -0.2018  0.2500
 1041YOPC   C1A14975  14.266  10.729   6.725 -0.1813 -0.0835  0.3565
 1041YOPC   D2A14976  13.835  10.660   7.125 -0.0997  0.0668 -0.0020
 1041YOPC   C3A14977  13.962  10.737   7.517 -0.1203 -0.1132  0.0237
 1041YOPC   C4A14978  13.723  11.060   7.841  0.2328  0.1470 -0.1324
 1041YOPC   C1B14979  14.891  10.384   6.941 -0.1678 -0.1836 -0.1840
 1041YOPC   C2B14980  14.666  10.162   7.221 -0.1696  0.2588 -0.2233
 1041YOPC   D3B14981  14.918  10.062   7.524 -0.2523  0.0726  0.2148
 1041YOPC   C4B14982  15.260  10.341   7.771  0.1045 -0.0205 -0.2058
 1042YOPC   NC314983   1.298   6.559   5.662  0.1589 -0.4618  0.2911
 1042YOPC   PO414984   1.029   6.898   5.652  0.1754 -0.1931 -0.3352
 1042YOPC   GL114985   1.161   7.038   5.985  0.0043  0.0392 -0.3533
 1042YOPC   GL214986   1.052   7.306   5.993  0.0982  0.2275 -0.1980
 1042YOPC   C1A14987   1.275   6.868   6.325 -0.0313 -0.0591  0.0255
 1042YOPC   D2A14988   1.314   6.988   6.771  0.3170  0.1298 -0.1849
 1042YOPC   C3A14989   1.011   7.132   6.918  0.2557 -0.1770  0.1347
 1042YOPC   C4A14990   1.002   7.262   7.313  0.1885 -0.0807 -0.2418
 1042YOPC   C1B14991   0.866   7.135   6.387  0.3291 -0.2626 -0.1184
 1042YOPC   C2B14992   0.757   6.824   6.590 -0.0566 -0.0053  0.1721
 1042YOPC   D3B14993   0.620   6.803   6.926  0.2142  0.0138 -0.2420
 1042YOPC   C4B14994   0.504   7.087   7.169  0.0980 -0.3224 -0.2914
 1043YOPC   NC314995  12.488   5.370   6.198  0.2630 -0.0820 -0.0164
 1043YOPC   PO414996  12.412   5.839   6.122  0.0928  0.0854 -0.1227
 1043YOPC   GL114997  12.306   6.060   6.504  0.0431 -0.0985 -0.1230
 1043YOPC   GL214998  12.627   6.222   6.623  0.2281 -0.2939 -0.2013
 1043YOPC   C1A14999  12.283   6.080   6.987 -0.1450  0.1237  0.1697
 1043YOPC   D2A15000  12.383   5.946   7.362 -0.0181 -0.1862 -0.2463
 1043YOPC   C3A15001  12.776   5.918   7.450  0.1773 -0.1430 -0.0313
 1043YOPC   C4A15002  13.176   5.881   7.413 -0.1346  0.0328  0.2519
 1043YOPC   C1B15003  12.786   5.977   6.925 -0.2561 -0.1789 -0.2977
 1043YOPC   C2B15004  12.600   5.566   7.096 -0.2360  0.0697 -0.0147
 1043YOPC   D3B15005  13.005   5.313   7.237  0.3083  0.1635 -0.3441
 1043YOPC   C4B15006  13.268   5.168   7.480 -0.1977  0.4893 -0.0088
 1044YOPC   NC315007  16.670   9.253   5.739  0.3959  0.1772  0.2800
 1044YOPC   PO415008  16.726   8.910   6.005 -0.1153  0.0768 -0.0254
 1044YOPC   GL115009  16.580   8.842   6.424  0.2742  0.2691 -0.1002
 1044YOPC   GL215010  16.292   8.666   6.385  0.2368  0.0177  0.3438
 1044YOPC   C1A15011  16.319   8.833   6.856  0.0095 -0.1988  0.1007
 1044YOPC   D2A15012  16.164   8.890   7.178  0.1824 -0.1358 -0.1682
 1044YOPC   C3A15013  16.304   9.041   7.557  0.2036  0.1144  0.0123
 1044YOPC   C4A15014  16.236   9.334   8.000 -0.0095 -0.1561  0.3796
 1044YOPC   C1B15015  16.427   8.397   6.728  0.0338 -0.0807 -0.1354
 1044YOPC   C2B15016  16.536   8.323   7.146  0.0420 -0.0842 -0.3346
 1044YOPC   D3B15017  16.368   8.539   7.508  0.0998 -0.0601  0.0335
 1044YOPC   C4B15018  16.116   8.579   7.865  0.0938 -0.1048  0.0465
 1045YOPC   NC315019  11.737   1.107   6.223 -0.1312 -0.1359  0.1116
 1045YOPC   PO415020  11.915   1.586   6.068  0.0044  0.0403  0.2360
 1045YOPC   GL115021  11.790   1.642   6.496 -0.1848 -0.4708  0.3596
 1045YOPC   GL215022  12.048   1.812   6.537 -0.0477  0.0250 -0.0237
 1045YOPC   C1A15023  11.614   2.019   6.867  0.1742 -0.0140  0.0241
 1045YOPC   D2A15024  11.646   2.074   7.436  0.6050  0.1304 -0.1590
 1045YOPC   C3A15025  11.783   2.183   7.769 -0.0572  0.0675  0.0947
 1045YOPC   C4A15026  11.945   2.385   8.148 -0.0806 -0.0950  0.0694
 1045YOPC   C1B15027  11.983   1.751   7.018 -0.1427  0.2011 -0.2168
 1045YOPC   C2B15028  11.764   1.536   7.354 -0.0955 -0.0871 -0.0312
 1045YOPC   D3B15029  11.675   1.701   7.795 -0.1510 -0.0798 -0.3673
 1045YOPC   C4B15030  11.325   1.804   8.108  0.0245 -0.2203 -0.0183
 1046YOPC   NC315031   4.097   4.871   5.735  0.1075  0.0219 -0.1217
 1046YOPC   PO415032   4.267   4.553   5.893  0.1082  0.0153 -0.1658
 1046YOPC   GL115033   4.254   4.839   6.268  0.2444 -0.2018  0.2245
 1046YOPC   GL215034   4.281   5.212   6.196 -0.3772  0.1499 -0.2505
 1046YOPC   C1A15035   4.381   4.960   6.729  0.2731  0.1031 -0.0425
 1046YOPC   D2A15036   4.361   5.129   7.073 -0.2099  0.2056 -0.1273
 1046YOPC   C3A15037   4.256   5.011   7.456 -0.1806  0.0144 -0.0317
 1046YOPC   C4A15038   4.037   4.717   7.580 -0.3004  0.0095  0.1363
 1046YOPC   C1B15039   4.248   5.431   6.586  0.1554 -0.2755  0.0989
 1046YOPC   C2B15040   4.191   5.677   6.936  0.1745  0.2322  0.0311
 1046YOPC   D3B15041   3.985   5.644   7.335 -0.1436  0.1792  0.3264
 1046YOPC   C4B15042   3.773   5.696   7.806 -0.0406 -0.0272 -0.0171
 1047YOPC   NC315043  13.042  10.869   5.184 -0.5021 -0.0351  0.1790
 1047YOPC   PO415044  13.414  10.625   5.592  0.1313 -0.1926  0.3354
 1047YOPC   GL115045  13.009  10.585   5.801  0.1727 -0.0267 -0.1489
 1047YOPC   GL215046  12.811  10.172   5.881 -0.2332  0.2007 -0.1193
 1047YOPC   C1A15047  12.659  10.642   6.156 -0.2833  0.2760 -0.1848
 1047YOPC   D2A15048  12.542  10.363   6.572 -0.0577  0.3523 -0.0913
 1047YOPC   C3A15049  12.634  10.465   7.013  0.1943  0.4169 -0.0090
 1047YOPC   C4A15050  12.975  10.454   7.116 -0.1928  0.1634 -0.1671
 1047YOPC   C1B15051  12.974  10.256   6.220  0.1695 -0.0815  0.2427
 1047YOPC   C2B15052  13.032  10.384   6.614 -0.1531  0.0032 -0.0240
 1047YOPC   D3B15053  12.768  10.859   6.689  0.3201  0.1767 -0.0980
 1047YOPC   C4B15054  12.892  11.305   6.757  0.2282  0.0006 -0.1176
 1048YOPC   NC315055  13.649  16.028   5.661  0.2099  0.0565 -0.0595
 1048YOPC   PO415056  13.643  15.637   5.886  0.2934  0.1604 -0.2165
 1048YOPC   GL115057  13.757  15.544   6.289 -0.1571  0.0538  0.0079
 1048YOPC   GL215058  13.999  15.210   6.418  0.0689 -0.0179  0.0417
 1048YOPC   C1A15059  13.729  15.497   6.716  0.0177  0.1748  0.0916
 1048YOPC   D2A15060  13.857  15.553   7.008  0.0618  0.4038  0.1636
 1048YOPC   C3A15061  13.694  15.887   7.259 -0.3957 -0.1322  0.3674
 1048YOPC   C4A15062  13.963  16.180   7.529 -0.1554  0.0051 -0.2249
 1048YOPC   C1B15063  14.217  15.273   6.704 -0.2193  0.2265  0.1682
 1048YOPC   C2B15064  14.571  15.536   6.863 -0.2257  0.2124 -0.0446
 1048YOPC   D3B15065  14.564  16.020   6.772 -0.0381 -0.4356 -0.3758
 1048YOPC   C4B15066  14.503  16.334   6.590 -0.0613 -0.0243  0.1387
 1049YOPC   NC315067  14.919  14.441   5.969 -0.0528  0.2179 -0.0442
 1049YOPC   PO415068  14.598  14.201   6.159  0.1583 -0.2702 -0.1843
 1049YOPC   GL115069  14.559  14.552   6.381 -0.3136 -0.2063 -0.0474
 1049YOPC   GL215070  14.948  14.541   6.442 -0.1608 -0.0622  0.0770
 1049YOPC   C1A15071  14.240  14.694   6.554 -0.0287  0.0992 -0.0834
 1049YOPC   D2A15072  13.995  14.449   6.811 -0.2184 -0.3159 -0.0528
 1049YOPC   C3A15073  14.067  14.604   7.273 -0.2799  0.1955 -0.2421
 1049YOPC   C4A15074  13.847  14.715   7.633  0.0598  0.2992  0.2323
 1049YOPC   C1B15075  15.010  14.734   6.789  0.4544 -0.0851  0.1586
 1049YOPC   C2B15076  14.945  14.774   7.195 -0.0154  0.0840 -0.4308
 1049YOPC   D3B15077  15.282  14.818   7.459 -0.0873  0.0870 -0.3511
 1049YOPC   C4B15078  15.769  14.896   7.587  0.1447  0.0360  0.3878
 1050YOPC   NC315079  14.192   3.139   5.745 -0.2141 -0.1261 -0.1638
 1050YOPC   PO415080  14.297   2.656   5.838 -0.0516  0.1527  0.1227
 1050YOPC   GL115081  14.035   2.492   6.287  0.1485  0.1670  0.1333
 1050YOPC   GL215082  14.055   2.109   6.392 -0.2284  0.2404 -0.1305
 1050YOPC   C1A15083  14.049   2.458   6.786 -0.0117 -0.1753 -0.0560
 1050YOPC   D2A15084  13.939   2.444   7.168 -0.1836 -0.1678 -0.0083
 1050YOPC   C3A15085  13.915   2.798   7.385  0.1891  0.0613  0.0956
 1050YOPC   C4A15086  14.155   2.966   7.711  0.2581  0.0992 -0.0175
 1050YOPC   C1B15087  13.856   1.991   6.694 -0.0591 -0.2898 -0.0060
 1050YOPC   C2B15088  13.751   1.947   7.005 -0.4125 -0.0989 -0.1322
 1050YOPC   D3B15089  13.837   1.986   7.421  0.2273  0.2288  0.0401
 1050YOPC   C4B15090  13.950   1.831   7.756  0.0930  0.1637 -0.2218
 1051YOPC   NC315091  13.176   8.365   5.547  0.1688  0.6917 -0.2389
 1051YOPC   PO415092  12.762   8.318   5.757  0.2586 -0.0649 -0.0600
 1051YOPC   GL115093  12.713   8.482   6.191  0.0598  0.1186  0.1598
 1051YOPC   GL215094  12.430   8.595   6.262  0.0299 -0.2116 -0.1415
 1051YOPC   C1A15095  12.889   8.508   6.531 -0.2302  0.1654  0.0566
 1051YOPC   D2A15096  13.076   8.256   6.855 -0.0293  0.2451  0.2048
 1051YOPC   C3A15097  12.922   8.093   7.277  0.0184 -0.3064  0.2752
 1051YOPC   C4A15098  12.845   7.744   7.647 -0.2028 -0.0227 -0.1579
 1051YOPC   C1B15099  12.419   8.332   6.523 -0.1008  0.0253 -0.1539
 1051YOPC   C2B15100  12.561   8.127   6.869  0.1688  0.1250  0.1105
 1051YOPC   D3B15101  12.505   8.431   7.207  0.0961 -0.0633 -0.0684
 1051YOPC   C4B15102  12.497   8.754   7.447 -0.1853 -0.2677  0.0414
 1052YOPC   NC315103   6.622   4.895   5.480  0.0897  0.0677 -0.1492
 1052YOPC   PO415104   6.405   5.089   5.754 -0.0089  0.1365  0.1600
 1052YOPC   GL115105   6.652   4.913   6.056  0.2173  0.2973 -0.5121
 1052YOPC   GL215106   6.890   4.770   6.217 -0.0181 -0.4116  0.0600
 1052YOPC   C1A15107   6.651   5.118   6.516  0.0177  0.1848 -0.1100
 1052YOPC   D2A15108   6.780   5.066   6.856 -0.0219 -0.2038 -0.0029
 1052YOPC   C3A15109   7.091   4.780   7.176 -0.0418  0.1152 -0.4392
 1052YOPC   C4A15110   7.310   5.000   7.485 -0.0296 -0.0538 -0.0189
 1052YOPC   C1B15111   6.809   4.627   6.634  0.0219  0.0512  0.0161
 1052YOPC   C2B15112   6.646   4.310   6.916  0.1178 -0.3016 -0.1007
 1052YOPC   D3B15113   6.675   4.026   6.752 -0.0198 -0.1922  0.0103
 1052YOPC   C4B15114   6.452   3.804   6.420 -0.3643 -0.0360 -0.1587
 1053YOPC   NC315115  17.422  10.980   5.834  0.2663 -0.1251 -0.4552
 1053YOPC   PO415116  17.218  11.355   5.807 -0.1297 -0.1581  0.1581
 1053YOPC   GL115117  17.008  11.268   6.207  0.0777 -0.1970 -0.3906
 1053YOPC   GL215118  17.013  11.446   6.506  0.0457 -0.0591  0.2490
 1053YOPC   C1A15119  16.679  11.112   6.563  0.0943  0.0130  0.0511
 1053YOPC   D2A15120  16.695  11.124   7.001 -0.3815 -0.1757 -0.2747
 1053YOPC   C3A15121  16.565  11.121   7.432  0.0367  0.0776  0.0345
 1053YOPC   C4A15122  16.536  10.951   7.768  0.0790 -0.1782  0.1608
 1053YOPC   C1B15123  17.185  11.718   6.766 -0.0251  0.0923 -0.0225
 1053YOPC   C2B15124  17.278  12.040   7.140  0.1008 -0.1695 -0.3248
 1053YOPC   D3B15125  16.970  12.006   7.406 -0.1079  0.2196 -0.1666
 1053YOPC   C4B15126  16.733  12.153   7.759  0.3162 -0.0120 -0.0635
 1054YOPC   NC315127   0.600  10.426   5.570 -0.1508 -0.1501 -0.0012
 1054YOPC   PO415128   0.346  10.698   5.856  0.1004  0.3173 -0.1451
 1054YOPC   GL115129   0.034  10.659   6.154 -0.1855 -0.1707  0.0634
 1054YOPC   GL215130  -0.167  10.401   6.362  0.2100  0.0850  0.0073
 1054YOPC   C1A15131   0.111  10.739   6.597  0.0625  0.3789  0.0157
 1054YOPC   D2A15132   0.363  10.798   6.974 -0.0956  0.3648  0.2490
 1054YOPC   C3A15133   0.298  10.540   7.330 -0.0660  0.0338 -0.0234
 1054YOPC   C4A15134  -0.028  10.689   7.776 -0.2899 -0.3233  0.1004
 1054YOPC   C1B15135  -0.320  10.557   6.703  0.1653  0.0048 -0.2385
 1054YOPC   C2B15136  -0.127  10.473   7.030 -0.2564  0.0586 -0.0364
 1054YOPC   D3B15137  -0.089  10.190   7.379 -0.1184 -0.0102  0.0811
 1054YOPC   C4B15138   0.070   9.838   7.539  0.3423  0.0264 -0.0168
 1055YOPC   NC315139   1.180   3.089   5.684 -0.1457  0.4471  0.0791
 1055YOPC   PO415140   1.632   3.091   5.664  0.3494  0.4178 -0.2445
 1055YOPC   GL115141   1.546   2.941   6.104 -0.0697 -0.1549  0.1901
 1055YOPC   GL215142   1.742   3.084   6.220 -0.0617 -0.1468 -0.1109
 1055YOPC   C1A15143   1.436   2.833   6.470 -0.0969  0.2464  0.2785
 1055YOPC   D2A15144   1.226   2.684   6.899 -0.1092 -0.1239 -0.1980
 1055YOPC   C3A15145   1.226   3.112   7.256 -0.0277  0.1160  0.0718
 1055YOPC   C4A15146   1.305   3.333   7.618  0.0938 -0.1097 -0.1090
 1055YOPC   C1B15147   1.743   3.419   6.561 -0.0425 -0.0045  0.2185
 1055YOPC   C2B15148   1.619   3.700   6.863 -0.3762 -0.1749  0.1389
 1055YOPC   D3B15149   1.416   3.578   7.136 -0.0660  0.3807  0.1485
 1055YOPC   C4B15150   1.552   3.792   7.484 -0.0430 -0.1054  0.2503
 1056YOPC   NC315151  16.557   5.650   5.555 -0.1376  0.2947 -0.1002
 1056YOPC   PO415152  16.341   5.421   5.974 -0.1078 -0.1646  0.1036
 1056YOPC   GL115153  16.345   5.335   6.383 -0.0014 -0.2961  0.2916
 1056YOPC   GL215154  16.379   5.063   6.555 -0.1032  0.2595 -0.1982
 1056YOPC   C1A15155  16.227   5.534   6.798 -0.2500  0.1399 -0.0862
 1056YOPC   D2A15156  16.269   5.695   7.178  0.2336 -0.3057  0.2440
 1056YOPC   C3A15157  16.321   5.980   7.373  0.0300 -0.1637  0.1305
 1056YOPC   C4A15158  16.211   6.238   7.687  0.0093 -0.1387  0.1435
 1056YOPC   C1B15159  16.388   4.853   6.969  0.2015 -0.1756 -0.0090
 1056YOPC   C2B15160  16.488   4.698   7.260 -0.0129  0.0683 -0.2076
 1056YOPC   D3B15161  16.240   4.329   7.293 -0.2452  0.0476 -0.0709
 1056YOPC   C4B15162  16.021   4.007   7.211  0.1637  0.0393  0.2771
 1057YOPC   NC315163   3.541  10.631   5.799 -0.1156  0.5224  0.1677
 1057YOPC   PO415164   4.026  10.512   5.842  0.2712  0.0943  0.0052
 1057YOPC   GL115165   3.967  10.553   6.400  0.2588  0.1846  0.3061
 1057YOPC   GL215166   4.083  10.782   6.450 -0.0123  0.1625  0.0101
 1057YOPC   C1A15167   3.825  10.396   6.791  0.3637  0.0583  0.0819
 1057YOPC   D2A15168   3.871  10.267   7.184  0.0038  0.0262 -0.2709
 1057YOPC   C3A15169   3.714  10.390   7.512  0.2073  0.2124  0.1872
 1057YOPC   C4A15170   3.541  10.417   8.004  0.1484 -0.0530 -0.1425
 1057YOPC   C1B15171   4.060  10.840   6.799  0.2160  0.0708 -0.0672
 1057YOPC   C2B15172   4.195  10.993   7.099  0.0769  0.0020 -0.0897
 1057YOPC   D3B15173   4.263  10.707   7.434 -0.3256  0.3177 -0.1529
 1057YOPC   C4B15174   4.092  10.564   7.797 -0.4126 -0.0502 -0.0173
 1058YOPC   NC315175   1.318   9.030   5.529  0.0740 -0.0072  0.2239
 1058YOPC   PO415176   1.704   8.926   5.522 -0.0430 -0.0847  0.1824
 1058YOPC   GL115177   1.496   8.755   5.860 -0.3740 -0.0394 -0.0803
 1058YOPC   GL215178   1.802   8.774   6.044  0.4848  0.1636  0.1181
 1058YOPC   C1A15179   1.438   8.632   6.335 -0.2676 -0.3765  0.1379
 1058YOPC   D2A15180   1.592   8.520   6.656  0.1704  0.1405  0.2973
 1058YOPC   C3A15181   1.512   8.695   7.059  0.0467  0.0541 -0.3342
 1058YOPC   C4A15182   1.636   8.514   7.438 -0.1147 -0.1932  0.1015
 1058YOPC   C1B15183   1.981   8.619   6.367 -0.2130  0.1264 -0.3376
 1058YOPC   C2B15184   2.158   8.373   6.659  0.0539 -0.2762  0.0100
 1058YOPC   D3B15185   2.484   8.404   6.982 -0.2136 -0.3103  0.1694
 1058YOPC   C4B15186   2.703   8.364   7.384 -0.2957  0.1693  0.0378
 1059YOPC   NC315187  11.062  13.186   6.133 -0.0729  0.0234 -0.3182
 1059YOPC   PO415188  10.866  13.652   6.050  0.3039  0.1446 -0.0844
 1059YOPC   GL115189  10.831  13.966   6.453 -0.1125  0.0442 -0.0118
 1059YOPC   GL215190  10.739  13.783   6.713 -0.1916  0.0514  0.1061
 1059YOPC   C1A15191  10.764  14.358   6.789  0.0240 -0.0495  0.0846
 1059YOPC   D2A15192  10.895  14.471   7.192 -0.1893  0.0246 -0.1453
 1059YOPC   C3A15193  10.710  14.297   7.431  0.4238 -0.1423  0.1046
 1059YOPC   C4A15194  10.709  13.828   7.628 -0.0518  0.0883 -0.0495
 1059YOPC   C1B15195  10.512  13.980   7.091  0.2236  0.2175  0.1221
 1059YOPC   C2B15196  10.111  14.050   7.332 -0.0784  0.1035 -0.7105
 1059YOPC   D3B15197  10.231  13.969   7.791 -0.0234  0.1580  0.2154
 1059YOPC   C4B15198  10.052  13.927   8.258 -0.1781  0.1647 -0.1291
 1060YOPC   NC315199  10.957  10.501   5.434 -0.2705 -0.0431 -0.2596
 1060YOPC   PO415200  10.762  10.490   5.841  0.0722  0.0613  0.2941
 1060YOPC   GL115201  10.901  10.392   6.186  0.2543  0.1338  0.0138
 1060YOPC   GL215202  10.552  10.440   6.300  0.2489  0.2607  0.0594
 1060YOPC   C1A15203  11.051  10.464   6.549  0.0284 -0.0886 -0.4900
 1060YOPC   D2A15204  10.864  10.422   7.010  0.0785  0.3237  0.1708
 1060YOPC   C3A15205  10.767  10.394   7.415 -0.2591  0.1615  0.2449
 1060YOPC   C4A15206  10.556  10.668   7.762  0.1329 -0.2076 -0.2207
 1060YOPC   C1B15207  10.469  10.362   6.730  0.1677 -0.0789  0.0914
 1060YOPC   C2B15208  10.395  10.367   7.097 -0.1304  0.3204 -0.0750
 1060YOPC   D3B15209  10.164  10.313   7.494  0.0864 -0.4561  0.1782
 1060YOPC   C4B15210   9.790  10.268   7.769  0.3824  0.1283 -0.1810
 1061YOPC   NC315211   0.405  15.944   6.062  0.0014 -0.1145  0.1099
 1061YOPC   PO415212   0.028  16.051   6.169  0.1330 -0.2096 -0.0985
 1061YOPC   GL115213  -0.120  16.087   6.477 -0.2649  0.4247 -0.0324
 1061YOPC   GL215214  -0.390  16.319   6.451  0.0448 -0.2413 -0.2770
 1061YOPC   C1A15215  -0.221  16.119   6.939  0.3417 -0.1193  0.1958
 1061YOPC   D2A15216  -0.052  16.290   7.363  0.1956  0.0203  0.1378
 1061YOPC   C3A15217  -0.134  16.682   7.607 -0.3177 -0.0864 -0.2636
 1061YOPC   C4A15218   0.058  17.055   7.801 -0.0327 -0.1081 -0.0521
 1061YOPC   C1B15219  -0.603  15.898   6.555 -0.2996 -0.0888 -0.0086
 1061YOPC   C2B15220  -0.896  15.721   6.688  0.0232 -0.1924 -0.2046
 1061YOPC   D3B15221  -0.933  15.546   7.156  0.0860 -0.0747  0.0321
 1061YOPC   C4B15222  -0.884  15.108   7.422  0.0911  0.2107  0.2606
 1062YOPC   NC315223  15.002  14.795   5.609  0.0776  0.2139 -0.0765
 1062YOPC   PO415224  15.241  14.878   5.901 -0.1471 -0.0669 -0.1588
 1062YOPC   GL115225  15.378  14.838   6.306  0.0033 -0.0187 -0.1750
 1062YOPC   GL215226  15.300  15.046   6.577  0.1566 -0.2708  0.1060
 1062YOPC   C1A15227  15.778  14.875   6.435  0.0550 -0.4573 -0.0011
 1062YOPC   D2A15228  15.858  15.199   6.627  0.0063  0.0885  0.1051
 1062YOPC   C3A15229  15.903  15.205   7.056 -0.3002  0.3419  0.4890
 1062YOPC   C4A15230  15.976  15.318   7.432 -0.0410 -0.0222  0.4139
 1062YOPC   C1B15231  15.549  14.914   6.955 -0.0179 -0.2052  0.2232
 1062YOPC   C2B15232  15.879  14.733   7.124 -0.1799  0.2540 -0.2638
 1062YOPC   D3B15233  15.908  14.341   6.963 -0.1354  0.2102 -0.0211
 1062YOPC   C4B15234  15.836  14.230   6.524 -0.1558 -0.2267 -0.1931
 1063YOPC   NC315235   1.459  18.196   5.866 -0.1381  0.0628  0.0675
 1063YOPC   PO415236   0.961  17.982   5.822  0.1851 -0.2546 -0.0695
 1063YOPC   GL115237   0.847  18.037   6.233 -0.0002 -0.0010  0.1594
 1063YOPC   GL215238   0.640  17.935   6.290  0.1154 -0.1429 -0.0722
 1063YOPC   C1A15239   1.087  17.980   6.697 -0.2023 -0.2593 -0.0214
 1063YOPC   D2A15240   1.306  17.970   7.136 -0.0771  0.0360  0.2422
 1063YOPC   C3A15241   1.529  17.909   7.573 -0.3867 -0.1044 -0.1154
 1063YOPC   C4A15242   1.785  18.200   7.914  0.3372 -0.2241  0.1377
 1063YOPC   C1B15243   0.736  17.663   6.653 -0.0126  0.1024 -0.1554
 1063YOPC   C2B15244   1.182  17.465   6.716 -0.1481 -0.3335 -0.0733
 1063YOPC   D3B15245   1.581  17.818   6.668  0.1211 -0.0256  0.1443
 1063YOPC   C4B15246   2.019  17.780   6.727 -0.1572  0.1057 -0.0206
 1064YOPC   NC315247  15.057   9.202   5.822  0.1282 -0.5716 -0.1622
 1064YOPC   PO415248  15.363   8.904   5.979  0.0488  0.0631  0.3758
 1064YOPC   GL115249  15.343   9.175   6.389  0.0371  0.0658  0.0396
 1064YOPC   GL215250  15.245   8.952   6.579  0.0099 -0.2388  0.1843
 1064YOPC   C1A15251  15.593   9.279   6.775 -0.0961 -0.1450 -0.3427
 1064YOPC   D2A15252  15.495   9.211   7.229 -0.1995  0.0993  0.2307
 1064YOPC   C3A15253  15.859   9.335   7.350  0.1475 -0.0388  0.0245
 1064YOPC   C4A15254  15.914   9.613   7.673 -0.0873 -0.1600  0.1274
 1064YOPC   C1B15255  15.151   8.814   7.063  0.2163  0.1101  0.1386
 1064YOPC   C2B15256  15.125   9.073   7.504  0.0279 -0.0825  0.2096
 1064YOPC   D3B15257  15.361   9.410   7.718  0.0426 -0.0097  0.1543
 1064YOPC   C4B15258  15.423   9.826   7.992 -0.2792 -0.1121 -0.2620
 1065YOPC   NC315259  18.144  13.410   5.482  0.0735  0.0229  0.0706
 1065YOPC   PO415260  18.223  13.678   5.829 -0.1726 -0.2232 -0.0444
 1065YOPC   GL115261  17.949  13.773   6.150 -0.0894  0.1579  0.4360
 1065YOPC   GL215262  18.285  13.942   6.296 -0.2128 -0.1038  0.0862
 1065YOPC   C1A15263  17.808  13.871   6.573  0.2838  0.2765  0.1331
 1065YOPC   D2A15264  17.666  13.754   7.014 -0.1578  0.1344  0.4105
 1065YOPC   C3A15265  17.864  13.953   7.363 -0.1628 -0.1163  0.1485
 1065YOPC   C4A15266  18.002  13.905   7.738  0.0065 -0.0640  0.0215
 1065YOPC   C1B15267  18.361  13.756   6.716  0.1608 -0.0611 -0.1353
 1065YOPC   C2B15268  18.220  13.647   7.028  0.2967 -0.0329 -0.0984
 1065YOPC   D3B15269  18.363  13.915   7.322 -0.1560  0.1561  0.1514
 1065YOPC   C4B15270  18.707  14.150   7.580 -0.0184 -0.0161  0.0590
 1066YOPC   NC315271  17.861   1.300   5.869 -0.1175 -0.1553 -0.0001
 1066YOPC   PO415272  18.200   1.041   6.017 -0.3276 -0.0138 -0.0767
 1066YOPC   GL115273  18.293   1.108   6.409 -0.3418  0.3645  0.2701
 1066YOPC   GL215274  18.308   0.865   6.564  0.1542 -0.0014  0.3098
 1066YOPC   C1A15275  18.349   1.368   6.793  0.1069 -0.1538  0.1753
 1066YOPC   D2A15276  18.540   1.606   7.053  0.0224  0.1265  0.2373
 1066YOPC   C3A15277  18.392   1.720   7.459 -0.1075 -0.0210  0.0432
 1066YOPC   C4A15278  18.504   1.684   7.950  0.0510  0.1978 -0.2060
 1066YOPC   C1B15279  18.213   0.617   6.883 -0.2312 -0.1642  0.2597
 1066YOPC   C2B15280  18.112   0.183   7.137 -0.0059  0.2249  0.0103
 1066YOPC   D3B15281  18.204   0.195   7.546  0.0063  0.0327 -0.0356
 1066YOPC   C4B15282  18.651   0.159   7.817 -0.1774  0.5249 -0.0939
 1067YOPC   NC315283  16.700  11.764   5.096  0.0296 -0.0191 -0.2561
 1067YOPC   PO415284  16.742  11.838   5.616 -0.0673 -0.1072 -0.2453
 1067YOPC   GL115285  16.689  12.121   6.060  0.0636 -0.0545 -0.0949
 1067YOPC   GL215286  16.359  12.365   6.178 -0.2865 -0.4181  0.2785
 1067YOPC   C1A15287  16.717  12.045   6.488  0.1781  0.0109  0.1486
 1067YOPC   D2A15288  16.842  12.113   6.898  0.2000  0.3048  0.0598
 1067YOPC   C3A15289  16.609  12.332   7.210 -0.2146 -0.0465  0.1727
 1067YOPC   C4A15290  16.489  12.708   7.505 -0.2409 -0.0882  0.0425
 1067YOPC   C1B15291  16.367  12.386   6.714 -0.0606  0.1060 -0.1257
 1067YOPC   C2B15292  16.157  12.449   7.145  0.0899 -0.2133 -0.0565
 1067YOPC   D3B15293  16.222  12.307   7.620 -0.2784 -0.2553 -0.1546
 1067YOPC   C4B15294  16.315  12.411   7.963 -0.2808 -0.1945  0.0117
 1068YOPC   NC315295   8.664  14.444   6.195  0.2728  0.2064  0.0008
 1068YOPC   PO415296   8.970  14.430   5.948 -0.0977 -0.0208  0.1220
 1068YOPC   GL115297   9.149  14.330   6.397  0.0801  0.2084 -0.3521
 1068YOPC   GL215298   9.174  14.601   6.548 -0.0361  0.1040  0.1796
 1068YOPC   C1A15299   9.392  14.127   6.834 -0.0544  0.0832  0.0536
 1068YOPC   D2A15300   9.527  14.021   7.226  0.2003  0.3979 -0.3474
 1068YOPC   C3A15301   9.365  13.712   7.359 -0.1032  0.1639  0.2402
 1068YOPC   C4A15302   9.376  13.454   7.687 -0.1608  0.1520 -0.0052
 1068YOPC   C1B15303   9.145  14.502   7.006  0.3525 -0.2746  0.1093
 1068YOPC   C2B15304   9.297  14.547   7.398  0.2484 -0.1867 -0.2671
 1068YOPC   D3B15305   9.024  14.428   7.799 -0.1215 -0.0160  0.0352
 1068YOPC   C4B15306   8.706  14.666   7.881 -0.0929  0.1234  0.1696
 1069YOPC   NC315307   5.909   5.355   5.816 -0.1994 -0.1798  0.1850
 1069YOPC   PO415308   6.278   5.569   5.605 -0.1426  0.1586  0.2312
 1069YOPC   GL115309   6.513   5.512   6.031 -0.0735  0.0900 -0.2476
 1069YOPC   GL215310   6.790   5.440   6.213 -0.2898 -0.0470 -0.0768
 1069YOPC   C1A15311   6.438   5.693   6.463 -0.2015  0.4221 -0.1093
 1069YOPC   D2A15312   6.481   5.632   6.904  0.0465 -0.2994 -0.1072
 1069YOPC   C3A15313   6.643   5.701   7.302  0.0388  0.0898  0.0973
 1069YOPC   C4A15314   6.550   5.733   7.632 -0.3334 -0.0491 -0.0059
 1069YOPC   C1B15315   6.944   5.524   6.695 -0.0417 -0.1057  0.0893
 1069YOPC   C2B15316   7.227   5.288   7.036  0.1078 -0.0322  0.1724
 1069YOPC   D3B15317   7.044   5.378   7.351 -0.1782 -0.2392 -0.3210
 1069YOPC   C4B15318   6.908   5.303   7.602 -0.0963  0.0655  0.1632
 1070YOPC   NC315319  15.156   5.730   6.079  0.1121 -0.0197 -0.0252
 1070YOPC   PO415320  15.544   5.996   6.131 -0.2316  0.1415 -0.3130
 1070YOPC   GL115321  15.368   5.773   6.521 -0.0750 -0.0111 -0.1069
 1070YOPC   GL215322  15.617   5.556   6.642 -0.3151  0.2809 -0.0334
 1070YOPC   C1A15323  15.348   5.833   6.921  0.0214  0.2227  0.1040
 1070YOPC   D2A15324  15.217   5.832   7.448 -0.1188 -0.0580  0.1942
 1070YOPC   C3A15325  15.007   6.182   7.675  0.0121 -0.1818 -0.3659
 1070YOPC   C4A15326  15.298   6.192   8.063 -0.2819 -0.0271  0.0630
 1070YOPC   C1B15327  15.799   5.589   6.986 -0.2810  0.0111 -0.1132
 1070YOPC   C2B15328  15.650   5.616   7.364 -0.0840  0.0996 -0.1428
 1070YOPC   D3B15329  15.977   5.702   7.629 -0.3642 -0.0590  0.0984
 1070YOPC   C4B15330  16.193   5.726   7.998  0.4012  0.2167 -0.2848
 1071YOPC   NC315331   2.398   6.732   5.489 -0.0589 -0.2251 -0.1761
 1071YOPC   PO415332   2.384   7.099   5.815  0.1123  0.1311  0.0105
 1071YOPC   GL115333   2.026   7.087   6.108  0.0509 -0.0718 -0.0801
 1071YOPC   GL215334   1.636   7.321   5.964 -0.2660  0.0744  0.1447
 1071YOPC   C1A15335   1.753   6.954   6.397  0.0776 -0.4169  0.1989
 1071YOPC   D2A15336   1.685   6.596   6.604  0.3737  0.2102  0.0084
 1071YOPC   C3A15337   1.640   6.711   7.017 -0.0015 -0.0572  0.1986
 1071YOPC   C4A15338   1.497   6.834   7.189  0.0970  0.1798 -0.2830
 1071YOPC   C1B15339   1.431   7.412   6.330  0.0546  0.1665 -0.0331
 1071YOPC   C2B15340   1.219   7.460   6.539  0.2479 -0.0367 -0.0990
 1071YOPC   D3B15341   1.417   7.509   6.876  0.1772  0.2525  0.2533
 1071YOPC   C4B15342   1.485   7.335   7.202 -0.0241  0.1159  0.0200
 1072YOPC   NC315343   2.062   3.302   5.777  0.3006 -0.0691 -0.0581
 1072YOPC   PO415344   2.376   3.584   5.664 -0.3113 -0.0683 -0.2239
 1072YOPC   GL115345   2.296   3.492   6.161  0.3932 -0.0757  0.0610
 1072YOPC   GL215346   2.228   3.287   6.341 -0.0370  0.0136  0.1383
 1072YOPC   C1A15347   2.418   3.696   6.534  0.2282  0.3312 -0.0823
 1072YOPC   D2A15348   2.592   3.754   6.961 -0.2809  0.1475  0.2578
 1072YOPC   C3A15349   2.442   3.553   7.291 -0.1712  0.1699 -0.3135
 1072YOPC   C4A15350   2.414   3.506   7.747 -0.1852  0.0859 -0.1095
 1072YOPC   C1B15351   2.139   2.862   6.474 -0.2544 -0.0478 -0.0787
 1072YOPC   C2B15352   1.845   2.633   6.677  0.2844  0.3122 -0.0837
 1072YOPC   D3B15353   1.667   2.703   7.059  0.0664  0.1854 -0.0938
 1072YOPC   C4B15354   1.718   2.974   7.339  0.3687 -0.1382  0.3304
 1073YOPC   NC315355  13.030   7.334   5.682  0.2548 -0.0026 -0.1694
 1073YOPC   PO415356  12.751   7.147   6.108 -0.0290  0.1209  0.0482
 1073YOPC   GL115357  13.016   7.093   6.431  0.3284 -0.1437 -0.1087
 1073YOPC   GL215358  12.794   7.232   6.607  0.2490 -0.0031  0.0117
 1073YOPC   C1A15359  13.087   6.889   6.793  0.0121 -0.0128  0.0092
 1073YOPC   D2A15360  13.374   6.892   7.125  0.1298 -0.0058 -0.0759
 1073YOPC   C3A15361  13.518   7.096   7.565 -0.3479  0.0432  0.0517
 1073YOPC   C4A15362  13.344   7.352   7.801  0.1009 -0.0341  0.2102
 1073YOPC   C1B15363  12.488   7.019   6.899  0.1351 -0.1250  0.0908
 1073YOPC   C2B15364  12.495   6.965   7.289  0.1791  0.1011  0.3724
 1073YOPC   D3B15365  12.484   6.814   7.710  0.3625 -0.2452  0.1756
 1073YOPC   C4B15366  12.100   6.765   8.004  0.2477 -0.0746  0.1214
 1074YOPC   NC315367   2.018   2.315   5.520  0.2817  0.2617 -0.3688
 1074YOPC   PO415368   2.140   2.254   5.928  0.0355 -0.2455  0.0995
 1074YOPC   GL115369   2.104   2.137   6.382  0.2438  0.1997  0.0567
 1074YOPC   GL215370   1.973   1.810   6.537  0.1515 -0.1444  0.3758
 1074YOPC   C1A15371   2.214   2.239   6.790  0.2231 -0.0163  0.0745
 1074YOPC   D2A15372   2.369   2.209   7.244 -0.1411 -0.2879 -0.0382
 1074YOPC   C3A15373   2.083   2.078   7.555 -0.3475 -0.2349  0.1138
 1074YOPC   C4A15374   1.871   2.281   7.948 -0.3019 -0.2013 -0.2886
 1074YOPC   C1B15375   1.718   1.895   6.831  0.1002  0.0800  0.1559
 1074YOPC   C2B15376   1.809   2.187   7.106 -0.0144  0.3176 -0.0331
 1074YOPC   D3B15377   1.562   2.335   7.446  0.2173 -0.1131 -0.3571
 1074YOPC   C4B15378   1.284   2.641   7.412 -0.0579  0.1169  0.4642
 1075YOPC   NC315379  12.499   3.989   5.873 -0.1830  0.0038 -0.0685
 1075YOPC   PO415380  12.796   3.834   5.992 -0.1572 -0.1997 -0.1407
 1075YOPC   GL115381  12.616   3.904   6.455 -0.3081 -0.2453 -0.2628
 1075YOPC   GL215382  12.915   4.008   6.626  0.0039 -0.1761  0.0709
 1075YOPC   C1A15383  12.412   4.163   6.799  0.1649  0.0703  0.1913
 1075YOPC   D2A15384  12.392   4.030   7.275  0.0936 -0.0405  0.0012
 1075YOPC   C3A15385  12.330   4.065   7.650 -0.2100 -0.2578  0.0824
 1075YOPC   C4A15386  12.182   3.901   8.052 -0.2322 -0.0476 -0.2416
 1075YOPC   C1B15387  12.851   4.136   7.048 -0.0956 -0.2647  0.0490
 1075YOPC   C2B15388  12.895   4.066   7.468 -0.4168  0.1645 -0.2942
 1075YOPC   D3B15389  13.177   4.119   7.808  0.1203 -0.2074  0.0054
 1075YOPC   C4B15390  13.356   4.127   8.213  0.0268  0.0717 -0.2500
 1076YOPC   NC315391  10.247   4.621   6.237  0.0951 -0.1394  0.1074
 1076YOPC   PO415392  10.048   4.257   6.148  0.1068  0.1230 -0.0084
 1076YOPC   GL115393  10.100   4.239   6.643  0.3136 -0.1621  0.0650
 1076YOPC   GL215394   9.948   3.916   6.846 -0.1751  0.1181 -0.0906
 1076YOPC   C1A15395  10.152   4.261   7.121  0.1958 -0.1276 -0.0740
 1076YOPC   D2A15396  10.101   4.531   7.435 -0.2260  0.2586  0.2984
 1076YOPC   C3A15397  10.014   4.471   7.793  0.1236  0.1137  0.2131
 1076YOPC   C4A15398  10.031   4.114   7.921 -0.2093  0.2509  0.4368
 1076YOPC   C1B15399   9.737   3.978   7.272  0.2731  0.2232  0.1994
 1076YOPC   C2B15400   9.694   3.867   7.625  0.1296  0.4722  0.1668
 1076YOPC   D3B15401   9.318   4.069   7.903 -0.2549  0.1465  0.3080
 1076YOPC   C4B15402   9.019   4.038   8.276 -0.2428  0.2380 -0.2756
 1077YOPC   NC315403  16.401  13.505   5.754  0.2074  0.2976 -0.2291
 1077YOPC   PO415404  16.700  13.713   5.825  0.1647  0.2958 -0.2607
 1077YOPC   GL115405  16.581  13.530   6.235  0.0327  0.0217  0.1621
 1077YOPC   GL215406  16.322  13.277   6.304  0.2442  0.2759 -0.0286
 1077YOPC   C1A15407  16.468  13.630   6.638  0.1550  0.1297 -0.0755
 1077YOPC   D2A15408  16.548  13.511   7.035 -0.1176 -0.2320  0.1616
 1077YOPC   C3A15409  16.380  13.759   7.409  0.1305  0.2400 -0.0494
 1077YOPC   C4A15410  16.052  13.678   7.675  0.1899  0.0074 -0.1606
 1077YOPC   C1B15411  16.720  13.137   6.505 -0.0482 -0.0465 -0.0348
 1077YOPC   C2B15412  17.133  13.007   6.672 -0.1971 -0.0176  0.0124
 1077YOPC   D3B15413  17.443  13.000   6.608  0.0494 -0.2155 -0.0359
 1077YOPC   C4B15414  17.601  13.380   6.363  0.0309  0.1638  0.0507
 1078YOPC   NC315415   3.643  17.949   5.663  0.3259 -0.0541 -0.3452
 1078YOPC   PO415416   3.805  17.567   5.722 -0.3291  0.0866  0.0203
 1078YOPC   GL115417   3.788  17.296   6.085 -0.0952 -0.2571  0.1421
 1078YOPC   GL215418   3.500  17.298   6.197  0.3103 -0.1259 -0.0414
 1078YOPC   C1A15419   3.922  17.162   6.534  0.1125  0.0265  0.2262
 1078YOPC   D2A15420   3.765  17.237   7.033 -0.0403 -0.0179  0.1005
 1078YOPC   C3A15421   3.728  17.004   7.429  0.0617  0.0933  0.1683
 1078YOPC   C4A15422   3.997  16.975   7.748  0.2246  0.2729 -0.0274
 1078YOPC   C1B15423   3.404  17.243   6.692  0.3475  0.1529 -0.0081
 1078YOPC   C2B15424   3.240  16.827   6.855  0.0110 -0.0640 -0.0735
 1078YOPC   D3B15425   3.276  16.780   7.266 -0.0251  0.1875  0.1700
 1078YOPC   C4B15426   3.014  16.536   7.602 -0.2125 -0.3898  0.1637
 1079YOPC   NC315427  13.665   0.983   5.756 -0.1291  0.3486 -0.1368
 1079YOPC   PO415428  13.680   0.658   6.120 -0.0278 -0.1912  0.0916
 1079YOPC   GL115429  13.703   0.481   6.526 -0.0096  0.0890 -0.0467
 1079YOPC   GL215430  13.630   0.246   6.513  0.1140 -0.0310 -0.0808
 1079YOPC   C1A15431  13.616   0.502   6.992  0.0004  0.0446 -0.1615
 1079YOPC   D2A15432  13.592   0.665   7.405 -0.1647  0.0372 -0.2609
 1079YOPC   C3A15433  13.460   1.004   7.855  0.0763 -0.1859 -0.2184
 1079YOPC   C4A15434  12.957   1.156   7.783  0.2496 -0.1443  0.0233
 1079YOPC   C1B15435  13.407  -0.016   6.920  0.0194 -0.2987  0.0322
 1079YOPC   C2B15436  13.246  -0.322   7.262  0.2993  0.1399 -0.0295
 1079YOPC   D3B15437  13.256  -0.162   7.647 -0.2693 -0.0410 -0.0659
 1079YOPC   C4B15438  13.177   0.046   8.062  0.2202 -0.1417 -0.0712
 1080YOPC   NC315439  10.592   7.874   5.896  0.0948  0.2016 -0.2020
 1080YOPC   PO415440  10.937   7.815   6.134 -0.0568 -0.1015 -0.2770
 1080YOPC   GL115441  11.187   7.840   6.446 -0.1924  0.0250  0.4291
 1080YOPC   GL215442  10.993   7.605   6.577  0.0898 -0.2796 -0.1059
 1080YOPC   C1A15443  11.300   7.921   6.873 -0.0247 -0.0685 -0.0096
 1080YOPC   D2A15444  11.145   7.882   7.322 -0.2704  0.4742 -0.0667
 1080YOPC   C3A15445  10.843   7.880   7.628  0.1199 -0.2876 -0.0932
 1080YOPC   C4A15446  10.772   8.165   7.994 -0.0620  0.0065  0.0378
 1080YOPC   C1B15447  10.844   7.680   6.932 -0.1817 -0.2660  0.1538
 1080YOPC   C2B15448  10.584   7.562   7.288 -0.3050  0.2661 -0.0626
 1080YOPC   D3B15449  10.254   7.707   7.459 -0.1171 -0.0630 -0.1904
 1080YOPC   C4B15450  10.219   7.774   7.898 -0.0170 -0.0274  0.0567
 1081YOPC   NC315451   4.245   6.817   5.728 -0.0430  0.3603 -0.0641
 1081YOPC   PO415452   3.975   6.517   6.021  0.0338  0.1965  0.1132
 1081YOPC   GL115453   4.068   6.753   6.424 -0.2895 -0.2784  0.3935
 1081YOPC   GL215454   4.331   6.624   6.519 -0.1168  0.2778 -0.2899
 1081YOPC   C1A15455   3.950   6.601   6.908  0.1708  0.0716  0.1685
 1081YOPC   D2A15456   4.158   6.540   7.329  0.0173 -0.2543  0.2564
 1081YOPC   C3A15457   4.067   6.299   7.600  0.0120  0.1679  0.0337
 1081YOPC   C4A15458   3.950   6.193   7.885  0.0027  0.2623 -0.0812
 1081YOPC   C1B15459   4.443   6.769   6.914  0.2775 -0.3731  0.0336
 1081YOPC   C2B15460   4.584   6.946   7.255 -0.0420  0.0677 -0.2239
 1081YOPC   D3B15461   4.493   6.716   7.653 -0.0405  0.0030  0.0998
 1081YOPC   C4B15462   4.538   6.368   7.736 -0.2264  0.1543  0.3546
 1082YOPC   NC315463   2.285   7.696   5.648 -0.0269 -0.0632 -0.0257
 1082YOPC   PO415464   2.455   8.089   5.845 -0.0898  0.2083  0.0038
 1082YOPC   GL115465   2.488   7.824   6.236  0.0348 -0.2002  0.1062
 1082YOPC   GL215466   2.418   7.460   6.168  0.0265  0.2803 -0.2152
 1082YOPC   C1A15467   2.332   7.761   6.641 -0.0089  0.2320  0.1890
 1082YOPC   D2A15468   2.150   7.947   7.055 -0.0866  0.3221 -0.2183
 1082YOPC   C3A15469   2.344   7.919   7.499  0.1962 -0.1172  0.1909
 1082YOPC   C4A15470   2.540   7.906   7.817  0.1695  0.1183  0.1047
 1082YOPC   C1B15471   2.272   7.251   6.556 -0.0877 -0.0086 -0.3808
 1082YOPC   C2B15472   2.240   7.384   7.067  0.1440  0.1223  0.3523
 1082YOPC   D3B15473   1.872   7.583   7.295 -0.2598  0.1711 -0.3125
 1082YOPC   C4B15474   1.612   7.856   7.293 -0.0627  0.0768 -0.2845
 1083YOPC   NC315475   3.453   5.844   5.787 -0.1314  0.1628  0.1681
 1083YOPC   PO415476   3.153   5.602   5.698  0.1449 -0.1464 -0.1657
 1083YOPC   GL115477   2.982   5.509   6.151  0.2868 -0.1552  0.0612
 1083YOPC   GL215478   2.684   5.745   6.277 -0.0904  0.2734 -0.0442
 1083YOPC   C1A15479   2.707   5.259   6.454 -0.2026 -0.1675 -0.0222
 1083YOPC   D2A15480   2.700   4.991   6.795  0.0004 -0.2046  0.1546
 1083YOPC   C3A15481   2.736   5.021   7.217  0.0108 -0.3537  0.3559
 1083YOPC   C4A15482   2.687   5.000   7.739  0.1281 -0.0041 -0.3949
 1083YOPC   C1B15483   2.867   5.804   6.559  0.0108  0.1241  0.1219
 1083YOPC   C2B15484   3.004   5.755   6.881  0.0493  0.0812  0.0125
 1083YOPC   D3B15485   3.026   5.928   7.155 -0.1883 -0.4026 -0.0951
 1083YOPC   C4B15486   3.029   6.231   7.477 -0.1469 -0.0529  0.1780
 1084YOPC   NC315487   6.689  10.726   5.842 -0.0392 -0.2311  0.0916
 1084YOPC   PO415488   6.256  10.788   5.941  0.0079  0.0537  0.4561
 1084YOPC   GL115489   6.460  10.765   6.421 -0.0246  0.1547  0.2720
 1084YOPC   GL215490   6.801  10.716   6.370 -0.1708 -0.1891  0.0255
 1084YOPC   C1A15491   6.403  10.733   6.859  0.0192 -0.3726 -0.0122
 1084YOPC   D2A15492   6.442  10.647   7.268 -0.0903 -0.2438  0.0441
 1084YOPC   C3A15493   6.772  10.889   7.555 -0.2762 -0.0140 -0.1118
 1084YOPC   C4A15494   6.826  10.713   7.989 -0.1174 -0.1887  0.0823
 1084YOPC   C1B15495   6.831  11.053   6.640 -0.3280 -0.1777  0.0943
 1084YOPC   C2B15496   6.754  11.037   7.002  0.1327  0.2299 -0.1704
 1084YOPC   D3B15497   6.808  11.345   7.104  0.0250  0.1754 -0.1465
 1084YOPC   C4B15498   6.958  11.628   7.357  0.0471  0.0931  0.2774
 1085YOPC   NC315499   5.064  14.946   5.706  0.2219  0.2266  0.0095
 1085YOPC   PO415500   4.920  14.986   6.115  0.3640 -0.0434 -0.0130
 1085YOPC   GL115501   4.749  14.899   6.456  0.1619 -0.1025 -0.1207
 1085YOPC   GL215502   4.510  14.736   6.432 -0.4221 -0.0897  0.1095
 1085YOPC   C1A15503   4.655  14.982   6.874 -0.1602  0.4028 -0.0039
 1085YOPC   D2A15504   4.639  15.026   7.267  0.0488 -0.0234 -0.0632
 1085YOPC   C3A15505   4.253  14.785   7.570 -0.1712  0.3704  0.2393
 1085YOPC   C4A15506   3.960  15.016   7.883  0.0452 -0.0965  0.0984
 1085YOPC   C1B15507   4.231  14.668   6.758  0.0680 -0.3352 -0.0886
 1085YOPC   C2B15508   4.148  14.823   7.058  0.0005 -0.4298  0.1269
 1085YOPC   D3B15509   4.193  15.191   7.171  0.1564 -0.0874 -0.2595
 1085YOPC   C4B15510   4.382  15.642   7.124 -0.0210 -0.0204 -0.0555
 1086YOPC   NC315511   9.563   4.658   6.125 -0.2453 -0.1063 -0.1674
 1086YOPC   PO415512   9.960   4.977   6.158  0.2496 -0.1179  0.0410
 1086YOPC   GL115513   9.911   4.811   6.572 -0.0366 -0.2168 -0.2665
 1086YOPC   GL215514  10.208   4.773   6.765 -0.1595  0.2789 -0.1241
 1086YOPC   C1A15515   9.744   4.500   6.881 -0.1892  0.0356  0.1373
 1086YOPC   D2A15516   9.446   4.292   7.048  0.2096 -0.0038  0.0102
 1086YOPC   C3A15517   9.251   3.989   7.350  0.5429 -0.3056 -0.0997
 1086YOPC   C4A15518   9.215   3.494   7.287 -0.2924 -0.1602  0.1061
 1086YOPC   C1B15519  10.186   5.135   7.067 -0.0061  0.0017  0.2431
 1086YOPC   C2B15520  10.195   5.127   7.455 -0.1329  0.1503  0.1408
 1086YOPC   D3B15521  10.495   5.052   7.761 -0.2364 -0.0199  0.0269
 1086YOPC   C4B15522  10.665   4.844   8.096 -0.1996 -0.2426 -0.1401
 1087YOPC   NC315523   6.967  14.676   5.619  0.0709  0.1684 -0.3668
 1087YOPC   PO415524   6.494  14.793   5.741 -0.0596  0.0067 -0.1575
 1087YOPC   GL115525   6.766  14.742   6.202 -0.0856  0.0268 -0.0388
 1087YOPC   GL215526   6.823  14.388   6.331  0.1840  0.0979  0.2661
 1087YOPC   C1A15527   6.696  15.001   6.504  0.0516 -0.0811 -0.0717
 1087YOPC   D2A15528   6.984  15.234   6.792  0.1929  0.2593  0.2341
 1087YOPC   C3A15529   7.001  15.145   7.241  0.1116  0.0295  0.1696
 1087YOPC   C4A15530   6.958  15.230   7.689  0.1285  0.2295  0.0021
 1087YOPC   C1B15531   6.635  14.539   6.727  0.0933 -0.0494  0.0864
 1087YOPC   C2B15532   6.670  14.731   7.155 -0.0090 -0.1005 -0.3951
 1087YOPC   D3B15533   6.865  14.767   7.576  0.1873 -0.0244 -0.0199
 1087YOPC   C4B15534   7.058  14.735   7.993 -0.1183 -0.2178 -0.1855
 1088YOPC   NC315535   8.367   1.178   6.380  0.1459 -0.2871  0.0176
 1088YOPC   PO415536   8.889   1.184   6.299  0.2301 -0.0762 -0.2439
 1088YOPC   GL115537   8.945   1.094   6.839  0.2021 -0.0617  0.3682
 1088YOPC   GL215538   8.649   1.022   6.763  0.0781  0.0456 -0.3762
 1088YOPC   C1A15539   8.808   1.029   7.302 -0.2011 -0.2652  0.2599
 1088YOPC   D2A15540   8.677   1.177   7.629 -0.0622  0.0632 -0.0267
 1088YOPC   C3A15541   8.905   1.264   7.992 -0.2292 -0.0969 -0.0874
 1088YOPC   C4A15542   9.202   1.152   8.182 -0.1561  0.0960 -0.0807
 1088YOPC   C1B15543   8.524   0.691   7.088 -0.0231  0.1722  0.0574
 1088YOPC   C2B15544   8.361   0.357   7.033  0.0395 -0.2074  0.0153
 1088YOPC   D3B15545   8.607   0.038   7.211 -0.1729  0.2150 -0.0923
 1088YOPC   C4B15546   8.699  -0.162   7.647 -0.1585 -0.0815 -0.3796
 1089YOPC   NC315547  13.890   4.493   5.973  0.1491 -0.0332 -0.1394
 1089YOPC   PO415548  14.000   4.947   5.990 -0.0851 -0.2494 -0.3662
 1089YOPC   GL115549  13.984   5.021   6.498 -0.0640  0.1508  0.1187
 1089YOPC   GL215550  13.964   5.325   6.606  0.0506 -0.0081  0.0990
 1089YOPC   C1A15551  13.700   4.926   6.788  0.1144  0.0422  0.0659
 1089YOPC   D2A15552  13.604   4.979   7.167  0.0461 -0.0755  0.1286
 1089YOPC   C3A15553  13.577   4.767   7.593 -0.0344 -0.2108 -0.0398
 1089YOPC   C4A15554  13.329   4.750   7.951  0.2693  0.1457 -0.0341
 1089YOPC   C1B15555  14.071   5.199   6.992  0.0700  0.2175  0.0971
 1089YOPC   C2B15556  14.051   5.067   7.331  0.1204 -0.0323 -0.0005
 1089YOPC   D3B15557  14.089   5.281   7.676 -0.1853  0.4165 -0.0000
 1089YOPC   C4B15558  14.082   5.521   8.074 -0.0947  0.1036 -0.0179
 1090YOPC   NC315559   5.391   1.966   6.346 -0.2469  0.0071  0.0430
 1090YOPC   PO415560   5.556   1.450   6.212  0.0076  0.2322  0.2618
 1090YOPC   GL115561   5.133   1.456   6.490 -0.0562 -0.0235  0.0618
 1090YOPC   GL215562   5.074   1.750   6.616  0.0248  0.5322 -0.3231
 1090YOPC   C1A15563   5.184   1.308   6.911  0.1449 -0.0941  0.2441
 1090YOPC   D2A15564   4.748   1.120   7.104 -0.1767 -0.1744  0.3895
 1090YOPC   C3A15565   4.684   1.198   7.557 -0.0219  0.0026  0.0963
 1090YOPC   C4A15566   5.000   0.977   7.858  0.1140  0.1049 -0.2583
 1090YOPC   C1B15567   5.111   1.798   7.046  0.0139 -0.0394 -0.0578
 1090YOPC   C2B15568   4.904   1.718   7.426 -0.1632 -0.3321 -0.3789
 1090YOPC   D3B15569   4.982   1.539   7.751  0.0471  0.1164 -0.0057
 1090YOPC   C4B15570   4.826   1.377   8.161 -0.0907 -0.1649 -0.1717
 1091YOPC   NC315571  12.423   6.784   5.981 -0.0607 -0.1641 -0.1608
 1091YOPC   PO415572  11.964   6.609   6.030 -0.3000  0.0593 -0.3046
 1091YOPC   GL115573  12.138   6.566   6.375  0.0823 -0.1576 -0.1502
 1091YOPC   GL215574  11.717   6.492   6.442 -0.2194 -0.0782 -0.2370
 1091YOPC   C1A15575  12.146   6.632   6.817  0.2625 -0.0923 -0.3115
 1091YOPC   D2A15576  12.269   6.551   7.273  0.1611 -0.0103  0.3732
 1091YOPC   C3A15577  12.110   6.305   7.646  0.1395  0.0710 -0.0511
 1091YOPC   C4A15578  11.827   6.131   7.977 -0.1992  0.0044 -0.0625
 1091YOPC   C1B15579  11.661   6.752   6.780  0.0043  0.2761  0.0712
 1091YOPC   C2B15580  11.723   7.098   6.984  0.1528 -0.4076 -0.1585
 1091YOPC   D3B15581  12.074   7.243   7.213 -0.1608  0.0134  0.2142
 1091YOPC   C4B15582  12.055   7.663   7.442  0.1211 -0.0790  0.0584
 1092YOPC   NC315583   5.484  15.789   5.756 -0.5899 -0.0876 -0.0540
 1092YOPC   PO415584   5.124  15.952   6.011  0.1572 -0.2895 -0.0722
 1092YOPC   GL115585   5.109  15.881   6.453 -0.2733 -0.3307  0.1733
 1092YOPC   GL215586   4.991  16.143   6.713  0.0375 -0.2085  0.1401
 1092YOPC   C1A15587   5.158  15.717   6.857 -0.0434  0.0590  0.0663
 1092YOPC   D2A15588   5.401  15.863   7.168 -0.1130 -0.1034 -0.0741
 1092YOPC   C3A15589   5.538  15.631   7.476 -0.1275  0.0278 -0.2202
 1092YOPC   C4A15590   5.429  15.207   7.609  0.0217 -0.0847 -0.0096
 1092YOPC   C1B15591   4.826  16.007   7.139 -0.4579 -0.3953 -0.1003
 1092YOPC   C2B15592   4.854  15.947   7.502  0.0794  0.5038 -0.2006
 1092YOPC   D3B15593   4.588  15.865   7.778 -0.4167 -0.2884 -0.1588
 1092YOPC   C4B15594   4.201  15.647   7.906  0.2064  0.1394 -0.3700
 1093YOPC   NC315595  10.800   9.770   5.276 -0.1817  0.3443  0.0631
 1093YOPC   PO415596  10.496   9.650   5.586 -0.3595  0.0473  0.0239
 1093YOPC   GL115597  10.476   9.497   6.071 -0.0420  0.0971 -0.2429
 1093YOPC   GL215598  10.402   9.642   6.308  0.1225 -0.3234  0.0026
 1093YOPC   C1A15599  10.507   9.133   6.152 -0.0686  0.2232  0.0372
 1093YOPC   D2A15600  10.295   8.951   6.502  0.0043 -0.2432  0.2143
 1093YOPC   C3A15601  10.219   8.996   6.926  0.0562  0.1158 -0.0305
 1093YOPC   C4A15602  10.480   9.067   7.271 -0.1538 -0.1011  0.0981
 1093YOPC   C1B15603  10.253   9.896   6.664 -0.0995 -0.0196 -0.2607
 1093YOPC   C2B15604  10.122   9.999   7.034 -0.1953  0.0437 -0.1792
 1093YOPC   D3B15605   9.801  10.169   7.228  0.0589 -0.2215 -0.1274
 1093YOPC   C4B15606   9.434  10.387   7.432 -0.2893  0.2391 -0.0445
 1094YOPC   NC315607   2.122  10.059   5.779 -0.2211 -0.2516 -0.1663
 1094YOPC   PO415608   1.815   9.757   5.749  0.3771 -0.2144 -0.2401
 1094YOPC   GL115609   2.016   9.610   6.100 -0.1788  0.0074 -0.0098
 1094YOPC   GL215610   2.301   9.531   6.181 -0.1969 -0.1484  0.2211
 1094YOPC   C1A15611   2.168   9.732   6.578  0.1716 -0.1435 -0.0753
 1094YOPC   D2A15612   2.270   9.320   6.832 -0.3805  0.2451  0.2933
 1094YOPC   C3A15613   2.002   9.332   7.168  0.1947 -0.1036 -0.2577
 1094YOPC   C4A15614   2.066   9.105   7.583 -0.0223  0.1588 -0.1394
 1094YOPC   C1B15615   2.290   9.082   6.360 -0.1202 -0.2686 -0.0455
 1094YOPC   C2B15616   2.433   8.755   6.496 -0.0568 -0.2406 -0.3436
 1094YOPC   D3B15617   2.565   8.884   6.879 -0.3087 -0.2012  0.1889
 1094YOPC   C4B15618   2.655   9.007   7.311 -0.0838  0.1539 -0.1532
 1095YOPC   NC315619   7.807  11.023   5.926  0.2715 -0.0163 -0.1172
 1095YOPC   PO415620   8.043  10.631   5.788  0.0994 -0.0138  0.2511
 1095YOPC   GL115621   7.965  10.677   6.255  0.1101  0.0641 -0.2451
 1095YOPC   GL215622   7.597  10.715   6.280  0.3124  0.0910 -0.0887
 1095YOPC   C1A15623   8.105  10.921   6.594 -0.2770  0.2453 -0.1125
 1095YOPC   D2A15624   8.303  10.829   7.076  0.1281  0.1390 -0.0515
 1095YOPC   C3A15625   8.101  10.769   7.523 -0.1410 -0.1476  0.0769
 1095YOPC   C4A15626   7.794  10.526   7.777  0.0445  0.1407 -0.0289
 1095YOPC   C1B15627   7.636  10.414   6.597 -0.3844 -0.0811  0.1968
 1095YOPC   C2B15628   7.490  10.413   7.080  0.0127 -0.0139  0.0775
 1095YOPC   D3B15629   7.382  10.295   7.486  0.0227  0.0368 -0.4461
 1095YOPC   C4B15630   7.260  10.231   7.886  0.0010 -0.1739  0.3846
 1096YOPC   NC315631  15.297  16.851   5.726  0.1286  0.1209  0.0305
 1096YOPC   PO415632  15.119  17.270   5.599 -0.2784 -0.2062  0.0800
 1096YOPC   GL115633  15.044  17.158   6.051 -0.0190 -0.0867  0.2864
 1096YOPC   GL215634  15.209  17.003   6.208 -0.1340 -0.2389  0.0361
 1096YOPC   C1A15635  14.706  16.991   6.472 -0.1776 -0.4076  0.0700
 1096YOPC   D2A15636  14.901  16.864   6.770 -0.0135 -0.0338  0.0816
 1096YOPC   C3A15637  14.734  16.524   7.038  0.0238  0.1555 -0.0561
 1096YOPC   C4A15638  14.531  16.214   7.348 -0.2104  0.0780 -0.3466
 1096YOPC   C1B15639  15.440  16.835   6.573 -0.2716 -0.1421 -0.1041
 1096YOPC   C2B15640  15.470  16.628   6.818 -0.2453  0.0109  0.2251
 1096YOPC   D3B15641  15.181  16.685   7.173 -0.2848 -0.1090 -0.3495
 1096YOPC   C4B15642  15.078  16.943   7.536  0.2015  0.2427 -0.2992
 1097YOPC   NC315643   0.811  10.808   5.883  0.0124  0.2290 -0.0287
 1097YOPC   PO415644   0.981  10.390   5.867 -0.3986 -0.0814  0.1871
 1097YOPC   GL115645   1.188  10.422   6.278 -0.0741  0.1126 -0.4029
 1097YOPC   GL215646   1.127  10.750   6.386 -0.3920 -0.0747  0.0816
 1097YOPC   C1A15647   1.230  10.435   6.746 -0.2312  0.1121  0.2864
 1097YOPC   D2A15648   1.328  10.488   7.096 -0.1206  0.0759 -0.0486
 1097YOPC   C3A15649   1.144  10.260   7.260  0.1077 -0.0386  0.2527
 1097YOPC   C4A15650   1.360  10.392   7.590  0.3627  0.0824 -0.3481
 1097YOPC   C1B15651   1.297  10.957   6.819  0.3002  0.1346  0.0016
 1097YOPC   C2B15652   1.248  10.956   7.223 -0.1462 -0.1185  0.2256
 1097YOPC   D3B15653   1.408  10.914   7.623  0.4217 -0.1266 -0.1306
 1097YOPC   C4B15654   1.669  10.861   7.924  0.1483 -0.1539  0.0952
 1098YOPC   NC315655  13.063   3.448   5.862 -0.1128  0.0328 -0.0503
 1098YOPC   PO415656  13.096   2.949   5.916  0.0878 -0.0529 -0.2423
 1098YOPC   GL115657  13.417   3.134   6.188 -0.0864 -0.0357 -0.0055
 1098YOPC   GL215658  13.766   2.945   6.208 -0.0808  0.0671 -0.2477
 1098YOPC   C1A15659  13.603   3.380   6.535 -0.0118  0.0855  0.1620
 1098YOPC   D2A15660  14.024   3.614   6.601  0.0963  0.0146 -0.0418
 1098YOPC   C3A15661  14.204   3.609   6.938  0.2242 -0.2772 -0.3490
 1098YOPC   C4A15662  14.339   3.972   7.227  0.0531  0.3322 -0.0228
 1098YOPC   C1B15663  13.991   2.944   6.618 -0.3320  0.1290 -0.0075
 1098YOPC   C2B15664  13.897   3.203   6.909  0.1802 -0.2505 -0.1772
 1098YOPC   D3B15665  14.081   3.324   7.309 -0.0530  0.0144 -0.0299
 1098YOPC   C4B15666  14.536   3.159   7.458 -0.0112  0.1446  0.0584
 1099YOPC   NC315667   7.424   6.037   5.961  0.0558  0.2319  0.2681
 1099YOPC   PO415668   7.782   6.408   6.037  0.1801  0.0278  0.2096
 1099YOPC   GL115669   7.573   6.499   6.477 -0.1585  0.1635  0.5107
 1099YOPC   GL215670   7.376   6.764   6.493 -0.2184 -0.0739 -0.2999
 1099YOPC   C1A15671   7.559   6.615   6.978 -0.1096 -0.1462 -0.3521
 1099YOPC   D2A15672   7.452   6.824   7.412 -0.2815  0.0825  0.4974
 1099YOPC   C3A15673   7.669   7.114   7.685  0.0097 -0.1847  0.3295
 1099YOPC   C4A15674   7.840   7.012   8.066  0.0737 -0.0751  0.0035
 1099YOPC   C1B15675   7.071   6.579   6.779  0.2149  0.0700 -0.0857
 1099YOPC   C2B15676   7.140   6.437   7.220 -0.0323  0.0386  0.0811
 1099YOPC   D3B15677   7.074   6.603   7.628 -0.1490  0.2288  0.2184
 1099YOPC   C4B15678   6.996   7.012   7.842 -0.2664  0.2734 -0.0490
 1100YOPC   NC315679   1.823  12.377   5.554 -0.1520 -0.3307 -0.0091
 1100YOPC   PO415680   2.025  12.409   5.912  0.1100  0.0667  0.0287
 1100YOPC   GL115681   1.901  12.677   6.282  0.0254 -0.1811  0.0138
 1100YOPC   GL215682   1.573  12.504   6.360  0.2156 -0.0909  0.2194
 1100YOPC   C1A15683   1.770  12.881   6.658  0.2091  0.2435 -0.0614
 1100YOPC   D2A15684   1.606  12.971   7.101  0.1477 -0.0715  0.1199
 1100YOPC   C3A15685   1.617  12.840   7.462 -0.0193  0.1043 -0.1316
 1100YOPC   C4A15686   1.401  12.748   7.873 -0.0342 -0.0675 -0.0627
 1100YOPC   C1B15687   1.450  12.326   6.743  0.1180  0.3987 -0.1996
 1100YOPC   C2B15688   1.445  12.529   7.178  0.2335 -0.0087 -0.1342
 1100YOPC   D3B15689   1.110  12.557   7.421 -0.0058  0.0712  0.0880
 1100YOPC   C4B15690   0.707  12.629   7.342 -0.0994 -0.0951 -0.3559
 1101YOPC   NC315691   0.010   2.435   5.568  0.1020  0.1924 -0.0469
 1101YOPC   PO415692   0.344   2.614   5.823  0.1190 -0.0384  0.2155
 1101YOPC   GL115693   0.599   2.525   6.093  0.0481 -0.0354 -0.0011
 1101YOPC   GL215694   0.479   2.298   6.182 -0.0337 -0.1395 -0.1078
 1101YOPC   C1A15695   0.842   2.799   6.458  0.2994  0.1052 -0.1167
 1101YOPC   D2A15696   0.892   3.006   6.875 -0.0629  0.1420 -0.3021
 1101YOPC   C3A15697   0.779   2.873   7.209 -0.3818  0.3439 -0.0142
 1101YOPC   C4A15698   1.001   2.900   7.706 -0.1213 -0.1653  0.0113
 1101YOPC   C1B15699   0.420   2.261   6.642  0.3593  0.0908 -0.1478
 1101YOPC   C2B15700   0.120   2.112   6.972 -0.1141 -0.1521  0.2363
 1101YOPC   D3B15701   0.279   2.268   7.358  0.0816 -0.2447 -0.1151
 1101YOPC   C4B15702   0.137   2.484   7.664  0.2779  0.0713 -0.3859
 1102YOPC   NC315703   2.845   2.893   5.838 -0.1346  0.2610  0.1438
 1102YOPC   PO415704   2.723   3.277   5.919 -0.2522  0.0951  0.1768
 1102YOPC   GL115705   2.722   3.393   6.347 -0.2278  0.0808 -0.2235
 1102YOPC   GL215706   2.964   3.558   6.369 -0.4040 -0.2981  0.2454
 1102YOPC   C1A15707   2.591   3.238   6.736 -0.0228  0.0817 -0.3828
 1102YOPC   D2A15708   2.764   3.010   6.983  0.3192 -0.0044 -0.2376
 1102YOPC   C3A15709   2.756   3.192   7.375  0.0675  0.0934  0.1288
 1102YOPC   C4A15710   2.967   3.473   7.860 -0.4228  0.1812  0.3112
 1102YOPC   C1B15711   3.042   3.535   6.790  0.4783 -0.1820  0.0251
 1102YOPC   C2B15712   3.063   3.531   7.252 -0.1102 -0.6108  0.3371
 1102YOPC   D3B15713   3.266   3.829   7.429 -0.2526 -0.1426  0.0460
 1102YOPC   C4B15714   3.499   3.924   7.732 -0.0440  0.1540 -0.2944
 1103YOPC   NC315715   0.533   8.869   5.552  0.0966 -0.0264  0.0371
 1103YOPC   PO415716   0.302   8.499   5.644 -0.0410 -0.3213 -0.2101
 1103YOPC   GL115717   0.460   8.397   6.018  0.1513  0.1988  0.1951
 1103YOPC   GL215718   0.396   8.080   6.089  0.2687  0.0414  0.1956
 1103YOPC   C1A15719   0.595   8.593   6.322 -0.1913 -0.3373 -0.0525
 1103YOPC   D2A15720   0.741   8.966   6.345 -0.3898  0.3165 -0.1540
 1103YOPC   C3A15721   0.607   9.229   6.584 -0.3126 -0.0464  0.3134
 1103YOPC   C4A15722   0.693   9.683   6.752 -0.0213 -0.2247 -0.1570
 1103YOPC   C1B15723   0.360   7.808   6.410  0.3321 -0.1501  0.1771
 1103YOPC   C2B15724   0.349   7.897   6.801 -0.2986 -0.0498 -0.0716
 1103YOPC   D3B15725   0.158   7.802   7.176  0.2159  0.0131  0.0040
 1103YOPC   C4B15726   0.017   8.023   7.488  0.4552  0.4202 -0.2763
 1104YOPC   NC315727  12.106   9.588   6.048 -0.0250  0.0599  0.0968
 1104YOPC   PO415728  12.191   9.221   6.082 -0.2073  0.1250 -0.0672
 1104YOPC   GL115729  12.435   9.216   6.504  0.1263  0.0068  0.0390
 1104YOPC   GL215730  12.661   8.926   6.573 -0.1542  0.0606  0.0325
 1104YOPC   C1A15731  12.478   9.182   6.986  0.0891  0.2364  0.2387
 1104YOPC   D2A15732  12.249   9.164   7.416 -0.2435 -0.0091  0.0764
 1104YOPC   C3A15733  12.061   9.343   7.859 -0.0243  0.0259 -0.0864
 1104YOPC   C4A15734  12.132   9.621   8.072  0.0272 -0.1075  0.0593
 1104YOPC   C1B15735  12.688   8.755   6.946  0.0917 -0.2466  0.0679
 1104YOPC   C2B15736  12.958   8.621   7.323  0.0285  0.2468  0.2015
 1104YOPC   D3B15737  12.899   8.715   7.763 -0.1146  0.2613 -0.2025
 1104YOPC   C4B15738  13.071   8.815   8.150  0.2825  0.0861 -0.2994
 1105YOPC   NC315739  13.495   4.909   5.967  0.1826  0.0889  0.1424
 1105YOPC   PO415740  13.345   4.525   5.800 -0.0820  0.0462 -0.0084
 1105YOPC   GL115741  13.450   4.339   6.293  0.3614  0.0569  0.2097
 1105YOPC   GL215742  13.349   4.089   6.322  0.1074 -0.0370  0.2879
 1105YOPC   C1A15743  13.724   4.338   6.688  0.0099 -0.0323 -0.1488
 1105YOPC   D2A15744  14.057   4.559   6.973 -0.2139 -0.2700 -0.1121
 1105YOPC   C3A15745  14.068   4.427   7.414 -0.0101  0.2092  0.0910
 1105YOPC   C4A15746  14.216   4.129   7.715  0.0437 -0.0773  0.0126
 1105YOPC   C1B15747  13.450   3.903   6.725  0.0107  0.1467 -0.0516
 1105YOPC   C2B15748  13.212   3.810   7.150  0.1290 -0.2500 -0.0992
 1105YOPC   D3B15749  13.224   3.647   7.521 -0.0053 -0.1276 -0.0372
 1105YOPC   C4B15750  13.229   3.395   7.865 -0.1216  0.0224  0.0432
 1106YOPC   NC315751  14.949   4.644   5.982 -0.1469 -0.1298 -0.4529
 1106YOPC   PO415752  15.221   4.373   6.070  0.3386 -0.1194 -0.1526
 1106YOPC   GL115753  15.143   4.354   6.425  0.0706  0.0628 -0.0600
 1106YOPC   GL215754  14.950   4.014   6.556  0.0739  0.0242 -0.1631
 1106YOPC   C1A15755  15.139   4.383   6.899 -0.2300 -0.3068 -0.2189
 1106YOPC   D2A15756  15.093   4.359   7.383  0.1727 -0.2877  0.0616
 1106YOPC   C3A15757  14.884   4.656   7.640  0.0330  0.4071  0.3858
 1106YOPC   C4A15758  14.525   4.596   7.881 -0.0096 -0.1213  0.4566
 1106YOPC   C1B15759  14.798   3.992   6.924  0.2986 -0.2362  0.0645
 1106YOPC   C2B15760  14.599   4.349   7.186 -0.2145  0.2999  0.0270
 1106YOPC   D3B15761  14.692   4.176   7.624  0.1044  0.0234  0.0964
 1106YOPC   C4B15762  15.010   3.899   7.791 -0.1146  0.0734  0.2332
 1107YOPC   NC315763   5.073   7.425   5.808  0.0258  0.0566  0.0272
 1107YOPC   PO415764   5.340   7.147   5.742 -0.0487  0.0471  0.1918
 1107YOPC   GL115765   5.557   7.387   6.018  0.2724 -0.2098 -0.1281
 1107YOPC   GL215766   5.773   7.668   5.942  0.0835 -0.1051  0.3371
 1107YOPC   C1A15767   5.497   7.657   6.398  0.1501 -0.1175 -0.2255
 1107YOPC   D2A15768   5.500   7.691   6.847  0.0478  0.1501 -0.0498
 1107YOPC   C3A15769   5.893   7.650   7.188 -0.1436 -0.0528 -0.0619
 1107YOPC   C4A15770   6.234   7.843   7.430 -0.0692  0.1329  0.1972
 1107YOPC   C1B15771   6.129   7.639   6.283 -0.3794 -0.0302  0.0855
 1107YOPC   C2B15772   6.055   7.731   6.709 -0.0852 -0.0513 -0.0345
 1107YOPC   D3B15773   6.435   7.911   6.977  0.2914 -0.0150 -0.0771
 1107YOPC   C4B15774   6.682   8.066   7.174  0.1859 -0.4335 -0.0538
 1108YOPC   NC315775  14.479   4.933   6.143  0.0551 -0.1154  0.2183
 1108YOPC   PO415776  14.479   4.457   6.040  0.0721 -0.0832  0.1123
 1108YOPC   GL115777  14.539   4.289   6.380  0.0891  0.2560  0.3596
 1108YOPC   GL215778  14.708   4.532   6.487 -0.1371  0.0986 -0.0122
 1108YOPC   C1A15779  14.253   4.139   6.721  0.1665  0.1258  0.1134
 1108YOPC   D2A15780  13.878   3.957   7.052 -0.2245 -0.1780 -0.2598
 1108YOPC   C3A15781  13.831   3.804   7.484  0.2109 -0.1622 -0.2047
 1108YOPC   C4A15782  13.603   3.779   7.882 -0.2501  0.3951 -0.2378
 1108YOPC   C1B15783  14.814   4.826   6.762  0.0879  0.0646  0.0688
 1108YOPC   C2B15784  14.793   4.906   7.168  0.0381 -0.1270  0.0387
 1108YOPC   D3B15785  14.425   4.764   7.403  0.4849 -0.2958 -0.3436
 1108YOPC   C4B15786  14.056   4.788   7.818  0.0879 -0.0589 -0.0684
 1109YOPC   NC315787  15.482   0.128   5.902 -0.3746  0.0395  0.0256
 1109YOPC   PO415788  15.345  -0.012   6.262  0.0258  0.2748 -0.0689
 1109YOPC   GL115789  15.093  -0.221   6.587  0.0027  0.1402  0.0516
 1109YOPC   GL215790  14.757  -0.245   6.470  0.1641 -0.0692 -0.2787
 1109YOPC   C1A15791  14.994  -0.440   6.941  0.1713 -0.0813  0.1652
 1109YOPC   D2A15792  14.948  -0.633   7.352  0.1097 -0.0284 -0.0472
 1109YOPC   C3A15793  14.753  -0.884   7.665 -0.1111 -0.2402 -0.2732
 1109YOPC   C4A15794  14.814  -1.227   8.017  0.2626  0.2198  0.4013
 1109YOPC   C1B15795  14.544  -0.299   6.824 -0.0251  0.2162  0.1229
 1109YOPC   C2B15796  14.211  -0.287   6.926  0.1178  0.0719 -0.1618
 1109YOPC   D3B15797  14.023  -0.443   7.288 -0.2188  0.2185  0.0964
 1109YOPC   C4B15798  13.846  -0.380   7.633  0.0480  0.0197  0.1144
 1110YOPC   NC315799  17.234   9.995   5.924  0.0415  0.2478  0.2663
 1110YOPC   PO415800  16.853   9.708   5.844  0.0683  0.1503 -0.1218
 1110YOPC   GL115801  16.776   9.509   6.249  0.1283 -0.1387 -0.0402
 1110YOPC   GL215802  16.436   9.359   6.309 -0.1873 -0.2649  0.1215
 1110YOPC   C1A15803  16.994   9.664   6.609  0.2535  0.0437 -0.1826
 1110YOPC   D2A15804  16.987   9.790   7.063  0.0067 -0.4090  0.1099
 1110YOPC   C3A15805  17.261  10.118   7.180 -0.0743  0.1198  0.1403
 1110YOPC   C4A15806  17.743  10.184   7.179  0.4306 -0.2750  0.1582
 1110YOPC   C1B15807  16.651   9.244   6.735 -0.0948 -0.2999 -0.0773
 1110YOPC   C2B15808  17.053   9.149   6.936  0.1809  0.2821 -0.2068
 1110YOPC   D3B15809  17.124   8.943   7.361  0.4594  0.1307  0.0288
 1110YOPC   C4B15810  17.017   8.418   7.485 -0.0477 -0.0966  0.1279
 1111YOPC   NC315811   0.507  15.218   6.262 -0.0285  0.0685  0.1338
 1111YOPC   PO415812   0.156  15.516   6.032  0.1886  0.0353 -0.0834
 1111YOPC   GL115813   0.067  15.663   6.396 -0.1484  0.0281  0.3284
 1111YOPC   GL215814  -0.162  15.535   6.510  0.2412 -0.2133 -0.0649
 1111YOPC   C1A15815   0.192  15.532   6.788 -0.0859  0.1606 -0.0566
 1111YOPC   D2A15816   0.547  15.628   6.919 -0.1917  0.1271  0.0365
 1111YOPC   C3A15817   0.902  15.627   7.229 -0.1706 -0.0574 -0.1111
 1111YOPC   C4A15818   1.197  15.731   7.564  0.3912 -0.1583 -0.0352
 1111YOPC   C1B15819  -0.319  15.646   6.924 -0.0470 -0.0256 -0.2498
 1111YOPC   C2B15820  -0.043  15.612   7.264  0.4079 -0.0327 -0.1085
 1111YOPC   D3B15821   0.382  15.455   7.371  0.0334 -0.3482 -0.0746
 1111YOPC   C4B15822   0.607  15.190   7.246  0.0342 -0.3542  0.1579
 1112YOPC   NC315823   5.409  15.204   5.975  0.0962 -0.4204  0.0116
 1112YOPC   PO415824   5.427  15.537   6.189 -0.0402  0.1117  0.1358
 1112YOPC   GL115825   5.662  15.721   6.550  0.0207 -0.0221 -0.0920
 1112YOPC   GL215826   5.747  15.749   6.887 -0.0207 -0.1597 -0.0908
 1112YOPC   C1A15827   6.021  15.400   6.671  0.1207  0.2992  0.1302
 1112YOPC   D2A15828   6.056  15.006   6.649  0.1339 -0.1973 -0.0192
 1112YOPC   C3A15829   6.138  14.750   6.944  0.0076  0.2018 -0.0115
 1112YOPC   C4A15830   6.087  14.596   7.361 -0.1850 -0.3108 -0.0600
 1112YOPC   C1B15831   6.058  15.586   7.156  0.0720 -0.0766  0.0895
 1112YOPC   C2B15832   6.232  15.616   7.579  0.0908 -0.1388  0.1120
 1112YOPC   D3B15833   6.151  15.423   7.789  0.0227  0.1826 -0.2505
 1112YOPC   C4B15834   6.477  15.432   8.059  0.0966 -0.0444  0.1728
 1113YOPC   NC315835  15.714   9.187   5.711 -0.0195  0.2631  0.0361
 1113YOPC   PO415836  15.788   9.199   6.087 -0.1694 -0.1628  0.1688
 1113YOPC   GL115837  15.910   9.033   6.419 -0.1448 -0.0333  0.0533
 1113YOPC   GL215838  15.780   8.823   6.465  0.0384  0.2400  0.2405
 1113YOPC   C1A15839  16.115   9.269   6.862  0.0364  0.0040 -0.3293
 1113YOPC   D2A15840  16.431   9.291   7.130 -0.3487 -0.3412  0.0316
 1113YOPC   C3A15841  16.728   9.279   7.443 -0.2804 -0.0682 -0.0773
 1113YOPC   C4A15842  16.912   9.298   7.740 -0.0617 -0.2023  0.0373
 1113YOPC   C1B15843  15.700   8.810   6.987 -0.0042  0.2854 -0.3045
 1113YOPC   C2B15844  15.811   8.715   7.496 -0.1378 -0.2416  0.1868
 1113YOPC   D3B15845  15.405   8.728   7.667  0.2137 -0.0009 -0.1823
 1113YOPC   C4B15846  15.388   9.008   8.041  0.0925  0.1893 -0.1460
 1114YOPC   NC315847  16.750   6.399   5.225 -0.2205  0.1393  0.0491
 1114YOPC   PO415848  16.659   6.534   5.696  0.1201  0.1532 -0.0447
 1114YOPC   GL115849  16.475   6.687   6.033  0.1142  0.0996 -0.0793
 1114YOPC   GL215850  16.393   7.010   6.175 -0.1521  0.2226 -0.0345
 1114YOPC   C1A15851  16.404   6.567   6.486  0.0125  0.2049 -0.0921
 1114YOPC   D2A15852  16.278   6.313   6.693 -0.1126 -0.0191 -0.4097
 1114YOPC   C3A15853  16.516   5.925   6.822 -0.0753 -0.0537  0.0206
 1114YOPC   C4A15854  16.733   5.550   6.611 -0.1290 -0.1754  0.0543
 1114YOPC   C1B15855  16.537   7.017   6.630 -0.0807 -0.1779 -0.0946
 1114YOPC   C2B15856  16.452   6.941   7.045  0.1522  0.3398 -0.2504
 1114YOPC   D3B15857  16.872   6.991   7.260 -0.0783 -0.2508 -0.0852
 1114YOPC   C4B15858  16.990   7.285   7.569  0.1513 -0.2522 -0.2138
 1115ERGO   ROH15859  16.519   2.216   6.242 -0.0810 -0.3395  0.0884
 1115ERGO    R115860  16.307   2.256   6.425 -0.0558 -0.1116  0.0715
 1115ERGO    R215861  16.318   2.170   6.687 -0.1711 -0.1274  0.0731
 1115ERGO    R315862  16.260   2.430   6.742  0.1057 -0.0619  0.0689
 1115ERGO    R415863  16.293   2.303   7.005 -0.1431 -0.1224  0.0727
 1115ERGO    R515864  16.121   2.419   6.937  0.0153  0.0822  0.0132
 1115ERGO    C115865  16.224   2.625   7.241  0.1331 -0.0579  0.0686
 1115ERGO    C215866  16.254   2.778   7.568  0.0855  0.2437  0.0500
 1116ERGO   ROH15867   1.533   2.285   6.466  0.2860 -0.1409  0.0856
 1116ERGO    R115868   1.342   2.276   6.674  0.3506  0.2429  0.1690
 1116ERGO    R215869   1.241   2.039   6.773 -0.2952  0.4331  0.0118
 1116ERGO    R315870   1.324   2.140   7.011  0.1286  0.0022  0.0642
 1116ERGO    R415871   1.106   1.957   7.080 -0.2885  0.4612  0.0228
 1116ERGO    R515872   1.122   2.167   7.138  0.2692  0.3791  0.2251
 1116ERGO    C115873   1.104   2.005   7.483  0.1133  0.0732  0.0783
 1116ERGO    C215874   0.988   1.749   7.842 -0.1534 -0.0341 -0.0671
 1117ERGO   ROH15875   1.581   4.464  10.400 -0.0929  0.0940 -0.0918
 1117ERGO    R115876   1.692   4.602  10.178 -0.0760  0.0484 -0.1129
 1117ERGO    R215877   1.892   4.495  10.023  0.0718  0.0934  0.0375
 1117ERGO    R315878   1.719   4.547   9.820  0.1303 -0.1285 -0.0712
 1117ERGO    R415879   1.977   4.653   9.727  0.0060  0.4342  0.1976
 1117ERGO    R515880   1.787   4.761   9.737 -0.2197  0.0596  0.1114
 1117ERGO    C115881   1.863   4.794   9.364  0.0226  0.4244  0.1889
 1117ERGO    C215882   1.833   4.758   8.999  0.1491 -0.0884  0.0295
 1118ERGO   ROH15883  16.505   0.686   6.789  0.0060  0.0404 -0.1013
 1118ERGO    R115884  16.392   0.879   6.963  0.0321  0.0657 -0.1123
 1118ERGO    R215885  16.463   0.900   7.229  0.0133  0.0516 -0.1061
 1118ERGO    R315886  16.512   1.159   7.162  0.0749  0.0409 -0.1034
 1118ERGO    R415887  16.494   1.160   7.455  0.0237  0.0518 -0.1076
 1118ERGO    R515888  16.381   1.286   7.317  0.0723  0.0701 -0.1299
 1118ERGO    C115889  16.557   1.554   7.523  0.0875  0.0419 -0.1059
 1118ERGO    C215890  16.654   1.811   7.785  0.1431  0.0456  0.1542
 1119ERGO   ROH15891   6.243  11.246   6.409  0.0865 -0.2223 -0.1022
 1119ERGO    R115892   6.340  11.167   6.663  0.0133 -0.0798 -0.0278
 1119ERGO    R215893   6.371  11.344   6.872  0.0815  0.0686 -0.1569
 1119ERGO    R315894   6.216  11.164   7.005 -0.0329  0.2508 -0.0401
 1119ERGO    R415895   6.284  11.367   7.206  0.1450  0.2951 -0.1543
 1119ERGO    R515896   6.314  11.151   7.223 -0.0139  0.2850 -0.0501
 1119ERGO    C115897   6.088  11.211   7.525  0.0746  0.5980 -0.0431
 1119ERGO    C215898   5.881  11.366   7.716 -0.0748  0.1440 -0.1578
 1120ERGO   ROH15899  12.920  15.213   6.525  0.0772 -0.1082 -0.1006
 1120ERGO    R115900  13.128  15.309   6.692 -0.0516  0.0937 -0.0501
 1120ERGO    R215901  13.078  15.454   6.922 -0.2563 -0.1045  0.0473
 1120ERGO    R315902  13.232  15.261   7.037  0.0183  0.0347 -0.0825
 1120ERGO    R415903  13.288  15.503   7.193 -0.2030  0.0244 -0.0183
 1120ERGO    R515904  13.435  15.374   7.096 -0.0926  0.2392 -0.1173
 1120ERGO    C115905  13.555  15.350   7.458  0.0859  0.2302 -0.1784
 1120ERGO    C215906  13.650  15.145   7.794 -0.4532 -0.2204  0.0807
 1121ERGO   ROH15907   6.754   0.882   6.973  0.1683 -0.4181 -0.1599
 1121ERGO    R115908   6.803   1.016   7.217  0.2944 -0.1563 -0.3246
 1121ERGO    R215909   6.754   0.900   7.463 -0.1050  0.2991 -0.1784
 1121ERGO    R315910   7.014   0.964   7.510  0.0111 -0.1735 -0.1179
 1121ERGO    R415911   6.903   0.902   7.774 -0.2402  0.2231 -0.1117
 1121ERGO    R515912   7.009   1.084   7.717  0.1472 -0.0109 -0.2018
 1121ERGO    C115913   7.235   0.964   8.000 -0.2100 -0.2649 -0.0160
 1121ERGO    C215914   7.383   1.007   8.247  0.2145 -0.0945 -0.1508
 1122ERGO   ROH15915  11.666  18.133   6.462  0.0372  0.0585  0.1129
 1122ERGO    R115916  11.725  18.164   6.737  0.0676 -0.0312  0.1156
 1122ERGO    R215917  11.543  18.105   6.936  0.0637 -0.0154  0.1085
 1122ERGO    R315918  11.744  17.948   7.029  0.0140 -0.1092  0.0637
 1122ERGO    R415919  11.560  17.974   7.255 -0.0443 -0.2056  0.0393
 1122ERGO    R515920  11.773  18.018   7.256 -0.0304 -0.2438  0.1162
 1122ERGO    C115921  11.759  17.751   7.529 -0.1538 -0.4045 -0.0429
 1122ERGO    C215922  11.913  17.623   7.818 -0.0035 -0.4155 -0.1418
 1123ERGO   ROH15923  16.790  15.033   7.708 -0.1173  0.1907 -0.1060
 1123ERGO    R115924  17.005  15.200   7.789 -0.0786  0.1111 -0.0445
 1123ERGO    R215925  16.985  15.374   8.003 -0.0222  0.0014  0.0491
 1123ERGO    R315926  17.207  15.242   8.089 -0.0329 -0.0807 -0.0461
 1123ERGO    R415927  17.158  15.445   8.294  0.1594 -0.0221 -0.0512
 1123ERGO    R515928  17.344  15.413   8.186  0.0916 -0.1204 -0.1451
 1123ERGO    C115929  17.466  15.364   8.543  0.2550 -0.1127 -0.1989
 1123ERGO    C215930  17.501  15.389   8.864  0.2354  0.2454  0.0576
 1124ERGO   ROH15931   2.978  11.651   9.711  0.1701 -0.2503  0.3352
 1124ERGO    R115932   3.045  11.587   9.444  0.0557 -0.0810  0.2632
 1124ERGO    R215933   3.182  11.356   9.377  0.0934 -0.0047  0.0648
 1124ERGO    R315934   2.971  11.318   9.210  0.0192  0.0260  0.1516
 1124ERGO    R415935   3.206  11.250   9.049 -0.0660 -0.1034  0.0843
 1124ERGO    R515936   3.050  11.392   8.996 -0.0324 -0.0618  0.1026
 1124ERGO    C115937   3.022  11.152   8.701 -0.2284 -0.1319  0.1772
 1124ERGO    C215938   3.011  11.126   8.340 -0.1379 -0.0279 -0.1169
 1125ERGO   ROH15939   4.837  12.472   6.342  0.0048 -0.1753 -0.0364
 1125ERGO    R115940   4.849  12.421   6.620  0.0730 -0.0928 -0.0238
 1125ERGO    R215941   4.761  12.602   6.810  0.0333 -0.0750 -0.0607
 1125ERGO    R315942   4.611  12.392   6.894  0.1310 -0.1114  0.0252
 1125ERGO    R415943   4.602  12.583   7.116 -0.1842  0.1021 -0.1586
 1125ERGO    R515944   4.660  12.373   7.127 -0.0287  0.1525  0.0860
 1125ERGO    C115945   4.369  12.374   7.374 -0.2191  0.1710 -0.1350
 1125ERGO    C215946   4.146  12.347   7.642  0.1855  0.0436  0.2868
 1126ERGO   ROH15947   6.042  14.254   6.668 -0.0683 -0.3143 -0.0657
 1126ERGO    R115948   5.849  14.235   6.874 -0.0204 -0.2460 -0.0139
 1126ERGO    R215949   5.769  13.993   6.981 -0.0377 -0.2133  0.0438
 1126ERGO    R315950   5.838  14.110   7.216  0.0414 -0.1894  0.0093
 1126ERGO    R415951   5.597  13.956   7.278  0.0218 -0.1339  0.0886
 1126ERGO    R515952   5.629  14.168   7.317  0.0738 -0.1320  0.0480
 1126ERGO    C115953   5.561  14.046   7.672  0.1308 -0.0654  0.0823
 1126ERGO    C215954   5.425  14.033   8.054  0.0391 -0.3567  0.0116
 1127ERGO   ROH15955  10.611   0.908   6.763  0.0768  0.1180 -0.0851
 1127ERGO    R115956  10.710   0.857   7.023  0.1114  0.0896 -0.1047
 1127ERGO    R215957  10.818   1.054   7.182 -0.0377  0.1054 -0.0296
 1127ERGO    R315958  10.633   0.966   7.361  0.0278 -0.1000 -0.0596
 1127ERGO    R415959  10.837   1.098   7.525 -0.1488  0.1621 -0.0293
 1127ERGO    R515960  10.762   0.895   7.550  0.0834  0.0673 -0.0282
 1127ERGO    C115961  10.676   1.040   7.892 -0.1521  0.0022 -0.0574
 1127ERGO    C215962  10.571   1.106   8.281 -0.0949 -0.1311 -0.0468
 1128ERGO   ROH15963  10.785   2.583   6.807  0.1551 -0.0305  0.0102
 1128ERGO    R115964  10.673   2.638   7.061  0.0702 -0.0788 -0.0160
 1128ERGO    R215965  10.694   2.462   7.274  0.0883 -0.0745 -0.0125
 1128ERGO    R315966  10.796   2.679   7.401 -0.0292 -0.0344  0.0146
 1128ERGO    R415967  10.728   2.492   7.616 -0.1090 -0.0161  0.0031
 1128ERGO    R515968  10.664   2.700   7.600 -0.1439 -0.0330 -0.0624
 1128ERGO    C115969  10.844   2.712   7.936 -0.3341  0.0556  0.0376
 1128ERGO    C215970  10.723   2.886   8.289 -0.1535 -0.1793 -0.2096
 1129ERGO   ROH15971  12.121   8.879   6.539  0.1250 -0.0300  0.0706
 1129ERGO    R115972  12.192   8.733   6.772  0.0189 -0.3263 -0.0791
 1129ERGO    R215973  12.154   8.832   7.027  0.4083 -0.4151  0.0153
 1129ERGO    R315974  12.018   8.600   7.063 -0.0267 -0.1809 -0.0375
 1129ERGO    R415975  11.975   8.749   7.311  0.5367 -0.2754  0.1398
 1129ERGO    R515976  12.051   8.546   7.293  0.1173 -0.4295 -0.1086
 1129ERGO    C115977  11.743   8.483   7.509  0.2032  0.0258  0.1627
 1129ERGO    C215978  11.603   8.460   7.904 -0.1133  0.1071  0.3109
 1130ERGO   ROH15979  16.852   8.437   6.214 -0.4422 -0.2276 -0.0241
 1130ERGO    R115980  16.807   8.244   6.416 -0.3087 -0.1687  0.0616
 1130ERGO    R215981  17.013   8.110   6.542 -0.2264 -0.1108 -0.0206
 1130ERGO    R315982  16.893   8.204   6.767 -0.1010 -0.0564  0.0262
 1130ERGO    R415983  16.995   7.939   6.842 -0.1209 -0.0735  0.0090
 1130ERGO    R515984  16.790   8.011   6.864 -0.0982 -0.0255  0.0970
 1130ERGO    C115985  16.872   7.928   7.228  0.0583 -0.0007  0.0701
 1130ERGO    C215986  17.022   7.908   7.540 -0.0320 -0.1298  0.2559
 1131ERGO   ROH15987  18.153   6.892   6.134  0.0043  0.3180 -0.0080
 1131ERGO    R115988  18.110   7.047   6.367 -0.0947  0.1150  0.1084
 1131ERGO    R215989  17.867   7.166   6.423 -0.1333 -0.0053  0.1467
 1131ERGO    R315990  17.892   7.031   6.658 -0.1571 -0.1799  0.0532
 1131ERGO    R415991  17.731   7.267   6.724  0.2305  0.0454  0.3015
 1131ERGO    R515992  17.915   7.203   6.823  0.2234 -0.2888  0.1358
 1131ERGO    C115993  17.675   7.200   7.120  0.4199 -0.0889  0.3039
 1131ERGO    C215994  17.441   7.067   7.440  0.0264 -0.0780 -0.0242
 1132ERGO   ROH15995   5.086  15.328   6.587 -0.2520  0.2124  0.1068
 1132ERGO    R115996   5.260  15.201   6.771 -0.1885  0.1589  0.0106
 1132ERGO    R215997   5.534  15.202   6.741 -0.2030  0.0802 -0.1382
 1132ERGO    R315998   5.529  15.302   6.994 -0.0374  0.0774 -0.1323
 1132ERGO    R415999   5.756  15.117   6.992 -0.1488 -0.0598 -0.2326
 1132ERGO    R516000   5.589  15.116   7.133 -0.0912  0.0370 -0.1629
 1132ERGO    C116001   5.880  15.161   7.376  0.0383 -0.1441 -0.2820
 1132ERGO    C216002   5.956  14.989   7.672 -0.3751 -0.1697  0.2593
 1133ERGO   ROH16003   1.423   6.113   6.363  0.0959 -0.1069  0.0851
 1133ERGO    R116004   1.240   6.216   6.553 -0.0762 -0.0860 -0.0909
 1133ERGO    R216005   1.291   6.215   6.824 -0.3885 -0.1979 -0.0372
 1133ERGO    R316006   1.239   6.481   6.802 -0.2472 -0.1652 -0.0015
 1133ERGO    R416007   1.152   6.410   7.073 -0.2833 -0.1735  0.0043
 1133ERGO    R516008   1.033   6.511   6.921 -0.2379 -0.0841  0.0114
 1133ERGO    C116009   1.022   6.773   7.198 -0.0893 -0.1287  0.0619
 1133ERGO    C216010   0.732   6.908   7.534  0.2009 -0.0439  0.1506
 1134ERGO   ROH16011   5.869   3.793   6.488 -0.1216  0.1374 -0.0636
 1134ERGO    R116012   5.691   3.906   6.677 -0.0253 -0.0036  0.1142
 1134ERGO    R216013   5.768   3.972   6.933  0.2311  0.2339 -0.0190
 1134ERGO    R316014   5.667   4.215   6.866 -0.1854  0.0678 -0.0203
 1134ERGO    R416015   5.689   4.222   7.158  0.2804  0.2805 -0.0533
 1134ERGO    R516016   5.511   4.265   7.041  0.0296 -0.0189  0.2019
 1134ERGO    C116017   5.548   4.596   7.226 -0.0819  0.1517 -0.0745
 1134ERGO    C216018   5.401   4.698   7.398 -0.2426 -0.1994  0.0488
 1135ERGO   ROH16019   1.533   7.406   7.697  0.0528  0.0612  0.0192
 1135ERGO    R116020   1.499   7.667   7.803 -0.0445  0.0371  0.0505
 1135ERGO    R216021   1.352   7.716   8.032 -0.0065 -0.0518  0.1020
 1135ERGO    R316022   1.580   7.839   8.113 -0.0388  0.0467  0.0412
 1135ERGO    R416023   1.367   8.019   8.199 -0.0837 -0.0894  0.1766
 1135ERGO    R516024   1.539   8.072   8.078 -0.1663  0.0319  0.1244
 1135ERGO    C116025   1.590   8.310   8.371 -0.1589 -0.0188  0.1630
 1135ERGO    C216026   1.814   8.592   8.565  0.2651  0.2716  0.0182
 1136ERGO   ROH16027  14.352   1.187   6.384  0.0826 -0.2182  0.1121
 1136ERGO    R116028  14.466   1.211   6.642 -0.2007  0.0959  0.2155
 1136ERGO    R216029  14.315   1.259   6.869 -0.5605 -0.4225  0.0975
 1136ERGO    R316030  14.440   1.036   6.960  0.0802 -0.0655  0.1550
 1136ERGO    R416031  14.354   1.175   7.202 -0.5155 -0.3216  0.1187
 1136ERGO    R516032  14.556   1.107   7.157 -0.2534  0.2916  0.2380
 1136ERGO    C116033  14.494   0.917   7.481  0.1123  0.0722  0.1850
 1136ERGO    C216034  14.479   0.688   7.846  0.3313  0.0788  0.2304
 1137ERGO   ROH16035   3.301   5.808   6.423  0.1124  0.0822 -0.1807
 1137ERGO    R116036   3.364   6.058   6.538 -0.0711  0.1014 -0.1223
 1137ERGO    R216037   3.225   6.163   6.753 -0.0285 -0.1385  0.0180
 1137ERGO    R316038   3.473   6.180   6.863  0.0341  0.0829 -0.1485
 1137ERGO    R416039   3.303   6.348   7.034 -0.0714 -0.2665  0.1168
 1137ERGO    R516040   3.489   6.408   6.936 -0.2084  0.0527  0.0251
 1137ERGO    C116041   3.582   6.473   7.301 -0.0376 -0.1332  0.0182
 1137ERGO    C216042   3.613   6.602   7.564 -0.0703 -0.0109 -0.2453
 1138ERGO   ROH16043   9.288  11.447   6.585  0.0558  0.0287 -0.0890
 1138ERGO    R116044   9.370  11.619   6.795 -0.1343  0.0511 -0.0295
 1138ERGO    R216045   9.309  11.570   7.060 -0.0833 -0.1083 -0.0412
 1138ERGO    R316046   9.578  11.591   7.092 -0.1044  0.1759 -0.0404
 1138ERGO    R416047   9.467  11.642   7.359 -0.1371 -0.3098  0.0371
 1138ERGO    R516048   9.605  11.770   7.249 -0.3029  0.0026  0.1925
 1138ERGO    C116049   9.812  11.704   7.563 -0.1881 -0.1603  0.0834
 1138ERGO    C216050  10.124  11.591   7.710  0.1777  0.2748  0.0016
 1139ERGO   ROH16051   8.874  15.563   6.713  0.0674  0.2004  0.1679
 1139ERGO    R116052   9.071  15.590   6.915  0.0076  0.0986  0.2422
 1139ERGO    R216053   9.122  15.830   7.043  0.1654  0.1052  0.1790
 1139ERGO    R316054   9.078  15.682   7.267 -0.0644  0.2188  0.2114
 1139ERGO    R416055   9.301  15.858   7.336  0.2076 -0.1120  0.1753
 1139ERGO    R516056   9.297  15.641   7.355 -0.1274 -0.1020  0.2232
 1139ERGO    C116057   9.365  15.736   7.718  0.0163 -0.1320  0.2035
 1139ERGO    C216058   9.512  15.895   7.913 -0.0516 -0.1972 -0.1218
 1140ERGO   ROH16059  17.671   5.229   6.415  0.0367  0.1660 -0.1037
 1140ERGO    R116060  17.867   5.243   6.618  0.0287  0.0765 -0.0901
 1140ERGO    R216061  17.932   5.479   6.746 -0.0456  0.0023  0.0831
 1140ERGO    R316062  17.878   5.335   6.970 -0.0043 -0.1784 -0.0202
 1140ERGO    R416063  18.064   5.544   7.058 -0.0275 -0.2157  0.1229
 1140ERGO    R516064  18.086   5.329   7.088  0.0082 -0.2374 -0.0431
 1140ERGO    C116065  18.090   5.447   7.451  0.0219 -0.5124  0.0491
 1140ERGO    C216066  18.311   5.671   7.641 -0.1360 -0.1568  0.0325
 1141ERGO   ROH16067   9.936  16.209   6.759 -0.0457  0.0884  0.0890
 1141ERGO    R116068  10.066  16.261   7.005  0.0111  0.0000  0.0784
 1141ERGO    R216069  10.102  16.517   7.103  0.0904 -0.0306  0.1320
 1141ERGO    R316070   9.978  16.416   7.323  0.1047 -0.0521  0.1300
 1141ERGO    R416071  10.106  16.662   7.416  0.1514 -0.0881  0.1580
 1141ERGO    R516072  10.128  16.464   7.503  0.1344 -0.1062  0.1192
 1141ERGO    C116073   9.991  16.652   7.805  0.2004 -0.1417  0.1712
 1141ERGO    C216074   9.926  16.732   8.194  0.2179  0.0640  0.1525
 1142ERGO   ROH16075   0.815  11.019   9.831 -0.2144  0.2747 -0.0161
 1142ERGO    R116076   0.896  11.046   9.561 -0.0590  0.2584  0.0287
 1142ERGO    R216077   0.888  10.836   9.382  0.0804  0.2411  0.0487
 1142ERGO    R316078   0.741  11.010   9.234  0.1418  0.2004 -0.0633
 1142ERGO    R416079   0.838  10.813   9.041  0.1709  0.0957  0.0439
 1142ERGO    R516080   0.860  11.029   9.027  0.2047  0.0929 -0.0421
 1142ERGO    C116081   0.670  10.963   8.703  0.2813 -0.0270 -0.0639
 1142ERGO    C216082   0.646  11.080   8.413  0.0041 -0.1186  0.0908
 1143ERGO   ROH16083  15.329   2.088   6.323 -0.0106 -0.1932  0.0317
 1143ERGO    R116084  15.296   1.849   6.470 -0.0919 -0.1399  0.0998
 1143ERGO    R216085  15.506   1.725   6.601 -0.1308 -0.1864  0.1107
 1143ERGO    R316086  15.340   1.743   6.816 -0.1013 -0.0662  0.1248
 1143ERGO    R416087  15.518   1.519   6.879 -0.1607 -0.1087  0.1708
 1143ERGO    R516088  15.300   1.516   6.880 -0.1657 -0.0380  0.1968
 1143ERGO    C116089  15.370   1.417   7.242 -0.1504  0.0494  0.2189
 1143ERGO    C216090  15.438   1.243   7.503  0.0083 -0.4535  0.0701
 1144ERGO   ROH16091  15.711  13.106   6.259  0.1094 -0.1451  0.0087
 1144ERGO    R116092  15.844  13.253   6.460  0.1374 -0.1160 -0.0316
 1144ERGO    R216093  15.732  13.302   6.707  0.1062  0.0567 -0.0810
 1144ERGO    R316094  15.963  13.191   6.799  0.0316 -0.0142  0.0253
 1144ERGO    R416095  15.873  13.368   7.016  0.1973  0.3367 -0.1782
 1144ERGO    R516096  16.069  13.369   6.920  0.1885  0.0606 -0.2112
 1144ERGO    C116097  16.171  13.301   7.282  0.1802  0.4334 -0.1351
 1144ERGO    C216098  16.455  13.188   7.461  0.3089  0.0532 -0.4393
 1145ERGO   ROH16099  16.147  14.573   6.197  0.1355 -0.0428 -0.1268
 1145ERGO    R116100  16.296  14.624   6.432  0.0545  0.0756 -0.1017
 1145ERGO    R216101  16.290  14.868   6.562 -0.2654  0.0275 -0.0300
 1145ERGO    R316102  16.223  14.716   6.777 -0.0845 -0.1214 -0.0755
 1145ERGO    R416103  16.319  14.969   6.891 -0.0303 -0.1703  0.0135
 1145ERGO    R516104  16.390  14.769   6.941  0.0373 -0.1994 -0.1662
 1145ERGO    C116105  16.273  14.885   7.285  0.2761 -0.4251 -0.0040
 1145ERGO    C216106  16.238  14.811   7.636 -0.0560  0.2231  0.2498
 1146ERGO   ROH16107  18.153  11.193   6.424  0.0519  0.1011  0.1915
 1146ERGO    R116108  18.133  11.245   6.702  0.0594  0.1489  0.1825
 1146ERGO    R216109  18.098  11.045   6.889 -0.0062  0.1894  0.2088
 1146ERGO    R316110  18.319  11.157   7.002  0.0231  0.1392  0.2035
 1146ERGO    R416111  18.228  10.959   7.198  0.0124  0.1126  0.1806
 1146ERGO    R516112  18.266  11.171   7.235  0.0469  0.1046  0.2139
 1146ERGO    C116113  18.509  11.015   7.484  0.0508  0.0209  0.1592
 1146ERGO    C216114  18.711  10.885   7.751 -0.0229 -0.0318 -0.0254
 1147ERGO   ROH16115  17.791   0.878   6.715 -0.2628  0.0831  0.0251
 1147ERGO    R116116  17.947   1.061   6.865 -0.3723  0.1012  0.1184
 1147ERGO    R216117  17.878   1.142   7.120 -0.2155 -0.3855  0.3272
 1147ERGO    R316118  18.129   1.057   7.180 -0.0069 -0.1006 -0.0872
 1147ERGO    R416119  18.059   1.241   7.397  0.0090 -0.4099  0.1924
 1147ERGO    R516120  18.237   1.250   7.271 -0.1585 -0.0354 -0.0396
 1147ERGO    C116121  18.400   1.219   7.615  0.3354 -0.1566 -0.2752
 1147ERGO    C216122  18.352   1.152   7.994 -0.2278  0.1443  0.1649
 1148ERGO   ROH16123   4.667   5.852   6.169 -0.0479 -0.1309 -0.1537
 1148ERGO    R116124   4.651   5.950   6.434  0.1716 -0.0385 -0.1746
 1148ERGO    R216125   4.575   5.792   6.647 -0.2195  0.1800 -0.1545
 1148ERGO    R316126   4.810   5.877   6.753 -0.0137 -0.3567 -0.1481
 1148ERGO    R416127   4.680   5.730   6.970 -0.5756  0.2574 -0.0181
 1148ERGO    R516128   4.757   5.934   6.979  0.0094  0.0760 -0.2351
 1148ERGO    C116129   4.962   5.773   7.258 -0.5898 -0.2015  0.0672
 1148ERGO    C216130   4.994   5.616   7.618 -0.0584  0.0659 -0.1188
 1149ERGO   ROH16131   1.265   5.756   6.666  0.1183  0.1876 -0.0496
 1149ERGO    R116132   1.332   5.786   6.939 -0.0886  0.0538  0.0183
 1149ERGO    R216133   1.239   5.615   7.135 -0.0493 -0.1859 -0.1664
 1149ERGO    R316134   1.503   5.590   7.193 -0.0576  0.0341 -0.0185
 1149ERGO    R416135   1.368   5.575   7.453 -0.1887 -0.0873 -0.0958
 1149ERGO    R516136   1.531   5.710   7.398 -0.2709  0.0507  0.0012
 1149ERGO    C116137   1.692   5.527   7.692 -0.2775  0.1766  0.0840
 1149ERGO    C216138   1.646   5.473   8.047  0.0216 -0.0340  0.0460
 1150ERGO   ROH16139   3.641   4.981   6.155 -0.1555 -0.0323  0.0087
 1150ERGO    R116140   3.798   5.000   6.390 -0.1502 -0.0339  0.0056
 1150ERGO    R216141   3.820   5.233   6.536 -0.0842 -0.0125 -0.0360
 1150ERGO    R316142   3.739   5.074   6.741 -0.1301  0.0467 -0.0082
 1150ERGO    R416143   3.852   5.311   6.871  0.1572 -0.0667 -0.0450
 1150ERGO    R516144   3.907   5.104   6.909 -0.0164 -0.1222 -0.0896
 1150ERGO    C116145   3.795   5.207   7.259  0.2547 -0.0429 -0.0239
 1150ERGO    C216146   3.787   5.154   7.622 -0.0716 -0.3115  0.2316
 1151ERGO   ROH16147   0.108  18.032   6.480  0.0932 -0.0164 -0.0651
 1151ERGO    R116148   0.135  18.119   6.749 -0.0553 -0.0647 -0.0342
 1151ERGO    R216149   0.011  17.990   6.960  0.0353 -0.2589 -0.0985
 1151ERGO    R316150   0.264  17.980   7.059  0.0281 -0.0187 -0.0482
 1151ERGO    R416151   0.092  17.987   7.296 -0.0181 -0.0834 -0.0821
 1151ERGO    R516152   0.258  18.120   7.253 -0.1204  0.0397 -0.0944
 1151ERGO    C116153   0.377  17.975   7.585 -0.0559  0.2443 -0.0254
 1151ERGO    C216154   0.404  17.908   7.974  0.3768  0.1545 -0.0187
 1152ERGO   ROH16155  18.142   4.030   6.521  0.1151 -0.0313 -0.0768
 1152ERGO    R116156  18.252   4.062   6.780  0.0220 -0.1287 -0.0235
 1152ERGO    R216157  18.187   4.274   6.944  0.1781 -0.0320 -0.0787
 1152ERGO    R316158  18.126   4.077   7.121 -0.1385  0.0512 -0.0900
 1152ERGO    R416159  18.204   4.306   7.287  0.2683 -0.0948 -0.0775
 1152ERGO    R516160  18.287   4.104   7.297 -0.0722 -0.2383 -0.1043
 1152ERGO    C116161  18.157   4.139   7.654  0.0234 -0.0534 -0.0873
 1152ERGO    C216162  18.005   4.299   7.877  0.4217 -0.0092 -0.0557
 1153ERGO   ROH16163   7.218   9.125   9.766 -0.1468 -0.0231 -0.0927
 1153ERGO    R116164   7.091   9.091   9.514 -0.0401 -0.0237 -0.1465
 1153ERGO    R216165   7.046   9.302   9.341 -0.0048 -0.0190 -0.1467
 1153ERGO    R316166   7.180   9.144   9.165  0.0906  0.0183 -0.1085
 1153ERGO    R416167   7.028   9.330   8.997  0.0691 -0.0318 -0.1519
 1153ERGO    R516168   7.026   9.113   8.985  0.1424 -0.0355 -0.1461
 1153ERGO    C116169   7.143   9.198   8.632  0.2017 -0.0043 -0.1191
 1153ERGO    C216170   7.194   9.389   8.404  0.1288  0.2182 -0.0426
 1154ERGO   ROH16171  10.765   6.320   6.636 -0.3113  0.1826  0.0353
 1154ERGO    R116172  10.700   6.352   6.910 -0.1032  0.0530  0.1029
 1154ERGO    R216173  10.775   6.169   7.103  0.0675 -0.0274 -0.0344
 1154ERGO    R316174  10.883   6.388   7.222  0.1367 -0.0692 -0.0207
 1154ERGO    R416175  10.925   6.172   7.415 -0.1686 -0.0414  0.0816
 1154ERGO    R516176  10.829   6.363   7.454 -0.0604  0.0414 -0.0528
 1154ERGO    C116177  11.114   6.380   7.708 -0.2413 -0.0888  0.1620
 1154ERGO    C216178  11.229   6.225   8.013 -0.0285  0.3280  0.0806
 1155ERGO   ROH16179  15.934  15.260   7.974 -0.0124  0.1799  0.2178
 1155ERGO    R116180  15.836  15.521   7.924  0.0024  0.1599  0.0800
 1155ERGO    R216181  15.979  15.708   7.779  0.0435  0.0984  0.0383
 1155ERGO    R316182  15.751  15.719   7.631  0.0837  0.0354 -0.0287
 1155ERGO    R416183  15.857  15.992   7.625  0.0862  0.0297 -0.1244
 1155ERGO    R516184  15.656  15.933   7.684  0.0709  0.0598 -0.1520
 1155ERGO    C116185  15.572  16.169   7.396  0.1487 -0.0694 -0.2820
 1155ERGO    C216186  15.593  16.443   7.290 -0.3487 -0.0211 -0.0622
 1156ERGO   ROH16187   7.765  13.367  10.155 -0.0937  0.2526 -0.0523
 1156ERGO    R116188   7.797  13.233   9.907 -0.1510  0.0619  0.0413
 1156ERGO    R216189   7.583  13.145   9.757 -0.1926  0.1453  0.0544
 1156ERGO    R316190   7.701  13.292   9.561 -0.0241 -0.0831 -0.0201
 1156ERGO    R416191   7.555  13.081   9.418 -0.5452  0.1984  0.0694
 1156ERGO    R516192   7.766  13.130   9.397 -0.4517 -0.2204 -0.0686
 1156ERGO    C116193   7.650  13.182   9.037 -0.5923  0.0148  0.0082
 1156ERGO    C216194   7.601  13.089   8.642 -0.2825  0.0200 -0.4401
 1157ERGO   ROH16195   6.051  15.729   6.210 -0.1345  0.0800  0.0304
 1157ERGO    R116196   6.219  15.825   6.417 -0.1325  0.0666  0.0344
 1157ERGO    R216197   6.165  16.058   6.555 -0.1440  0.0420  0.0650
 1157ERGO    R316198   6.184  15.896   6.772 -0.1186  0.0194  0.0465
 1157ERGO    R416199   6.241  16.165   6.875  0.2657 -0.0289 -0.0036
 1157ERGO    R516200   6.366  15.987   6.899  0.1025 -0.1686 -0.1200
 1157ERGO    C116201   6.304  16.074   7.265  0.5281 -0.0914 -0.0610
 1157ERGO    C216202   6.372  16.270   7.563 -0.0303  0.1612  0.0852
 1158ERGO   ROH16203   9.251  12.478  10.022 -0.0257  0.2178  0.0457
 1158ERGO    R116204   9.319  12.406   9.756 -0.1525  0.0046  0.0689
 1158ERGO    R216205   9.146  12.443   9.544 -0.1204  0.1687  0.0700
 1158ERGO    R316206   9.357  12.577   9.437  0.0729 -0.1831 -0.0076
 1158ERGO    R416207   9.217  12.463   9.206 -0.2944  0.1638  0.0323
 1158ERGO    R516208   9.429  12.440   9.254 -0.2984 -0.2536 -0.1079
 1158ERGO    C116209   9.456  12.602   8.910 -0.2142 -0.1695 -0.0622
 1158ERGO    C216210   9.526  12.578   8.595  0.0744 -0.1896  0.0269
 1159ERGO   ROH16211   2.603   6.948   6.326  0.2524 -0.0953  0.0737
 1159ERGO    R116212   2.631   6.868   6.596  0.0921 -0.0297  0.1100
 1159ERGO    R216213   2.738   7.034   6.790  0.0229 -0.0030  0.1199
 1159ERGO    R316214   2.505   6.980   6.919 -0.0556  0.0806  0.0169
 1159ERGO    R416215   2.681   7.086   7.127 -0.0809 -0.0327  0.1078
 1159ERGO    R516216   2.573   6.897   7.133 -0.1726  0.0110  0.0321
 1159ERGO    C116217   2.430   7.065   7.444 -0.2151  0.0286  0.0041
 1159ERGO    C216218   2.571   7.041   7.758 -0.1329 -0.0763 -0.2503
 1160ERGO   ROH16219  14.456   8.087   6.513 -0.3780  0.0250  0.0454
 1160ERGO    R116220  14.526   8.187   6.769 -0.2903  0.1044 -0.0081
 1160ERGO    R216221  14.342   8.213   6.974 -0.1933  0.0340  0.0924
 1160ERGO    R316222  14.522   8.062   7.111 -0.0314  0.1539  0.0143
 1160ERGO    R416223  14.350   8.179   7.317 -0.2084 -0.2022  0.0704
 1160ERGO    R516224  14.567   8.189   7.309 -0.2188  0.0691  0.1118
 1160ERGO    C116225  14.523   8.018   7.647 -0.0654 -0.2272 -0.0158
 1160ERGO    C216226  14.558   7.874   7.997 -0.1439 -0.2658 -0.1814
 1161ERGO   ROH16227  17.751  12.568   6.352  0.0488  0.2273 -0.0573
 1161ERGO    R116228  17.836  12.569   6.622  0.0027  0.0281 -0.0397
 1161ERGO    R216229  18.076  12.679   6.703  0.0672 -0.1715  0.0649
 1161ERGO    R316230  17.917  12.820   6.873  0.1259 -0.1556  0.1051
 1161ERGO    R416231  18.189  12.904   6.940  0.1466 -0.2278  0.0796
 1161ERGO    R516232  18.040  12.826   7.078  0.1512 -0.2079  0.0875
 1161ERGO    C116233  18.106  13.166   7.238  0.2479 -0.2457  0.1258
 1161ERGO    C216234  17.918  13.435   7.454 -0.0707  0.0651  0.3065
 1162ERGO   ROH16235   2.839   4.105   6.309  0.0113  0.1296  0.0576
 1162ERGO    R116236   2.870   4.006   6.573 -0.1229  0.0732  0.0531
 1162ERGO    R216237   3.102   4.041   6.719 -0.1097 -0.1600  0.0935
 1162ERGO    R316238   2.932   4.147   6.902 -0.0408 -0.0164  0.0761
 1162ERGO    R416239   3.190   4.138   7.039  0.0095  0.0981 -0.0142
 1162ERGO    R516240   3.003   4.054   7.111  0.0391  0.1518  0.1245
 1162ERGO    C116241   3.082   4.293   7.397  0.1437  0.3831 -0.0934
 1162ERGO    C216242   3.255   4.314   7.639  0.0680  0.0322  0.1741
 1163ERGO   ROH16243  16.065  10.918   6.441  0.0652 -0.0665 -0.0846
 1163ERGO    R116244  16.259  10.873   6.642  0.0232 -0.0271 -0.0355
 1163ERGO    R216245  16.226  10.958   6.902 -0.0717 -0.0566 -0.0396
 1163ERGO    R316246  16.274  10.697   6.960 -0.0124 -0.0472 -0.0442
 1163ERGO    R416247  16.246  10.827   7.222 -0.0819 -0.0610 -0.0405
 1163ERGO    R516248  16.414  10.704   7.155 -0.0395 -0.0167 -0.0238
 1163ERGO    C116249  16.304  10.506   7.462 -0.0325 -0.0548 -0.0453
 1163ERGO    C216250  16.234  10.423   7.759 -0.1527  0.0411 -0.0713
 1164ERGO   ROH16251  13.860  11.551   6.195 -0.0248  0.0910 -0.1092
 1164ERGO    R116252  13.826  11.642   6.461 -0.1197  0.1008 -0.1241
 1164ERGO    R216253  13.956  11.525   6.675 -0.1907  0.1141 -0.0752
 1164ERGO    R316254  14.039  11.780   6.722 -0.2149  0.1181 -0.0546
 1164ERGO    R416255  14.031  11.654   6.987 -0.5634  0.2010 -0.0158
 1164ERGO    R516256  13.934  11.840   6.928 -0.4687  0.1979 -0.2012
 1164ERGO    C116257  14.154  11.967   7.212 -0.8030  0.2554  0.0381
 1164ERGO    C216258  14.336  12.196   7.379 -0.1521 -0.2016  0.2062
 1165ERGO   ROH16259  17.386   9.774   6.359 -0.0475  0.1593 -0.1019
 1165ERGO    R116260  17.503   9.660   6.590  0.0352  0.5125  0.0369
 1165ERGO    R216261  17.501   9.786   6.836 -0.6740  0.5106  0.0527
 1165ERGO    R316262  17.390   9.552   6.918 -0.0523  0.1332 -0.1119
 1165ERGO    R416263  17.455   9.695   7.166 -0.8629  0.3776 -0.0087
 1165ERGO    R516264  17.516   9.493   7.113 -0.1245  0.5467  0.0724
 1165ERGO    C116265  17.324   9.423   7.436 -0.3891 -0.0541 -0.1990
 1165ERGO    C216266  17.411   9.421   7.772 -0.1469  0.0781 -0.2110
 1166ERGO   ROH16267   9.437  12.849   6.496  0.1333  0.0413 -0.1289
 1166ERGO    R116268   9.657  12.827   6.672  0.0856  0.1308 -0.0558
 1166ERGO    R216269   9.817  13.043   6.738 -0.0500  0.2074  0.0352
 1166ERGO    R316270   9.755  12.969   6.992 -0.1014  0.1331  0.0007
 1166ERGO    R416271   9.990  13.142   7.020 -0.2820  0.3604  0.1258
 1166ERGO    R516272   9.967  12.940   7.099 -0.1240  0.3337  0.1020
 1166ERGO    C116273  10.032  13.130   7.423 -0.4653  0.3800  0.1462
 1166ERGO    C216274   9.959  13.146   7.723  0.2568 -0.0996 -0.0835
 1167ERGO   ROH16275   8.615  17.754   6.575  0.0469 -0.0052  0.0953
 1167ERGO    R116276   8.844  17.766   6.741  0.0715  0.1093  0.0533
 1167ERGO    R216277   8.859  17.932   6.961 -0.0241  0.0198  0.1259
 1167ERGO    R316278   8.920  17.701   7.090  0.1984  0.0094  0.0082
 1167ERGO    R416279   9.015  17.912   7.269 -0.2859  0.0294  0.2623
 1167ERGO    R516280   9.131  17.744   7.194  0.0417  0.2535  0.2415
 1167ERGO    C116281   9.163  17.683   7.570 -0.2295  0.0252  0.2314
 1167ERGO    C216282   9.109  17.626   7.896 -0.0776  0.4606 -0.0042
 1168ERGO   ROH16283  10.400  11.166   6.418 -0.2969  0.0757 -0.0949
 1168ERGO    R116284  10.189  11.058   6.574 -0.2578  0.0307 -0.0706
 1168ERGO    R216285  10.200  10.804   6.683 -0.1853  0.0330 -0.0544
 1168ERGO    R316286  10.148  10.936   6.914 -0.1932  0.0394 -0.0616
 1168ERGO    R416287  10.005  10.682   6.941 -0.2301  0.0723 -0.0711
 1168ERGO    R516288   9.920  10.882   6.965 -0.2012  0.0775 -0.0818
 1168ERGO    C116289   9.842  10.736   7.308 -0.2636  0.1012 -0.0876
 1168ERGO    C216290   9.585  10.789   7.659 -0.0656  0.0671 -0.2328
 1169ERGO   ROH16291  14.572  17.516   6.532  0.1778 -0.1680  0.0572
 1169ERGO    R116292  14.485  17.389   6.770  0.1809 -0.0124  0.1440
 1169ERGO    R216293  14.518  17.502   7.020 -0.0300  0.2641  0.0560
 1169ERGO    R316294  14.249  17.461   7.037 -0.0042  0.0506 -0.0355
 1169ERGO    R416295  14.352  17.393   7.303 -0.0435  0.0824 -0.0215
 1169ERGO    R516296  14.227  17.267   7.176  0.0975  0.0107 -0.0812
 1169ERGO    C116297  14.004  17.291   7.484 -0.0271 -0.2239 -0.1524
 1169ERGO    C216298  13.932  17.417   7.726 -0.2690  0.0439 -0.0660
 1170ERGO   ROH16299   2.354  10.079   6.320  0.1106  0.1673  0.0083
 1170ERGO    R116300   2.349  10.235   6.556  0.0698  0.1338  0.0288
 1170ERGO    R216301   2.117  10.284   6.697  0.0816 -0.0703  0.1156
 1170ERGO    R316302   2.260  10.183   6.905  0.2352  0.0197  0.0563
 1170ERGO    R416303   2.095  10.395   7.023  0.1064 -0.1121  0.1322
 1170ERGO    R516304   2.312  10.375   7.040  0.1337  0.0536  0.0532
 1170ERGO    C116305   2.216  10.366   7.409  0.2650 -0.0516  0.0863
 1170ERGO    C216306   2.229  10.511   7.750 -0.1824 -0.2419 -0.4104
 1171ERGO   ROH16307  10.027   8.047   6.361  0.0949  0.0651 -0.0733
 1171ERGO    R116308   9.972   8.003   6.636  0.2273 -0.0040 -0.0584
 1171ERGO    R216309  10.134   8.101   6.837  0.1676  0.1901 -0.1103
 1171ERGO    R316310   9.902   8.209   6.927  0.0603 -0.0912 -0.0341
 1171ERGO    R416311  10.061   8.161   7.169  0.2180  0.1186 -0.0849
 1171ERGO    R516312   9.858   8.092   7.131  0.2824 -0.1400 -0.0073
 1171ERGO    C116313   9.801   8.297   7.448  0.1466 -0.1870  0.0014
 1171ERGO    C216314   9.723   8.500   7.763 -0.0514  0.1124  0.3292
 1172ERGO   ROH16315   3.586   7.952   6.328  0.0063  0.1960  0.0312
 1172ERGO    R116316   3.702   7.997   6.582  0.3502 -0.2211 -0.0415
 1172ERGO    R216317   3.561   8.105   6.793  0.8481  0.2359  0.0691
 1172ERGO    R316318   3.646   7.882   6.922  0.2025 -0.0877 -0.0165
 1172ERGO    R416319   3.514   8.041   7.129  0.6770  0.2687  0.0536
 1172ERGO    R516320   3.716   7.961   7.137  0.4654 -0.3497  0.0092
 1172ERGO    C116321   3.567   7.795   7.447 -0.0287 -0.0162 -0.0358
 1172ERGO    C216322   3.396   7.585   7.655 -0.4455  0.2211  0.0153
 1173ERGO   ROH16323  11.494  11.291   6.346 -0.1530  0.0265  0.0552
 1173ERGO    R116324  11.403  11.245   6.610  0.0150  0.0419  0.1168
 1173ERGO    R216325  11.236  11.035   6.675 -0.0533  0.1250  0.2110
 1173ERGO    R316326  11.430  10.978   6.856  0.0500 -0.0057  0.0615
 1173ERGO    R416327  11.206  10.805   6.931  0.0836 -0.0413  0.0799
 1173ERGO    R516328  11.312  10.943   7.061  0.1678 -0.1328  0.1096
 1173ERGO    C116329  11.371  10.617   7.249  0.2603 -0.2609 -0.1369
 1173ERGO    C216330  11.500  10.323   7.431  0.0369 -0.3654  0.0488
 1174ERGO   ROH16331  17.815   0.413   8.534  0.1977 -0.1228  0.0308
 1174ERGO    R116332  17.799   0.233   8.316  0.1386 -0.0932  0.0112
 1174ERGO    R216333  17.578   0.219   8.150  0.1257 -0.0188  0.0259
 1174ERGO    R316334  17.763   0.257   7.955  0.1208 -0.0437  0.0155
 1174ERGO    R416335  17.512   0.209   7.811  0.1338 -0.1744  0.0277
 1174ERGO    R516336  17.700   0.103   7.783  0.1674 -0.1334  0.0753
 1174ERGO    C116337  17.648   0.239   7.430  0.1339 -0.2883  0.0189
 1174ERGO    C216338  17.572   0.127   7.181  0.1235 -0.0434  0.0092
 1175ERGO   ROH16339  13.384   8.460   6.420 -0.2203  0.0820 -0.2025
 1175ERGO    R116340  13.379   8.682   6.595 -0.1139  0.0648 -0.1768
 1175ERGO    R216341  13.174   8.869   6.594 -0.1324  0.0476 -0.0131
 1175ERGO    R316342  13.159   8.806   6.858  0.0616  0.0207 -0.0069
 1175ERGO    R416343  13.051   9.077   6.840 -0.1746 -0.0673  0.0640
 1175ERGO    R516344  13.211   9.010   6.971 -0.0472  0.0589 -0.0252
 1175ERGO    C116345  12.965   9.140   7.231 -0.0169 -0.1595  0.1149
 1175ERGO    C216346  12.806   9.122   7.494 -0.4975 -0.2250  0.5884
 1176ERGO   ROH16347  16.375  10.063   6.180  0.3458 -0.0212  0.0365
 1176ERGO    R116348  16.318   9.886   6.393  0.0164  0.1024  0.0552
 1176ERGO    R216349  16.511   9.801   6.572 -0.1493 -0.1966  0.0863
 1176ERGO    R316350  16.335   9.895   6.756 -0.0182  0.1235  0.0587
 1176ERGO    R416351  16.530   9.741   6.911 -0.4355 -0.4606  0.0607
 1176ERGO    R516352  16.313   9.716   6.914 -0.5180  0.0576 -0.0576
 1176ERGO    C116353  16.375   9.793   7.282 -0.4793 -0.3140  0.0199
 1176ERGO    C216354  16.439   9.636   7.691  0.1595 -0.2499  0.3490
 1177ERGO   ROH16355   0.607  10.442   6.222 -0.2981  0.0684  0.0084
 1177ERGO    R116356   0.719  10.390   6.476 -0.2537  0.1943  0.0133
 1177ERGO    R216357   0.575  10.418   6.711 -0.3444 -0.1025 -0.0135
 1177ERGO    R316358   0.653  10.161   6.752  0.0837  0.0114 -0.0485
 1177ERGO    R416359   0.671  10.287   7.016 -0.6635 -0.0979  0.0946
 1177ERGO    R516360   0.829  10.177   6.914 -0.2361  0.2680  0.3036
 1177ERGO    C116361   0.800   9.969   7.232 -0.4473  0.0118  0.1249
 1177ERGO    C216362   0.961   9.933   7.561  0.4122 -0.2419 -0.0763
 1178ERGO   ROH16363   4.677   7.466   6.111  0.1746  0.2527  0.0819
 1178ERGO    R116364   4.589   7.523   6.374 -0.1824 -0.0884  0.0425
 1178ERGO    R216365   4.540   7.325   6.560  0.3076 -0.3036 -0.0547
 1178ERGO    R316366   4.713   7.470   6.712 -0.2315  0.2067  0.1116
 1178ERGO    R416367   4.596   7.276   6.898  0.5352 -0.5642 -0.1245
 1178ERGO    R516368   4.602   7.493   6.923 -0.3288 -0.5262  0.1716
 1178ERGO    C116369   4.790   7.385   7.237  0.1616 -0.2368 -0.0091
 1178ERGO    C216370   4.824   7.211   7.579 -0.0223  0.0505 -0.2625
 1179ERGO   ROH16371   8.713   2.004   6.901  0.0785 -0.0247  0.0063
 1179ERGO    R116372   8.565   2.065   7.135  0.0933 -0.1176  0.0410
 1179ERGO    R216373   8.564   1.901   7.357  0.1681 -0.1702  0.0067
 1179ERGO    R316374   8.638   2.130   7.485  0.1255 -0.1778  0.0444
 1179ERGO    R416375   8.598   1.934   7.700  0.0337 -0.1763  0.0209
 1179ERGO    R516376   8.507   2.131   7.685  0.0487 -0.1757 -0.0089
 1179ERGO    C116377   8.688   2.168   8.019 -0.0844 -0.1871  0.0646
 1179ERGO    C216378   8.814   2.086   8.315  0.0875  0.0596  0.0446
 1180ERGO   ROH16379   8.105  10.199   6.310 -0.1669  0.3300 -0.0987
 1180ERGO    R116380   8.223  10.307   6.544 -0.0463  0.1728 -0.0855
 1180ERGO    R216381   8.076  10.441   6.737  0.0725  0.1513  0.0202
 1180ERGO    R316382   8.189  10.259   6.903  0.0445  0.0262 -0.0959
 1180ERGO    R416383   7.997  10.403   7.071  0.0143 -0.1019 -0.0196
 1180ERGO    R516384   8.209  10.373   7.113  0.0070 -0.1309 -0.0047
 1180ERGO    C116385   8.058  10.210   7.422 -0.0459 -0.3670 -0.1518
 1180ERGO    C216386   8.040   9.975   7.656  0.0996  0.3190  0.2389
 1181ERGO   ROH16387   6.165  17.169   6.654 -0.3375 -0.1408  0.0667
 1181ERGO    R116388   6.198  17.088   6.923 -0.2478 -0.0551  0.0829
 1181ERGO    R216389   6.409  17.175   7.080 -0.1823 -0.0183 -0.0180
 1181ERGO    R316390   6.210  17.250   7.249 -0.1189  0.0534  0.0244
 1181ERGO    R416391   6.444  17.220   7.421 -0.1081 -0.0749 -0.0186
 1181ERGO    R516392   6.250  17.126   7.449 -0.1451  0.0127  0.0017
 1181ERGO    C116393   6.276  17.317   7.778 -0.0054 -0.0406  0.0208
 1181ERGO    C216394   6.083  17.460   8.001  0.0713  0.1404  0.0823
 1182ERGO   ROH16395   5.474   6.877   6.162 -0.0667  0.1096 -0.1150
 1182ERGO    R116396   5.407   6.848   6.435 -0.0982  0.1889 -0.1120
 1182ERGO    R216397   5.488   6.631   6.586 -0.3347  0.0915 -0.1016
 1182ERGO    R316398   5.588   6.823   6.750 -0.1158 -0.0061 -0.1202
 1182ERGO    R416399   5.528   6.597   6.927 -0.2116  0.0438 -0.1217
 1182ERGO    R516400   5.459   6.802   6.951 -0.0365  0.0849 -0.0704
 1182ERGO    C116401   5.646   6.758   7.281  0.0655 -0.0756 -0.1509
 1182ERGO    C216402   5.594   6.960   7.554 -0.0201  0.1595 -0.2304
 1183ERGO   ROH16403   3.264  14.900   6.555 -0.1378 -0.0310 -0.1742
 1183ERGO    R116404   3.207  14.971   6.823  0.0090  0.0233 -0.1595
 1183ERGO    R216405   3.119  14.788   7.011  0.0706  0.0781 -0.0953
 1183ERGO    R316406   3.332  14.880   7.153  0.1513  0.0602 -0.1980
 1183ERGO    R416407   3.149  14.773   7.355  0.1835  0.1295 -0.1004
 1183ERGO    R516408   3.236  14.972   7.351  0.2327  0.1228 -0.1749
 1183ERGO    C116409   3.366  14.850   7.688  0.3250  0.1424 -0.1997
 1183ERGO    C216410   3.407  14.857   8.021  0.0045  0.1855 -0.2292
 1184ERGO   ROH16411  17.114  13.510   6.156  0.0992  0.0356 -0.0290
 1184ERGO    R116412  17.115  13.427   6.426 -0.1391 -0.0399 -0.0508
 1184ERGO    R216413  17.232  13.575   6.626  0.0329 -0.2873  0.0241
 1184ERGO    R316414  16.987  13.553   6.743 -0.0500  0.0862 -0.0612
 1184ERGO    R416415  17.173  13.608   6.965 -0.0442 -0.0591 -0.0088
 1184ERGO    R516416  17.032  13.441   6.951 -0.2677  0.1107  0.0091
 1184ERGO    C116417  16.908  13.607   7.272 -0.1665  0.4244 -0.1079
 1184ERGO    C216418  16.885  13.772   7.515  0.2092 -0.2745 -0.1274
 1185ERGO   ROH16419  10.390   3.043   6.591 -0.2917 -0.1066  0.1545
 1185ERGO    R116420  10.511   3.166   6.816 -0.2520 -0.0527  0.1037
 1185ERGO    R216421  10.365   3.250   7.035 -0.2179  0.0336  0.0930
 1185ERGO    R316422  10.542   3.095   7.172 -0.2231  0.0530  0.1227
 1185ERGO    R416423  10.425   3.272   7.375 -0.4096 -0.0841  0.1366
 1185ERGO    R516424  10.638   3.243   7.334 -0.3742  0.0265  0.2381
 1185ERGO    C116425  10.626   3.139   7.701 -0.5260 -0.1345  0.1897
 1185ERGO    C216426  10.563   3.266   8.004  0.2932 -0.0534  0.1550
 1186ERGO   ROH16427   2.770  13.766   6.570 -0.0789 -0.0177  0.0929
 1186ERGO    R116428   2.696  13.845   6.831  0.0458  0.0589  0.1057
 1186ERGO    R216429   2.872  13.838   7.045  0.1383  0.0862  0.0336
 1186ERGO    R316430   2.801  14.099   7.070  0.1883  0.1033 -0.0041
 1186ERGO    R416431   2.940  14.035   7.320 -0.0375  0.0503  0.1042
 1186ERGO    R516432   2.741  14.123   7.301  0.0038  0.1046 -0.0528
 1186ERGO    C116433   2.914  14.395   7.504 -0.0929  0.0453  0.1100
 1186ERGO    C216434   2.933  14.592   7.773 -0.2993  0.2442  0.1195
 1187ERGO   ROH16435  16.037  11.923   6.270 -0.2021 -0.1646 -0.0197
 1187ERGO    R116436  16.151  12.001   6.518 -0.0223 -0.1287 -0.1120
 1187ERGO    R216437  16.024  11.957   6.759  0.0095  0.1842 -0.0358
 1187ERGO    R316438  16.258  11.834   6.823 -0.1107 -0.0499 -0.0373
 1187ERGO    R416439  16.169  11.959   7.073  0.0319  0.0714 -0.0451
 1187ERGO    R516440  16.364  11.983   6.978  0.0535 -0.1389 -0.0607
 1187ERGO    C116441  16.473  11.843   7.316 -0.0678 -0.2141 -0.0519
 1187ERGO    C216442  16.547  11.577   7.642  0.0260  0.0250 -0.3303
 1188ERGO   ROH16443   3.710  16.054   6.510 -0.0583  0.1213 -0.1807
 1188ERGO    R116444   3.785  16.151   6.765 -0.0287  0.2313 -0.2319
 1188ERGO    R216445   3.654  16.360   6.889 -0.1980  0.0940 -0.1859
 1188ERGO    R316446   3.629  16.182   7.093  0.1144  0.0878 -0.1470
 1188ERGO    R416447   3.621  16.446   7.222 -0.3925  0.1216 -0.2107
 1188ERGO    R516448   3.754  16.281   7.273 -0.0793  0.3732 -0.1567
 1188ERGO    C116449   3.578  16.329   7.607 -0.2125  0.1321 -0.1887
 1188ERGO    C216450   3.506  16.689   7.812  0.1150 -0.4716  0.2312
 1189ERGO   ROH16451  13.473   2.219   6.373 -0.0442 -0.1275 -0.1598
 1189ERGO    R116452  13.597   2.411   6.541 -0.0997 -0.0364 -0.2214
 1189ERGO    R216453  13.508   2.672   6.559 -0.2650 -0.0895 -0.2000
 1189ERGO    R316454  13.498   2.616   6.825 -0.1201 -0.0864 -0.1933
 1189ERGO    R416455  13.475   2.908   6.809 -0.3524 -0.1086 -0.1935
 1189ERGO    R516456  13.619   2.796   6.928 -0.2209  0.0090 -0.2452
 1189ERGO    C116457  13.446   2.994   7.204 -0.2670 -0.1168 -0.1836
 1189ERGO    C216458  13.451   3.139   7.460 -0.2458  0.1075 -0.0840
 1190ERGO   ROH16459  15.455  10.103   6.114  0.0234 -0.1159 -0.0269
 1190ERGO    R116460  15.515  10.164   6.384 -0.0644 -0.1205 -0.0059
 1190ERGO    R216461  15.333  10.283   6.554 -0.0813 -0.0118 -0.0968
 1190ERGO    R316462  15.389  10.068   6.711 -0.2578 -0.0268 -0.0523
 1190ERGO    R416463  15.373  10.294   6.897 -0.0428  0.0270 -0.1026
 1190ERGO    R516464  15.538  10.154   6.877 -0.1688 -0.1231 -0.0841
 1190ERGO    C116465  15.450  10.099   7.244 -0.1859  0.0355 -0.0641
 1190ERGO    C216466  15.458   9.871   7.460 -0.2645  0.0168  0.0905
 1191ERGO   ROH16467  17.240   4.986   6.261  0.0091 -0.0766 -0.0021
 1191ERGO    R116468  17.268   4.778   6.451  0.1328 -0.0862 -0.0287
 1191ERGO    R216469  17.453   4.788   6.656  0.1540 -0.0201 -0.0463
 1191ERGO    R316470  17.234   4.744   6.812  0.1911 -0.1421 -0.0294
 1191ERGO    R416471  17.453   4.789   7.002  0.1567  0.0748 -0.0470
 1191ERGO    R516472  17.318   4.618   6.998  0.2872 -0.0265  0.0033
 1191ERGO    C116473  17.249   4.748   7.349  0.1931  0.0157 -0.0315
 1191ERGO    C216474  17.236   4.904   7.585 -0.0559 -0.1505 -0.3613
 1192ERGO   ROH16475   2.071   0.745   6.351 -0.1851  0.0226  0.0446
 1192ERGO    R116476   1.889   0.874   6.526 -0.1201  0.0295  0.1081
 1192ERGO    R216477   1.627   0.927   6.456 -0.1277  0.0943  0.1763
 1192ERGO    R316478   1.572   0.791   6.685 -0.1004  0.0648  0.1648
 1192ERGO    R416479   1.387   1.017   6.687  0.0486  0.1836  0.3261
 1192ERGO    R516480   1.525   0.962   6.846  0.0922  0.0481  0.2390
 1192ERGO    C116481   1.196   0.943   7.037  0.1768  0.2079  0.4025
 1192ERGO    C216482   0.948   1.031   7.179 -0.0841  0.0842  0.0414
 1193ERGO   ROH16483   3.644  11.822   6.274 -0.0754 -0.1252  0.2401
 1193ERGO    R116484   3.827  11.729   6.469  0.1755 -0.0071  0.0675
 1193ERGO    R216485   4.096  11.793   6.464  0.1057  0.3098 -0.0975
 1193ERGO    R316486   4.047  11.879   6.717  0.1793  0.1360 -0.0233
 1193ERGO    R416487   4.338  11.844   6.705  0.1813  0.2712 -0.1647
 1193ERGO    R516488   4.203  11.757   6.852  0.2864  0.1262 -0.1606
 1193ERGO    C116489   4.433  11.954   7.084  0.2944  0.0856 -0.1341
 1193ERGO    C216490   4.676  11.831   7.270 -0.2856  0.0421 -0.1232
 1194ERGO   ROH16491   1.503   9.703   6.183  0.0807 -0.1408 -0.0170
 1194ERGO    R116492   1.541   9.511   6.387  0.1641  0.0605  0.1601
 1194ERGO    R216493   1.614   9.250   6.333 -0.2465 -0.0995  0.3518
 1194ERGO    R316494   1.816   9.305   6.508  0.1088 -0.1311 -0.0291
 1194ERGO    R416495   1.746   9.023   6.558 -0.2147  0.0140  0.4495
 1194ERGO    R516496   1.755   9.184   6.706  0.2379  0.2123  0.2337
 1194ERGO    C116497   2.012   8.942   6.853  0.1372  0.0505  0.1489
 1194ERGO    C216498   2.101   8.844   7.156  0.1955  0.0098  0.0244
 1195ERGO   ROH16499  15.757   8.340   6.332  0.0341 -0.0350 -0.0192
 1195ERGO    R116500  15.918   8.294   6.561 -0.0563 -0.0933  0.0342
 1195ERGO    R216501  15.947   8.482   6.762  0.1055 -0.0192 -0.0515
 1195ERGO    R316502  15.867   8.277   6.921 -0.1481  0.1419  0.0333
 1195ERGO    R416503  16.068   8.418   7.079  0.2259 -0.2004 -0.1324
 1195ERGO    R516504  16.066   8.205   7.032 -0.1912 -0.2058 -0.1056
 1195ERGO    C116505  16.063   8.188   7.413  0.0580 -0.1545 -0.0999
 1195ERGO    C216506  16.102   8.114   7.647  0.1130  0.1850 -0.0898
 1196ERGO   ROH16507   7.685  15.803   6.808  0.1265 -0.0605 -0.0353
 1196ERGO    R116508   7.460  15.834   6.977  0.0978  0.0837 -0.1002
 1196ERGO    R216509   7.357  15.627   7.128 -0.1085  0.1366 -0.1702
 1196ERGO    R316510   7.389  15.804   7.332 -0.0382  0.0752 -0.1266
 1196ERGO    R416511   7.214  15.595   7.441  0.1377 -0.0529 -0.0725
 1196ERGO    R516512   7.175  15.810   7.440  0.0345 -0.0669  0.0364
 1196ERGO    C116513   7.160  15.742   7.815  0.3469 -0.2208  0.0254
 1196ERGO    C216514   6.932  15.602   8.147  0.2631 -0.3252  0.3371
 1197ERGO   ROH16515   8.417   8.918   5.974  0.1557  0.0323  0.1652
 1197ERGO    R116516   8.532   8.819   6.213  0.1019  0.0277  0.1876
 1197ERGO    R216517   8.612   8.985   6.418 -0.0331  0.0135  0.2431
 1197ERGO    R316518   8.451   8.825   6.568 -0.0270 -0.0712  0.1625
 1197ERGO    R416519   8.669   8.902   6.749  0.0529 -0.2530  0.1652
 1197ERGO    R516520   8.603   8.699   6.704 -0.0052 -0.2117  0.0211
 1197ERGO    C116521   8.551   8.704   7.082  0.1087 -0.4876  0.0443
 1197ERGO    C216522   8.395   8.698   7.341  0.4310  0.0817  0.1877
 1198ERGO   ROH16523  17.837  14.653   8.188  0.0826  0.1625  0.0862
 1198ERGO    R116524  18.083  14.774   8.116  0.1313  0.0034 -0.0185
 1198ERGO    R216525  18.319  14.721   8.251  0.1092  0.0240  0.0262
 1198ERGO    R316526  18.409  14.660   8.002  0.0876 -0.2263  0.0769
 1198ERGO    R416527  18.633  14.596   8.180  0.1245  0.0067  0.1233
 1198ERGO    R516528  18.640  14.725   8.005  0.0770 -0.1770 -0.0198
 1198ERGO    C116529  18.900  14.465   7.905  0.1133 -0.2383  0.2275
 1198ERGO    C216530  19.123  14.194   7.988  0.1495 -0.2430  0.0047
 1199ERGO   ROH16531  12.930   4.536   6.614  0.0396 -0.2063  0.1047
 1199ERGO    R116532  13.161   4.424   6.732  0.0704 -0.1186  0.1277
 1199ERGO    R216533  13.335   4.572   6.888  0.0141 -0.0461  0.1199
 1199ERGO    R316534  13.288   4.374   7.069  0.0714 -0.0424  0.1392
 1199ERGO    R416535  13.539   4.497   7.157  0.0524  0.0231  0.1105
 1199ERGO    R516536  13.505   4.286   7.118  0.0966  0.0108  0.1297
 1199ERGO    C116537  13.614   4.268   7.483  0.1283  0.0668  0.1232
 1199ERGO    C216538  13.805   4.310   7.838 -0.3654  0.0086 -0.0143
 1200ERGO   ROH16539  14.410  10.105   6.296  0.3196 -0.1298  0.1613
 1200ERGO    R116540  14.411  10.053   6.574  0.2261  0.1575  0.2202
 1200ERGO    R216541  14.279  10.212   6.756 -0.2285  0.0944 -0.0327
 1200ERGO    R316542  14.164   9.977   6.831  0.1812 -0.0679  0.1107
 1200ERGO    R416543  14.117  10.157   7.057 -0.5176  0.1305 -0.1788
 1200ERGO    R516544  14.210   9.960   7.065 -0.0935  0.3338  0.1987
 1200ERGO    C116545  13.915   9.905   7.301 -0.3013 -0.0010 -0.1292
 1200ERGO    C216546  13.558   9.834   7.420 -0.1646 -0.0763 -0.2683
 1201ERGO   ROH16547   8.585  13.507   6.512 -0.0980 -0.0153 -0.0142
 1201ERGO    R116548   8.498  13.269   6.638 -0.0034 -0.0560 -0.0251
 1201ERGO    R216549   8.657  13.044   6.657  0.0695 -0.0093 -0.0760
 1201ERGO    R316550   8.601  13.066   6.922  0.1073 -0.0548 -0.0641
 1201ERGO    R416551   8.687  12.786   6.885  0.1768 -0.0259 -0.1080
 1201ERGO    R516552   8.501  12.855   6.978  0.1740 -0.0876 -0.0700
 1201ERGO    C116553   8.652  12.657   7.267  0.2746 -0.0783 -0.1155
 1201ERGO    C216554   8.891  12.533   7.515 -0.0310 -0.1266  0.2117
 1202ERGO   ROH16555  12.731  12.909   6.790 -0.2096  0.0958  0.1093
 1202ERGO    R116556  12.832  12.783   7.022 -0.1438  0.0755  0.0710
 1202ERGO    R216557  12.667  12.697   7.227 -0.0831  0.1108  0.1396
 1202ERGO    R316558  12.794  12.460   7.185 -0.1503  0.0849  0.0854
 1202ERGO    R416559  12.678  12.435   7.453 -0.0673  0.0902  0.1145
 1202ERGO    R516560  12.887  12.403   7.398 -0.0957  0.0469  0.0481
 1202ERGO    C116561  12.804  12.060   7.544 -0.1211  0.0539  0.0490
 1202ERGO    C216562  12.640  11.799   7.614  0.0633 -0.3674 -0.0188
 1203ERGO   ROH16563   1.521  14.675   6.462 -0.1457 -0.1517 -0.2974
 1203ERGO    R116564   1.402  14.511   6.660 -0.1080 -0.0978 -0.2297
 1203ERGO    R216565   1.147  14.408   6.634 -0.1033 -0.1268 -0.1652
 1203ERGO    R316566   1.272  14.172   6.680 -0.0781 -0.1021 -0.1045
 1203ERGO    R416567   1.004  14.137   6.794 -0.1467 -0.1781 -0.2898
 1203ERGO    R516568   1.194  14.104   6.896 -0.2080 -0.1436 -0.1644
 1203ERGO    C116569   1.039  13.757   6.929 -0.1483 -0.1849 -0.3054
 1203ERGO    C216570   0.875  13.407   6.986 -0.0903 -0.3426  0.3707
 1204ERGO   ROH16571   5.043   0.912   6.734  0.0693 -0.0052 -0.0944
 1204ERGO    R116572   5.141   0.797   6.974 -0.0812 -0.0265 -0.0422
 1204ERGO    R216573   5.005   0.600   7.111 -0.1028 -0.1361 -0.2200
 1204ERGO    R316574   5.240   0.466   7.088 -0.0126 -0.0109 -0.0551
 1204ERGO    R416575   5.112   0.350   7.325 -0.1704 -0.1519 -0.2041
 1204ERGO    R516576   5.313   0.434   7.313 -0.1986 -0.0466  0.0025
 1204ERGO    C116577   5.395   0.079   7.427 -0.1250 -0.0437 -0.0401
 1204ERGO    C216578   5.655  -0.196   7.593  0.0490 -0.0135 -0.0942
 1205ERGO   ROH16579   4.007  18.153   6.549 -0.0624 -0.0651  0.0619
 1205ERGO    R116580   4.001  18.199   6.828 -0.0144 -0.0700  0.0643
 1205ERGO    R216581   4.066  18.004   7.013 -0.0554 -0.0975  0.0533
 1205ERGO    R316582   4.239  18.193   7.103  0.0169 -0.1553  0.0347
 1205ERGO    R416583   4.105  18.095   7.344 -0.0323 -0.0629  0.0407
 1205ERGO    R516584   4.121  18.303   7.280  0.0554 -0.0811  0.0124
 1205ERGO    C116585   4.291  18.326   7.621  0.0490 -0.0971  0.0160
 1205ERGO    C216586   4.400  18.254   7.972 -0.0519 -0.2418 -0.0583
 1206ERGO   ROH16587  11.188   9.415   6.265  0.0669 -0.2155  0.1800
 1206ERGO    R116588  10.918   9.430   6.352  0.0640 -0.0568  0.1465
 1206ERGO    R216589  10.816   9.265   6.548 -0.0934 -0.0928  0.0355
 1206ERGO    R316590  10.744   9.501   6.663  0.0712 -0.1017  0.1611
 1206ERGO    R416591  10.608   9.295   6.822 -0.3233 -0.0852 -0.1373
 1206ERGO    R516592  10.515   9.468   6.727 -0.0329  0.1065 -0.0869
 1206ERGO    C116593  10.418   9.534   7.090 -0.3028 -0.0892 -0.1200
 1206ERGO    C216594  10.412   9.489   7.482  0.1798 -0.1798 -0.1070
 1207ERGO   ROH16595   0.824   3.738   6.361 -0.2046 -0.2823  0.0242
 1207ERGO    R116596   0.795   3.739   6.642 -0.2459 -0.3949  0.0206
 1207ERGO    R216597   0.844   3.516   6.798  0.2832 -0.3099 -0.0087
 1207ERGO    R316598   1.010   3.685   6.931 -0.1388  0.0883  0.0396
 1207ERGO    R416599   0.868   3.540   7.142  0.3690 -0.5104  0.0010
 1207ERGO    R516600   0.883   3.756   7.121 -0.2746 -0.4276  0.1587
 1207ERGO    C116601   1.038   3.712   7.467  0.0228 -0.2534  0.0521
 1207ERGO    C216602   1.136   3.723   7.812 -0.0158 -0.0075 -0.0554
 1208ERGO   ROH16603   4.650   2.197   6.760  0.2035 -0.1871  0.0933
 1208ERGO    R116604   4.654   2.073   7.015  0.1742  0.0413  0.2093
 1208ERGO    R216605   4.638   2.217   7.251 -0.1251  0.2391  0.0811
 1208ERGO    R316606   4.431   2.049   7.301  0.0162  0.0658  0.0879
 1208ERGO    R416607   4.477   2.187   7.555 -0.1010  0.1086  0.0800
 1208ERGO    R516608   4.469   1.971   7.524  0.0796  0.1036  0.0868
 1208ERGO    C116609   4.188   2.012   7.779  0.0458 -0.1300  0.0857
 1208ERGO    C216610   4.107   1.994   8.095  0.1235 -0.1474  0.1953
 1209ERGO   ROH16611   9.617   2.656   6.703 -0.0522  0.1206  0.1705
 1209ERGO    R116612   9.627   2.583   6.976 -0.3236 -0.1786  0.1072
 1209ERGO    R216613   9.496   2.361   7.076 -0.0196 -0.5921 -0.3561
 1209ERGO    R316614   9.743   2.297   7.169 -0.0124 -0.1693 -0.0624
 1209ERGO    R416615   9.558   2.165   7.354 -0.0045 -0.5512 -0.3310
 1209ERGO    R516616   9.720   2.301   7.407 -0.3140 -0.2707 -0.0908
 1209ERGO    C116617   9.826   1.991   7.604  0.0109 -0.1304 -0.0407
 1209ERGO    C216618   9.969   1.783   7.833  0.0960  0.1362  0.2664
 1210ERGO   ROH16619   4.567  16.387   6.698  0.0550  0.0073  0.0129
 1210ERGO    R116620   4.654  16.413   6.966 -0.0184  0.2524  0.0156
 1210ERGO    R216621   4.561  16.612   7.134 -0.4905  0.0782 -0.0222
 1210ERGO    R316622   4.500  16.402   7.296 -0.0240 -0.0449  0.0052
 1210ERGO    R416623   4.587  16.614   7.478 -0.6177  0.2304 -0.0126
 1210ERGO    R516624   4.666  16.411   7.469 -0.0993  0.4138  0.0641
 1210ERGO    C116625   4.546  16.418   7.831 -0.2538  0.2037  0.0188
 1210ERGO    C216626   4.329  16.539   8.192 -0.0438  0.4075 -0.1179
 1211ERGO   ROH16627   2.230   5.591   6.151 -0.0730  0.1090 -0.0499
 1211ERGO    R116628   2.197   5.620   6.431  0.0238  0.2275 -0.0511
 1211ERGO    R216629   2.246   5.413   6.608 -0.1854  0.2209 -0.0113
 1211ERGO    R316630   2.409   5.596   6.725  0.0618  0.0569 -0.0878
 1211ERGO    R416631   2.425   5.362   6.899 -0.3813  0.1350  0.0975
 1211ERGO    R516632   2.376   5.565   6.960 -0.0896  0.2727 -0.0699
 1211ERGO    C116633   2.683   5.504   7.179 -0.2632 -0.0690  0.0890
 1211ERGO    C216634   2.882   5.446   7.411  0.3306  0.0630 -0.1270
 1212ERGO   ROH16635   7.789   2.556   6.839  0.0389  0.1771 -0.1132
 1212ERGO    R116636   7.745   2.625   7.109 -0.0026  0.0976 -0.1001
 1212ERGO    R216637   7.500   2.714   7.203 -0.0439 -0.0368 -0.0906
 1212ERGO    R316638   7.531   2.510   7.380  0.0412 -0.0595 -0.1294
 1212ERGO    R416639   7.397   2.723   7.532  0.0988 -0.0736 -0.0436
 1212ERGO    R516640   7.581   2.620   7.588  0.1308 -0.0778 -0.1369
 1212ERGO    C116641   7.365   2.537   7.891  0.2617 -0.1163 -0.0526
 1212ERGO    C216642   7.316   2.346   8.157  0.2140 -0.0203 -0.3214
 1213ERGO   ROH16643   1.697  16.658   7.036  0.2616  0.0869  0.1136
 1213ERGO    R116644   1.572  16.588   7.280  0.4114  0.0721  0.1863
 1213ERGO    R216645   1.347  16.427   7.291  0.1657  0.4151  0.2764
 1213ERGO    R316646   1.500  16.281   7.462  0.1235  0.0177 -0.0095
 1213ERGO    R416647   1.236  16.289   7.588  0.3009  0.5054  0.3712
 1213ERGO    R516648   1.425  16.346   7.680  0.5622  0.0795  0.1354
 1213ERGO    C116649   1.315  16.072   7.921  0.3402  0.1846  0.1579
 1213ERGO    C216650   1.066  15.880   8.033 -0.2481  0.0554  0.2124
 1214ERGO   ROH16651  14.305   5.729   6.598  0.1979  0.3373  0.0240
 1214ERGO    R116652  14.268   5.634   6.862  0.1621  0.1069 -0.0608
 1214ERGO    R216653  14.354   5.774   7.083  0.0577 -0.0430  0.0804
 1214ERGO    R316654  14.095   5.747   7.162  0.0461 -0.1970 -0.0109
 1214ERGO    R416655  14.244   5.795   7.410 -0.0803 -0.0403  0.0339
 1214ERGO    R516656  14.109   5.628   7.370  0.0461 -0.1391  0.0206
 1214ERGO    C116657  13.937   5.781   7.675 -0.1715 -0.1832 -0.0790
 1214ERGO    C216658  14.001   6.101   7.957 -0.1860 -0.3562 -0.0839
 1215ERGO   ROH16659   0.559  11.840   6.424 -0.0514  0.1493 -0.1003
 1215ERGO    R116660   0.603  11.817   6.703 -0.0287  0.0442 -0.1114
 1215ERGO    R216661   0.672  12.034   6.860 -0.0350 -0.0104 -0.0309
 1215ERGO    R316662   0.455  11.957   7.005 -0.0182 -0.0854 -0.0464
 1215ERGO    R416663   0.560  12.189   7.148 -0.1300 -0.0304 -0.0570
 1215ERGO    R516664   0.519  11.993   7.232 -0.0582 -0.0383 -0.0436
 1215ERGO    C116665   0.292  12.207   7.451 -0.1696 -0.1125 -0.0866
 1215ERGO    C216666   0.085  12.343   7.706  0.1439  0.1263 -0.2572
 1216ERGO   ROH16667  10.280  14.531   6.861 -0.0635  0.1302 -0.0152
 1216ERGO    R116668  10.329  14.463   7.131 -0.0396  0.1008 -0.0262
 1216ERGO    R216669  10.416  14.648   7.318 -0.0010  0.0776 -0.0162
 1216ERGO    R316670  10.199  14.561   7.456  0.0046  0.0846 -0.0045
 1216ERGO    R416671  10.376  14.675   7.660  0.1245 -0.1489  0.0178
 1216ERGO    R516672  10.289  14.475   7.661  0.0293 -0.1052 -0.0959
 1216ERGO    C116673  10.149  14.609   7.989  0.2028 -0.2744  0.0485
 1216ERGO    C216674  10.017  14.681   8.282  0.1494  0.1474 -0.1345
 1217ERGO   ROH16675   4.000  15.127  10.200  0.0311  0.1258  0.0924
 1217ERGO    R116676   3.935  14.972   9.973  0.1080  0.0451  0.1261
 1217ERGO    R216677   3.786  15.070   9.763  0.0513 -0.0774  0.1112
 1217ERGO    R316678   3.999  14.988   9.615  0.0904  0.0040  0.1205
 1217ERGO    R416679   3.811  15.100   9.419 -0.1120 -0.4009  0.0666
 1217ERGO    R516680   3.901  14.902   9.414  0.1063 -0.3133  0.2407
 1217ERGO    C116681   4.025  15.041   9.081 -0.1704 -0.5128  0.0493
 1217ERGO    C216682   4.125  14.985   8.781 -0.1564  0.0860 -0.3395
 1218ERGO   ROH16683   5.684  16.189   6.728 -0.0218  0.0515  0.1121
 1218ERGO    R116684   5.811  16.258   6.972 -0.0152  0.0064  0.1220
 1218ERGO    R216685   5.670  16.304   7.205 -0.0166  0.0437  0.1169
 1218ERGO    R316686   5.838  16.115   7.305 -0.0807 -0.0119  0.1188
 1218ERGO    R416687   5.664  16.186   7.530 -0.0785  0.0159  0.1055
 1218ERGO    R516688   5.882  16.187   7.529 -0.0811 -0.0461  0.1275
 1218ERGO    C116689   5.819  15.940   7.813 -0.1747 -0.0523  0.1006
 1218ERGO    C216690   5.828  15.963   8.146  0.2492  0.0087  0.3162
 1219ERGO   ROH16691   6.643  10.304   6.203 -0.2506  0.1904 -0.0426
 1219ERGO    R116692   6.730  10.222   6.460 -0.1442 -0.0236 -0.1436
 1219ERGO    R216693   6.676  10.367   6.689  0.2008 -0.0554 -0.0305
 1219ERGO    R316694   6.574  10.130   6.775 -0.0103  0.0230 -0.0642
 1219ERGO    R416695   6.632  10.279   7.021  0.0409 -0.0373 -0.0471
 1219ERGO    R516696   6.701  10.078   6.971 -0.1071 -0.0872 -0.0338
 1219ERGO    C116697   6.511  10.006   7.294 -0.2504  0.0468 -0.0884
 1219ERGO    C216698   6.389  10.108   7.502 -0.0921  0.2378 -0.2241
 1220ERGO   ROH16699  12.020   2.474   6.283  0.1136  0.2106  0.1005
 1220ERGO    R116700  12.137   2.433   6.537  0.0094  0.1511  0.1382
 1220ERGO    R216701  12.001   2.481   6.772 -0.1054  0.0391  0.0912
 1220ERGO    R316702  12.070   2.223   6.828 -0.0703  0.0365  0.0399
 1220ERGO    R416703  12.054   2.355   7.090 -0.2605 -0.0535  0.0824
 1220ERGO    R516704  12.224   2.242   7.011 -0.1805  0.0171  0.1393
 1220ERGO    C116705  12.151   2.041   7.327 -0.3179 -0.1099  0.0290
 1220ERGO    C216706  12.202   1.739   7.524  0.1162  0.1413 -0.1177
 1221ERGO   ROH16707   3.435   5.374   6.327  0.0387 -0.2268  0.1029
 1221ERGO    R116708   3.388   5.366   6.606 -0.0511 -0.1787  0.0897
 1221ERGO    R216709   3.137   5.320   6.714 -0.0784 -0.2061  0.0180
 1221ERGO    R316710   3.267   5.122   6.848 -0.0819 -0.1532  0.0996
 1221ERGO    R416711   3.167   5.300   7.058  0.0272 -0.0015  0.0218
 1221ERGO    R516712   3.373   5.234   7.031  0.0023 -0.0648 -0.0027
 1221ERGO    C116713   3.306   5.103   7.383  0.0853  0.1673  0.1007
 1221ERGO    C216714   3.177   4.805   7.564  0.1039 -0.2394  0.0436
 1222ERGO   ROH16715  12.593  17.381   6.654 -0.0743 -0.0290  0.0204
 1222ERGO    R116716  12.713  17.491   6.886  0.0017 -0.0627 -0.0026
 1222ERGO    R216717  12.594  17.691   7.034  0.0854 -0.0325  0.0230
 1222ERGO    R316718  12.630  17.516   7.239  0.0802 -0.0427  0.0150
 1222ERGO    R416719  12.652  17.780   7.364  0.2101 -0.0452  0.0051
 1222ERGO    R516720  12.796  17.618   7.377  0.1569 -0.0985 -0.0338
 1222ERGO    C116721  12.718  17.667   7.747  0.2777 -0.0623 -0.0128
 1222ERGO    C216722  12.934  17.783   8.044 -0.1796  0.0885 -0.0460
 1223ERGO   ROH16723  15.964   7.329   6.118  0.0699  0.0061 -0.0794
 1223ERGO    R116724  15.896   7.151   6.328  0.0505 -0.0911 -0.1673
 1223ERGO    R216725  15.950   6.880   6.316  0.1862 -0.0628 -0.2247
 1223ERGO    R316726  16.075   6.927   6.552  0.0463 -0.0748 -0.1477
 1223ERGO    R416727  15.913   6.688   6.601  0.0445 -0.0992 -0.2671
 1223ERGO    R516728  15.912   6.872   6.718 -0.0430 -0.1121 -0.2467
 1223ERGO    C116729  16.009   6.621   6.989 -0.1692 -0.1316 -0.2195
 1223ERGO    C216730  16.325   6.458   7.191 -0.1119 -0.0711 -0.1186
 1224ERGO   ROH16731   6.648  18.126   6.676  0.0786 -0.2207 -0.0560
 1224ERGO    R116732   6.757  18.106   6.937 -0.0625 -0.2723 -0.0009
 1224ERGO    R216733   6.708  18.294   7.134 -0.1051 -0.2742 -0.0195
 1224ERGO    R316734   6.629  18.076   7.276 -0.2439 -0.2560 -0.0646
 1224ERGO    R416735   6.703  18.274   7.479  0.1564 -0.4215 -0.0203
 1224ERGO    R516736   6.777  18.070   7.463 -0.0871 -0.5124 -0.1836
 1224ERGO    C116737   6.625  18.058   7.813  0.1784 -0.4902 -0.0632
 1224ERGO    C216738   6.441  18.260   8.083  0.1569 -0.0305  0.0739
 1225ERGO   ROH16739  17.773  17.826   9.740  0.0792 -0.0223 -0.0969
 1225ERGO    R116740  17.587  17.753   9.540  0.0701 -0.0776 -0.0691
 1225ERGO    R216741  17.494  17.933   9.351 -0.0089 -0.1050 -0.0602
 1225ERGO    R316742  17.581  17.744   9.176  0.0217 -0.0836 -0.0675
 1225ERGO    R416743  17.364  17.880   9.035 -0.1084 -0.2263  0.0003
 1225ERGO    R516744  17.382  17.666   9.068  0.0216 -0.2092  0.0251
 1225ERGO    C116745  17.370  17.672   8.687 -0.1379 -0.2767  0.0288
 1225ERGO    C216746  17.520  17.425   8.308 -0.1609 -0.2180 -0.2806
 1226ERGO   ROH16747  13.359   8.965  10.013 -0.1765  0.0903  0.0933
 1226ERGO    R116748  13.418   8.874   9.752 -0.0553  0.1675  0.0933
 1226ERGO    R216749  13.226   8.856   9.554 -0.0383 -0.1071  0.1015
 1226ERGO    R316750  13.402   9.010   9.415 -0.2576  0.1400  0.0902
 1226ERGO    R416751  13.232   8.886   9.210  0.0688 -0.3284  0.0819
 1226ERGO    R516752  13.450   8.882   9.218  0.0838  0.0919  0.1970
 1226ERGO    C116753  13.401   9.048   8.879 -0.0748 -0.2253  0.0599
 1226ERGO    C216754  13.494   9.068   8.559 -0.1283 -0.2246  0.1923
 1227ERGO   ROH16755  16.898   6.804   6.351  0.0422 -0.0541  0.0910
 1227ERGO    R116756  16.971   6.689   6.599  0.0120 -0.0987  0.0791
 1227ERGO    R216757  16.802   6.687   6.818  0.0602  0.0377  0.1165
 1227ERGO    R316758  16.850   6.420   6.812 -0.1423  0.0002  0.1191
 1227ERGO    R416759  16.794   6.480   7.094  0.0894  0.0863  0.1539
 1227ERGO    R516760  16.970   6.376   7.015 -0.0365 -0.0568  0.0476
 1227ERGO    C116761  16.835   6.107   7.249 -0.0838  0.0793  0.1781
 1227ERGO    C216762  16.805   5.888   7.554  0.0049 -0.2168 -0.1964
 1228ERGO   ROH16763   5.032   9.289   6.127 -0.0256 -0.0239 -0.1288
 1228ERGO    R116764   5.114   9.325   6.396  0.0595  0.0106 -0.1593
 1228ERGO    R216765   5.014   9.528   6.556  0.0709 -0.0014 -0.1377
 1228ERGO    R316766   4.956   9.322   6.723  0.1738 -0.0038 -0.1037
 1228ERGO    R416767   4.961   9.558   6.896  0.0218  0.0342 -0.1483
 1228ERGO    R516768   5.073   9.373   6.925  0.1259  0.1032 -0.1023
 1228ERGO    C116769   4.876   9.382   7.251  0.0898  0.0528 -0.1226
 1228ERGO    C216770   4.877   9.506   7.599 -0.1285  0.2823 -0.0714
 1229ERGO   ROH16771  15.176   5.335   6.589  0.0326  0.6093  0.1135
 1229ERGO    R116772  15.126   5.235   6.849 -0.1332  0.3014 -0.0292
 1229ERGO    R216773  15.298   5.279   7.061 -0.1137 -0.1924  0.0806
 1229ERGO    R316774  15.074   5.376   7.180 -0.0277 -0.0904  0.1568
 1229ERGO    R416775  15.263   5.337   7.400  0.0018 -0.1913  0.0916
 1229ERGO    R516776  15.061   5.258   7.388 -0.0311 -0.0869  0.1495
 1229ERGO    C116777  15.033   5.462   7.709  0.1498 -0.0949  0.1694
 1229ERGO    C216778  14.996   5.742   7.932 -0.2755 -0.2801 -0.0632
 1230ERGO   ROH16779   4.166  12.978   6.255 -0.0180 -0.0967 -0.0578
 1230ERGO    R116780   3.960  12.946   6.446 -0.0154  0.0596 -0.0281
 1230ERGO    R216781   3.730  12.803   6.394 -0.0837  0.1412  0.0420
 1230ERGO    R316782   3.800  12.669   6.620 -0.1212  0.1885  0.0820
 1230ERGO    R416783   3.512  12.716   6.648 -0.2308 -0.2577 -0.2102
 1230ERGO    R516784   3.667  12.769   6.792 -0.4613 -0.0569 -0.0288
 1230ERGO    C116785   3.451  12.540   7.008 -0.3515 -0.4458 -0.3195
 1230ERGO    C216786   3.404  12.256   7.177 -0.2935  0.1514  0.0849
 1231ERGO   ROH16787  16.569  17.371   6.854  0.1545 -0.1748 -0.1808
 1231ERGO    R116788  16.501  17.370   7.129 -0.0281 -0.1129 -0.2250
 1231ERGO    R216789  16.378  17.154   7.251  0.0807 -0.1653 -0.2162
 1231ERGO    R316790  16.589  17.173   7.422 -0.0500  0.0927 -0.0765
 1231ERGO    R416791  16.409  16.978   7.546  0.0839 -0.1143 -0.1852
 1231ERGO    R516792  16.490  17.157   7.640 -0.1840 -0.0070 -0.1393
 1231ERGO    C116793  16.625  16.893   7.879 -0.0370  0.1578 -0.0361
 1231ERGO    C216794  16.756  16.580   8.090  0.1195 -0.1027  0.2055
 1232ERGO   ROH16795   0.115  13.473   6.289 -0.3098  0.0946  0.0814
 1232ERGO    R116796   0.188  13.291   6.493 -0.0878  0.0692 -0.0171
 1232ERGO    R216797   0.373  13.353   6.689 -0.1086  0.1626 -0.0265
 1232ERGO    R316798   0.171  13.281   6.857 -0.0066 -0.1161 -0.0173
 1232ERGO    R416799   0.384  13.379   7.033 -0.1325  0.1827 -0.0270
 1232ERGO    R516800   0.283  13.186   7.046  0.1337  0.0391 -0.0203
 1232ERGO    C116801   0.202  13.327   7.391 -0.0506 -0.0673 -0.0186
 1232ERGO    C216802   0.149  13.347   7.729  0.0138  0.2947  0.1066
 1233ERGO   ROH16803   1.339   4.860   6.268  0.0772 -0.1882  0.0235
 1233ERGO    R116804   1.289   4.714   6.505  0.1976 -0.1642  0.0641
 1233ERGO    R216805   1.485   4.663   6.693  0.1909  0.2515  0.1902
 1233ERGO    R316806   1.306   4.778   6.863 -0.0928  0.0352  0.0473
 1233ERGO    R416807   1.456   4.588   7.029  0.0059  0.2039  0.1645
 1233ERGO    R516808   1.239   4.599   7.008  0.0017 -0.0560 -0.0159
 1233ERGO    C116809   1.271   4.651   7.384 -0.3682 -0.0269  0.0153
 1233ERGO    C216810   1.074   4.698   7.665  0.4096  0.0865 -0.2846
 1234ERGO   ROH16811  11.965  14.360   6.631 -0.0652  0.1489 -0.0087
 1234ERGO    R116812  11.777  14.272   6.823 -0.1025  0.2506  0.0017
 1234ERGO    R216813  11.799  14.030   6.954 -0.2922  0.1818 -0.0902
 1234ERGO    R316814  11.781  14.185   7.176 -0.1019  0.1208 -0.0300
 1234ERGO    R416815  11.668  13.926   7.256 -0.4025  0.2170 -0.1256
 1234ERGO    R516816  11.572  14.121   7.276 -0.1754  0.3245 -0.0474
 1234ERGO    C116817  11.574  14.010   7.641 -0.2881  0.1801 -0.0896
 1234ERGO    C216818  11.574  13.846   7.913 -0.0151  0.1116 -0.0379
 1235ERGO   ROH16819  14.846   0.172   6.871  0.1793  0.1126 -0.0103
 1235ERGO    R116820  15.047   0.067   7.040  0.1277  0.1846  0.0984
 1235ERGO    R216821  15.079   0.149   7.302 -0.1897  0.0325  0.1937
 1235ERGO    R316822  15.059  -0.117   7.354  0.0116 -0.0272 -0.0200
 1235ERGO    R416823  15.225  -0.013   7.571 -0.1318 -0.0633  0.1045
 1235ERGO    R516824  15.274  -0.179   7.439  0.0375  0.0792 -0.0126
 1235ERGO    C116825  15.290  -0.356   7.776  0.0909 -0.1751 -0.1481
 1235ERGO    C216826  15.105  -0.578   7.988  0.4035 -0.0784 -0.2690
 1236ERGO   ROH16827   0.613   2.816  10.299  0.1495  0.1261 -0.1746
 1236ERGO    R116828   0.564   2.938  10.049  0.1121  0.1569 -0.1534
 1236ERGO    R216829   0.750   2.938   9.844  0.0133  0.0162 -0.2504
 1236ERGO    R316830   0.546   2.830   9.701 -0.1398  0.1594 -0.1425
 1236ERGO    R416831   0.732   2.933   9.499  0.0126 -0.3037 -0.2470
 1236ERGO    R516832   0.520   2.978   9.515  0.0731  0.0134 -0.2911
 1236ERGO    C116833   0.530   2.827   9.164 -0.1315 -0.3555 -0.1437
 1236ERGO    C216834   0.557   2.887   8.854 -0.1203  0.0830  0.2331
 1237ERGO   ROH16835  11.037  12.148   6.357  0.1008  0.1903  0.0335
 1237ERGO    R116836  11.200  12.103   6.583  0.1100  0.1099  0.0097
 1237ERGO    R216837  11.141  12.206   6.832  0.1184  0.0145  0.0451
 1237ERGO    R316838  11.163  11.946   6.910  0.1305 -0.0125 -0.0439
 1237ERGO    R416839  11.146  12.098   7.161 -0.2969 -0.1199  0.0127
 1237ERGO    R516840  11.300  11.954   7.106 -0.1438 -0.0264  0.1614
 1237ERGO    C116841  11.168  11.791   7.425 -0.5274 -0.2234 -0.0897
 1237ERGO    C216842  11.118  11.559   7.818 -0.1410 -0.1766  0.2406
 1238ERGO   ROH16843   4.179  13.710   7.409  0.2374 -0.2268  0.2305
 1238ERGO    R116844   3.962  13.528   7.401  0.0197  0.0340  0.0665
 1238ERGO    R216845   3.930  13.326   7.586 -0.0780 -0.2522 -0.2573
 1238ERGO    R316846   3.685  13.438   7.619  0.0678 -0.0197  0.1071
 1238ERGO    R416847   3.653  13.161   7.711 -0.2299 -0.2356 -0.5610
 1238ERGO    R516848   3.531  13.263   7.562 -0.1703  0.2942 -0.2789
 1238ERGO    C116849   3.262  13.170   7.815 -0.1814 -0.0076 -0.3956
 1238ERGO    C216850   3.033  12.971   8.017  0.1333 -0.4392  0.0345
 1239ERGO   ROH16851  11.429   5.494   6.899 -0.1211 -0.0274 -0.0990
 1239ERGO    R116852  11.517   5.665   7.107 -0.0251 -0.0381 -0.1287
 1239ERGO    R216853  11.552   5.577   7.367 -0.2175  0.0200 -0.0736
 1239ERGO    R316854  11.801   5.681   7.333 -0.0953 -0.2538 -0.0264
 1239ERGO    R416855  11.773   5.648   7.623 -0.2210 -0.1102 -0.0352
 1239ERGO    R516856  11.829   5.830   7.518  0.0062 -0.2138 -0.0814
 1239ERGO    C116857  12.135   5.786   7.741 -0.1083 -0.4432  0.0316
 1239ERGO    C216858  12.463   5.825   7.926 -0.0310  0.2747 -0.1389
 1240ERGO   ROH16859   1.183  12.059   9.529 -0.1997 -0.1271  0.0284
 1240ERGO    R116860   1.130  11.945   9.275 -0.1360 -0.0538 -0.0200
 1240ERGO    R216861   1.039  12.095   9.061  0.0186  0.0323 -0.0379
 1240ERGO    R316862   1.255  11.987   8.935  0.0344 -0.0317  0.0468
 1240ERGO    R416863   1.083  12.083   8.718  0.1142 -0.0807 -0.0211
 1240ERGO    R516864   1.165  11.882   8.740  0.0803 -0.0769  0.0573
 1240ERGO    C116865   1.312  11.976   8.401  0.1847 -0.2065  0.0683
 1240ERGO    C216866   1.504  11.919   8.039 -0.1032 -0.0922 -0.1621
 1241ERGO   ROH16867  15.217   7.532   6.714 -0.0057 -0.0079 -0.0981
 1241ERGO    R116868  15.269   7.410   6.964  0.1775 -0.0882 -0.1738
 1241ERGO    R216869  15.496   7.464   7.112  0.0600  0.2297 -0.1041
 1241ERGO    R316870  15.316   7.520   7.308 -0.0818 -0.2329 -0.0883
 1241ERGO    R416871  15.544   7.402   7.449  0.2052  0.2509 -0.1202
 1241ERGO    R516872  15.337   7.338   7.462  0.3405 -0.2367 -0.1351
 1241ERGO    C116873  15.403   7.420   7.829  0.1565 -0.1711 -0.1148
 1241ERGO    C216874  15.558   7.270   8.093  0.0024 -0.0946  0.1680
 1242ERGO   ROH16875   3.449   1.879  10.201  0.2271  0.3987 -0.0176
 1242ERGO    R116876   3.334   1.886   9.943  0.1925  0.0517 -0.0192
 1242ERGO    R216877   3.216   2.113   9.840 -0.1528 -0.1815 -0.1753
 1242ERGO    R316878   3.389   2.072   9.634 -0.0984 -0.0750 -0.1487
 1242ERGO    R416879   3.158   2.204   9.511 -0.2471 -0.4161 -0.2235
 1242ERGO    R516880   3.249   2.015   9.448 -0.0211 -0.3350 -0.1256
 1242ERGO    C116881   3.287   2.217   9.127 -0.2509 -0.4526 -0.2266
 1242ERGO    C216882   3.382   2.202   8.790  0.0422 -0.3569  0.0203
 1243ERGO   ROH16883  15.755   3.619   6.620  0.2129  0.0820  0.1590
 1243ERGO    R116884  15.695   3.629   6.897  0.0532 -0.0486  0.1306
 1243ERGO    R216885  15.563   3.425   7.028  0.2583 -0.2549  0.0230
 1243ERGO    R316886  15.779   3.435   7.193  0.1631  0.0086  0.1376
 1243ERGO    R416887  15.572   3.300   7.350  0.2646 -0.3203 -0.0025
 1243ERGO    R516888  15.687   3.475   7.410 -0.0089 -0.1706  0.1006
 1243ERGO    C116889  15.780   3.236   7.692  0.1789 -0.1111  0.0905
 1243ERGO    C216890  15.964   3.028   7.929 -0.0500 -0.0799  0.0075
 1244ERGO   ROH16891   9.437   7.194   6.268  0.2344  0.1949  0.0548
 1244ERGO    R116892   9.481   7.238   6.544  0.0896  0.2007  0.0778
 1244ERGO    R216893   9.341   7.426   6.689 -0.0869  0.1053  0.0328
 1244ERGO    R316894   9.286   7.214   6.850 -0.0287  0.0594 -0.0069
 1244ERGO    R416895   9.187   7.447   6.998  0.0643  0.0227  0.1150
 1244ERGO    R516896   9.325   7.296   7.071  0.0866 -0.0141  0.0005
 1244ERGO    C116897   9.046   7.260   7.329  0.2071 -0.0686  0.1255
 1244ERGO    C216898   8.932   7.271   7.607 -0.3183  0.1317 -0.0921
 1245ERGO   ROH16899   8.266   3.381   6.546  0.0680  0.1432 -0.2015
 1245ERGO    R116900   8.308   3.516   6.792  0.0243  0.1139 -0.1776
 1245ERGO    R216901   8.256   3.398   7.036 -0.1268  0.1226 -0.2020
 1245ERGO    R316902   8.514   3.468   7.088 -0.1171  0.0103 -0.0954
 1245ERGO    R416903   8.362   3.568   7.318 -0.1361 -0.0897 -0.0686
 1245ERGO    R516904   8.497   3.683   7.192 -0.0716 -0.0515  0.0381
 1245ERGO    C116905   8.665   3.733   7.531 -0.1325 -0.3189  0.1091
 1245ERGO    C216906   8.821   4.079   7.673  0.2540 -0.0918  0.2603
 1246ERGO   ROH16907   7.675  17.351   6.740 -0.0703 -0.1159 -0.1688
 1246ERGO    R116908   7.582  17.379   7.006 -0.0447 -0.1166 -0.1594
 1246ERGO    R216909   7.536  17.162   7.171 -0.0007 -0.1168 -0.1448
 1246ERGO    R316910   7.703  17.296   7.339  0.0025 -0.0892 -0.1704
 1246ERGO    R416911   7.569  17.098   7.509  0.0663 -0.1104 -0.1501
 1246ERGO    R516912   7.580  17.313   7.544  0.0346 -0.1109 -0.1509
 1246ERGO    C116913   7.745  17.187   7.863  0.1084 -0.0810 -0.1773
 1246ERGO    C216914   7.631  17.116   8.141  0.2577  0.3971  0.1218
 1247ERGO   ROH16915   4.196   3.027   6.630 -0.4690  0.0533  0.1056
 1247ERGO    R116916   4.083   3.092   6.881 -0.3193 -0.0305  0.1961
 1247ERGO    R216917   4.070   2.911   7.089 -0.1623 -0.0900  0.1570
 1247ERGO    R316918   4.198   3.109   7.226 -0.1019 -0.1097  0.1289
 1247ERGO    R416919   4.116   2.916   7.432 -0.1750 -0.0447  0.1581
 1247ERGO    R516920   4.073   3.130   7.429 -0.1025 -0.0317  0.1195
 1247ERGO    C116921   4.263   3.104   7.759 -0.1256 -0.0367  0.1324
 1247ERGO    C216922   4.279   2.916   8.065 -0.1892  0.2057 -0.0083
 1248ERGO   ROH16923  12.693  16.888   6.570  0.0806  0.0582 -0.0946
 1248ERGO    R116924  12.577  16.964   6.817  0.0538  0.0039 -0.0910
 1248ERGO    R216925  12.636  16.836   7.055  0.1073  0.0193 -0.0979
 1248ERGO    R316926  12.696  17.088   7.138  0.0084  0.0406 -0.0876
 1248ERGO    R416927  12.696  16.927   7.383 -0.0051  0.0439 -0.0836
 1248ERGO    R516928  12.582  17.110   7.347 -0.0535  0.0093 -0.1165
 1248ERGO    C116929  12.786  17.216   7.651 -0.1635  0.0781 -0.0655
 1248ERGO    C216930  12.930  17.177   7.894 -0.3375 -0.0262  0.1115
 1249ERGO   ROH16931   4.091  10.130   9.354  0.0376 -0.2099 -0.1060
 1249ERGO    R116932   4.216  10.282   9.150  0.0386 -0.2093 -0.1042
 1249ERGO    R216933   4.386  10.169   8.964 -0.0873 -0.2368 -0.2002
 1249ERGO    R316934   4.217  10.285   8.786 -0.0926 -0.0951 -0.1048
 1249ERGO    R416935   4.474  10.271   8.646 -0.1629 -0.2571 -0.2283
 1249ERGO    R516936   4.352  10.449   8.674 -0.0279 -0.1727 -0.1456
 1249ERGO    C116937   4.366  10.439   8.293 -0.2118 -0.1360 -0.1549
 1249ERGO    C216938   4.534  10.375   7.970 -0.0758  0.1728 -0.0208
 1250ERGO   ROH16939  11.275  16.862   6.756  0.0910  0.0329 -0.1207
 1250ERGO    R116940  11.177  17.009   6.977 -0.1534 -0.1500 -0.1029
 1250ERGO    R216941  11.028  16.892   7.179  0.2024 -0.4716 -0.0100
 1250ERGO    R316942  11.219  17.001   7.338  0.0365  0.0066 -0.1213
 1250ERGO    R416943  10.997  16.943   7.519  0.2432 -0.4419 -0.0107
 1250ERGO    R516944  11.097  17.134   7.496 -0.1932 -0.2173 -0.1085
 1250ERGO    C116945  11.158  17.074   7.867  0.1111  0.0242 -0.1154
 1250ERGO    C216946  11.166  16.980   8.247 -0.1236  0.0722 -0.2542
 1251ERGO   ROH16947   2.111   6.592   6.136  0.4429 -0.1179 -0.0002
 1251ERGO    R116948   2.245   6.596   6.386  0.2269 -0.1600  0.1186
 1251ERGO    R216949   2.163   6.757   6.595  0.0899 -0.1398  0.0492
 1251ERGO    R316950   2.161   6.522   6.732 -0.0973 -0.1402  0.0479
 1251ERGO    R416951   2.133   6.728   6.938  0.0837 -0.1134  0.0511
 1251ERGO    R516952   2.281   6.569   6.933 -0.0461 -0.2385  0.0421
 1251ERGO    C116953   2.113   6.490   7.266 -0.0956 -0.0983  0.0509
 1251ERGO    C216954   1.925   6.526   7.545 -0.0947  0.0106  0.0678
 1252ERGO   ROH16955   7.858   4.486   6.527 -0.0183 -0.2339 -0.0789
 1252ERGO    R116956   8.008   4.449   6.765 -0.0459 -0.1974 -0.0562
 1252ERGO    R216957   8.126   4.658   6.900  0.0290 -0.1907 -0.1355
 1252ERGO    R316958   7.985   4.560   7.111 -0.0200 -0.0498 -0.1008
 1252ERGO    R416959   8.180   4.744   7.231  0.1132 -0.1448 -0.1604
 1252ERGO    R516960   8.148   4.535   7.285 -0.0193 -0.1145 -0.1082
 1252ERGO    C116961   8.078   4.702   7.621  0.1164  0.0143 -0.1422
 1252ERGO    C216962   8.172   4.651   8.002 -0.1953  0.0521  0.1204
 1253ERGO   ROH16963  11.080   4.204   6.827  0.0372  0.0255 -0.0022
 1253ERGO    R116964  11.004   3.967   6.962  0.0440  0.0019 -0.0405
 1253ERGO    R216965  10.868   3.761   6.837 -0.0095  0.0495 -0.0563
 1253ERGO    R316966  11.074   3.611   6.933 -0.0043 -0.0001 -0.1425
 1253ERGO    R416967  10.843   3.431   6.935 -0.0920  0.1055  0.1165
 1253ERGO    R516968  10.974   3.476   7.103  0.0585  0.1252 -0.0013
 1253ERGO    C116969  11.020   3.098   7.082 -0.1352  0.0915  0.1363
 1253ERGO    C216970  11.152   2.819   7.085 -0.0594 -0.0027 -0.4749
 1254ERGO   ROH16971   9.720   5.393   6.475 -0.2217 -0.1464 -0.0882
 1254ERGO    R116972   9.782   5.305   6.736 -0.2970  0.2302  0.0606
 1254ERGO    R216973   9.589   5.268   6.930 -0.4456 -0.1321 -0.1627
 1254ERGO    R316974   9.698   5.019   6.947  0.2208  0.1516  0.1817
 1254ERGO    R416975   9.521   5.041   7.181 -0.6641 -0.2960 -0.3639
 1254ERGO    R516976   9.733   4.986   7.182 -0.4598  0.2899  0.3348
 1254ERGO    C116977   9.582   4.674   7.342 -0.1657 -0.1250 -0.1577
 1254ERGO    C216978   9.549   4.450   7.503  0.0614  0.1547 -0.1599
 1255ERGO   ROH16979  12.066   1.237   6.535 -0.1898  0.0911  0.1496
 1255ERGO    R116980  12.134   1.333   6.793  0.0299  0.1227  0.0817
 1255ERGO    R216981  12.050   1.209   7.025  0.0122  0.2961  0.1693
 1255ERGO    R316982  12.315   1.208   7.082  0.0414  0.0494  0.0428
 1255ERGO    R416983  12.184   1.244   7.342  0.1970 -0.0008  0.1280
 1255ERGO    R516984  12.340   1.370   7.256  0.2563 -0.0734  0.1305
 1255ERGO    C116985  12.512   1.263   7.580  0.3318 -0.4052 -0.0149
 1255ERGO    C216986  12.522   1.377   7.991  0.1624 -0.2194 -0.3004
 1256ERGO   ROH16987  18.211   9.025   6.400 -0.1035 -0.0386 -0.0820
 1256ERGO    R116988  18.291   8.891   6.636 -0.0726  0.0204 -0.0579
 1256ERGO    R216989  18.547   8.910   6.738 -0.0077 -0.0864 -0.1854
 1256ERGO    R316990  18.416   8.986   6.964  0.1397  0.0983 -0.1615
 1256ERGO    R416991  18.695   8.949   7.048  0.1135 -0.1970 -0.2288
 1256ERGO    R516992  18.518   8.858   7.139  0.0387  0.0172 -0.1673
 1256ERGO    C116993  18.658   9.044   7.441  0.3225 -0.0879 -0.2318
 1256ERGO    C216994  18.961   9.187   7.544  0.4047  0.0398 -0.0177
 1257ERGO   ROH16995   3.996  10.029   6.137 -0.1359 -0.3497 -0.0293
 1257ERGO    R116996   4.143   9.950   6.366 -0.0402 -0.0551  0.0148
 1257ERGO    R216997   4.139  10.092   6.603 -0.2785  0.0218 -0.0371
 1257ERGO    R316998   4.067   9.853   6.708  0.0667 -0.0539  0.0401
 1257ERGO    R416999   4.150  10.013   6.939 -0.2503  0.1815  0.0013
 1257ERGO    R517000   4.225   9.816   6.885  0.0797  0.2684  0.1043
 1257ERGO    C117001   4.090   9.742   7.234  0.0901  0.2034  0.0960
 1257ERGO    C217002   3.853   9.630   7.572  0.1205  0.3106 -0.0188
 1258ERGO   ROH17003   6.862   9.924   6.058 -0.0434  0.1043 -0.0075
 1258ERGO    R117004   6.829   9.741   6.272  0.3542  0.1467  0.0987
 1258ERGO    R217005   6.963   9.766   6.512  0.0462  0.7948  0.2198
 1258ERGO    R317006   6.712   9.755   6.616 -0.0488  0.0397 -0.0264
 1258ERGO    R417007   6.888   9.676   6.837  0.0406  0.8459  0.2331
 1258ERGO    R517008   6.716   9.565   6.762  0.4700  0.1696  0.1559
 1258ERGO    C117009   6.608   9.614   7.124 -0.0519  0.1667  0.0097
 1258ERGO    C217010   6.571   9.479   7.433  0.0294  0.1467  0.3651
 1259ERGO   ROH17011   6.162   8.897   6.284  0.1345  0.0237  0.1042
 1259ERGO    R117012   6.081   8.735   6.502  0.0851  0.0152  0.0792
 1259ERGO    R217013   6.077   8.827   6.763 -0.0002  0.0129  0.0769
 1259ERGO    R317014   5.818   8.744   6.754  0.0096 -0.0118  0.0033
 1259ERGO    R417015   5.903   8.695   7.030  0.0172 -0.2322 -0.0300
 1259ERGO    R517016   5.814   8.550   6.895  0.0352 -0.1328 -0.1557
 1259ERGO    C117017   5.559   8.540   7.178  0.0366 -0.3980 -0.1614
 1259ERGO    C217018   5.461   8.568   7.521  0.0002  0.1460  0.0824
 1260ERGO   ROH17019  14.848   8.987   6.301 -0.0665 -0.0560  0.0547
 1260ERGO    R117020  14.713   9.103   6.521 -0.0770 -0.0181  0.0299
 1260ERGO    R217021  14.437   9.117   6.536 -0.0834 -0.0128  0.0148
 1260ERGO    R317022  14.476   8.991   6.774 -0.0900  0.0222  0.0331
 1260ERGO    R417023  14.200   9.091   6.786 -0.1407 -0.1335 -0.0525
 1260ERGO    R517024  14.358   9.126   6.933 -0.2101 -0.0403 -0.0091
 1260ERGO    C117025  14.098   8.957   7.155 -0.1800 -0.1711 -0.0746
 1260ERGO    C217026  13.849   8.933   7.534  0.2926 -0.2191  0.4443
 1261ERGO   ROH17027  14.647  15.526   6.190 -0.0532  0.0773  0.2338
 1261ERGO    R117028  14.511  15.656   6.402 -0.1195 -0.0792  0.2877
 1261ERGO    R217029  14.362  15.885   6.364  0.0536  0.0589  0.4428
 1261ERGO    R317030  14.165  15.739   6.482 -0.1262  0.0452  0.1390
 1261ERGO    R417031  14.073  16.017   6.502 -0.0842  0.0617  0.1601
 1261ERGO    R517032  14.093  15.875   6.666 -0.3144 -0.0239  0.1203
 1261ERGO    C117033  13.721  15.956   6.693 -0.3331  0.0503 -0.2898
 1261ERGO    C217034  13.422  15.861   6.734  0.2277  0.0800 -0.2546
 1262ERGO   ROH17035   8.324   5.854   6.416 -0.3281  0.0236 -0.0092
 1262ERGO    R117036   8.312   5.942   6.685 -0.0589  0.0047  0.0110
 1262ERGO    R217037   8.104   5.876   6.855 -0.0268  0.2144  0.1352
 1262ERGO    R317038   8.306   5.786   7.014 -0.0211 -0.0292 -0.0041
 1262ERGO    R417039   8.077   5.818   7.194  0.1247  0.2011  0.1456
 1262ERGO    R517040   8.276   5.904   7.220  0.2393 -0.0203  0.0321
 1262ERGO    C117041   8.251   5.700   7.541  0.2182 -0.0353  0.0209
 1262ERGO    C217042   8.267   5.648   7.986 -0.3272  0.2198 -0.1796
 1263ERGO   ROH17043   4.693  10.981   6.218  0.0542 -0.1675  0.0239
 1263ERGO    R117044   4.706  11.067   6.488 -0.0695 -0.1270  0.0181
 1263ERGO    R217045   4.578  10.933   6.693  0.0641 -0.2585  0.0178
 1263ERGO    R317046   4.826  10.930   6.803  0.0601  0.0382  0.0420
 1263ERGO    R417047   4.650  10.822   7.012  0.1510 -0.0907  0.0574
 1263ERGO    R517048   4.789  10.989   7.033 -0.0257  0.0671  0.0224
 1263ERGO    C117049   4.925  10.754   7.301  0.1980  0.2855  0.1031
 1263ERGO    C217050   4.718  10.521   7.490 -0.1578  0.1619  0.0391
 1264ERGO   ROH17051  14.420  12.822   6.607  0.0791  0.1202 -0.0321
 1264ERGO    R117052  14.508  12.833   6.876  0.1761 -0.1111 -0.0534
 1264ERGO    R217053  14.341  12.903   7.085  0.3572  0.1323  0.0095
 1264ERGO    R317054  14.423  12.666   7.188 -0.0350 -0.0512 -0.0763
 1264ERGO    R417055  14.320  12.816   7.418  0.3006  0.0846 -0.0053
 1264ERGO    R517056  14.517  12.724   7.401  0.1376 -0.2693 -0.0875
 1264ERGO    C117057  14.386  12.543   7.710 -0.1005 -0.1155 -0.0944
 1264ERGO    C217058  14.328  12.367   7.925  0.2203  0.0097 -0.0355
 1265ERGO   ROH17059   5.697   5.517  10.042  0.1186  0.0142 -0.1343
 1265ERGO    R117060   5.631   5.652   9.803 -0.0131 -0.0718 -0.1475
 1265ERGO    R217061   5.817   5.704   9.606 -0.0615  0.0946 -0.1491
 1265ERGO    R317062   5.637   5.577   9.446  0.0648 -0.0988 -0.1410
 1265ERGO    R417063   5.850   5.664   9.264 -0.1401  0.3381 -0.1874
 1265ERGO    R517064   5.637   5.705   9.244 -0.2189  0.0194 -0.0716
 1265ERGO    C117065   5.700   5.521   8.915 -0.0673  0.2983 -0.2022
 1265ERGO    C217066   5.796   5.666   8.590  0.0200  0.1193  0.0483
 1266ERGO   ROH17067   3.095   1.722   6.380  0.2004  0.0548  0.0295
 1266ERGO    R117068   3.210   1.658   6.630  0.0795 -0.0310  0.0641
 1266ERGO    R217069   3.225   1.839   6.838  0.1575 -0.0393  0.0649
 1266ERGO    R317070   3.099   1.641   6.976 -0.0336  0.0573  0.0330
 1266ERGO    R417071   3.247   1.792   7.180 -0.0592  0.0139  0.0877
 1266ERGO    R517072   3.257   1.577   7.145 -0.1618 -0.0006  0.1343
 1266ERGO    C117073   3.142   1.580   7.509 -0.3647  0.1356  0.0709
 1266ERGO    C217074   3.038   1.670   7.945 -0.1514  0.3096 -0.2170
 1267ERGO   ROH17075   2.807  17.438   6.099 -0.3496  0.1540  0.1696
 1267ERGO    R117076   2.998  17.536   6.284 -0.2295  0.0812  0.0871
 1267ERGO    R217077   2.960  17.769   6.429 -0.0918  0.0829  0.1317
 1267ERGO    R317078   3.008  17.607   6.641 -0.0382  0.0433  0.0886
 1267ERGO    R417079   3.027  17.879   6.749 -0.2022  0.0097  0.1800
 1267ERGO    R517080   3.177  17.722   6.766 -0.1235  0.0897  0.1543
 1267ERGO    C117081   3.112  17.790   7.136 -0.2163 -0.0700  0.1675
 1267ERGO    C217082   3.007  17.756   7.399 -0.0241 -0.3001  0.0439
 1268ERGO   ROH17083   5.084   2.239   6.822  0.0422 -0.2176 -0.0565
 1268ERGO    R117084   5.280   2.249   7.027 -0.1418 -0.1769  0.1204
 1268ERGO    R217085   5.500   2.415   7.015  0.0903 -0.4801  0.0823
 1268ERGO    R317086   5.410   2.499   7.257 -0.0406 -0.0045 -0.1204
 1268ERGO    R417087   5.702   2.508   7.279 -0.0414 -0.3732  0.1467
 1268ERGO    R517088   5.565   2.406   7.414 -0.3178  0.0049  0.1698
 1268ERGO    C117089   5.735   2.642   7.660 -0.2412  0.1354 -0.0061
 1268ERGO    C217090   6.041   2.705   7.693  0.2880  0.1930 -0.0421
 1269ERGO   ROH17091  12.499  12.450   6.723 -0.0289  0.3369 -0.0623
 1269ERGO    R117092  12.338  12.573   6.920 -0.1647  0.1085 -0.0292
 1269ERGO    R217093  12.144  12.435   7.061  0.1438 -0.1999  0.0951
 1269ERGO    R317094  12.278  12.531   7.277  0.0661  0.1086  0.0128
 1269ERGO    R417095  12.024  12.433   7.385  0.2362 -0.2571  0.1304
 1269ERGO    R517096  12.109  12.632   7.413 -0.0648 -0.0987  0.0184
 1269ERGO    C117097  12.081  12.522   7.777  0.2172 -0.0009  0.0736
 1269ERGO    C217098  11.864  12.397   7.966 -0.1821 -0.2991  0.0319
 1270ERGO   ROH17099   6.351  12.243   6.697 -0.0303  0.2779  0.0748
 1270ERGO    R117100   6.175  12.311   6.908 -0.0636  0.1299  0.0965
 1270ERGO    R217101   6.067  12.123   7.078 -0.0106  0.0201  0.0125
 1270ERGO    R317102   6.173  12.283   7.270 -0.0712 -0.0263  0.0843
 1270ERGO    R417103   5.888  12.265   7.338 -0.0980 -0.0076 -0.0323
 1270ERGO    R517104   6.004  12.447   7.311 -0.0685 -0.0163  0.0475
 1270ERGO    C117105   5.885  12.497   7.670 -0.2058 -0.0673  0.0089
 1270ERGO    C217106   5.758  12.617   8.019  0.3155  0.3279  0.0039
 1271ERGO   ROH17107  17.974   5.898   6.533 -0.2020  0.0181  0.1155
 1271ERGO    R117108  18.102   6.035   6.745  0.0325 -0.1328  0.0768
 1271ERGO    R217109  17.963   6.187   6.929  0.2823  0.1486  0.0475
 1271ERGO    R317110  18.090   6.028   7.109  0.0299 -0.0233  0.0780
 1271ERGO    R417111  17.956   6.232   7.271  0.2400  0.1344  0.0475
 1271ERGO    R517112  18.168   6.179   7.277  0.1717 -0.1325  0.1085
 1271ERGO    C117113  18.072   6.109   7.640 -0.0214 -0.0350  0.0763
 1271ERGO    C217114  17.843   6.337   7.972 -0.0055  0.4001 -0.2042
 1272ERGO   ROH17115  15.542  16.481   6.108 -0.0646  0.0097 -0.1158
 1272ERGO    R117116  15.486  16.372   6.363 -0.1739  0.0266 -0.1324
 1272ERGO    R217117  15.424  16.105   6.401  0.1311 -0.0419 -0.0993
 1272ERGO    R317118  15.629  16.116   6.579 -0.0554  0.2838  0.0967
 1272ERGO    R417119  15.436  15.932   6.700  0.0705  0.0672 -0.0335
 1272ERGO    R517120  15.523  16.109   6.793 -0.2528  0.2102 -0.0038
 1272ERGO    C117121  15.636  15.843   7.042 -0.1397  0.4365  0.1887
 1272ERGO    C217122  15.917  15.686   7.141 -0.1561  0.2374  0.0642
 1273ERGO   ROH17123  14.912  13.580   6.219 -0.1374 -0.0599 -0.2583
 1273ERGO    R117124  15.026  13.769   6.397 -0.0180 -0.2542 -0.1236
 1273ERGO    R217125  14.898  14.004   6.467  0.2057 -0.1346 -0.1035
 1273ERGO    R317126  14.941  13.913   6.720 -0.0302 -0.2833 -0.1134
 1273ERGO    R417127  14.910  14.203   6.749  0.3160 -0.2480 -0.0277
 1273ERGO    R517128  15.077  14.083   6.821  0.1341 -0.4845  0.0132
 1273ERGO    C117129  14.959  14.235   7.150  0.1588 -0.4535  0.0072
 1273ERGO    C217130  14.990  14.383   7.497  0.0917 -0.0110  0.0381
 1274ERGO   ROH17131  10.540  18.192   7.034  0.1904 -0.1324  0.0213
 1274ERGO    R117132  10.370  18.215   7.259  0.1622  0.0443 -0.0154
 1274ERGO    R217133  10.430  18.098   7.503 -0.0249 -0.0441 -0.0061
 1274ERGO    R317134  10.395  18.352   7.595  0.2433 -0.0071 -0.0017
 1274ERGO    R417135  10.312  18.180   7.817 -0.0027  0.0831 -0.0307
 1274ERGO    R517136  10.196  18.340   7.727  0.2019  0.2192 -0.0470
 1274ERGO    C117137  10.211  18.465   8.087  0.2619  0.1918 -0.0409
 1274ERGO    C217138  10.194  18.412   8.443 -0.2642  0.0231  0.0056
 1275ERGO   ROH17139  18.245   2.562   6.131 -0.1173  0.1250 -0.0680
 1275ERGO    R117140  18.360   2.538   6.389 -0.1811  0.0603 -0.0459
 1275ERGO    R217141  18.548   2.716   6.486 -0.1149 -0.0346 -0.0030
 1275ERGO    R317142  18.373   2.738   6.692 -0.1454  0.0433 -0.0358
 1275ERGO    R417143  18.636   2.733   6.819 -0.1657  0.0453  0.0072
 1275ERGO    R517144  18.468   2.604   6.866 -0.1893  0.0782  0.0161
 1275ERGO    C117145  18.523   2.765   7.208 -0.2238  0.1649 -0.0177
 1275ERGO    C217146  18.698   2.822   7.536  0.2684 -0.2615  0.5517
 1276ERGO   ROH17147   6.371   9.892   6.227  0.1396 -0.2567 -0.0938
 1276ERGO    R117148   6.267   9.940   6.486  0.2132 -0.1081 -0.0916
 1276ERGO    R217149   6.101   9.762   6.615  0.0351  0.0885 -0.0526
 1276ERGO    R317150   6.287   9.781   6.812  0.0710 -0.0812 -0.0680
 1276ERGO    R417151   6.035   9.721   6.952 -0.0253  0.3452 -0.0309
 1276ERGO    R517152   6.170   9.887   6.993  0.2199  0.1783 -0.1158
 1276ERGO    C117153   6.171   9.715   7.333 -0.0266  0.3354 -0.0325
 1276ERGO    C217154   5.936   9.757   7.688 -0.0673  0.3631  0.1925
 1277ERGO   ROH17155   7.808   3.492   6.630  0.0794 -0.1752  0.0939
 1277ERGO    R117156   7.845   3.458   6.908 -0.0052 -0.0512  0.1218
 1277ERGO    R217157   7.932   3.662   7.073  0.0231  0.0025  0.0468
 1277ERGO    R317158   7.707   3.603   7.212 -0.0363  0.1481  0.0135
 1277ERGO    R417159   7.844   3.802   7.377  0.0539  0.0706  0.0239
 1277ERGO    R517160   7.775   3.606   7.441 -0.0755  0.1186  0.0231
 1277ERGO    C117161   7.581   3.826   7.684  0.0161  0.2469 -0.0207
 1277ERGO    C217162   7.310   3.996   7.816 -0.0493  0.0993 -0.0547
 1278ERGO   ROH17163   0.025   8.584   6.280 -0.3507 -0.1558 -0.0661
 1278ERGO    R117164   0.077   8.428   6.510 -0.0912 -0.0916 -0.0780
 1278ERGO    R217165   0.298   8.469   6.672 -0.0306  0.1041 -0.2084
 1278ERGO    R317166   0.111   8.487   6.868  0.0663 -0.0290 -0.1021
 1278ERGO    R417167   0.364   8.447   7.010  0.1808  0.1469 -0.2450
 1278ERGO    R517168   0.182   8.329   7.033  0.2737  0.0177 -0.1421
 1278ERGO    C117169   0.226   8.451   7.392  0.3949  0.0468 -0.1666
 1278ERGO    C217170   0.209   8.414   7.757 -0.0111  0.0097 -0.0187
 1279ERGO   ROH17171   7.073   1.979   6.743  0.0767 -0.0572 -0.0333
 1279ERGO    R117172   6.967   1.943   7.003  0.0359 -0.2253 -0.0713
 1279ERGO    R217173   6.774   2.109   7.110  0.2357 -0.1061  0.1186
 1279ERGO    R317174   6.640   1.876   7.149 -0.0474  0.0047 -0.1504
 1279ERGO    R417175   6.574   2.040   7.382  0.1675 -0.1896  0.0475
 1279ERGO    R517176   6.655   1.838   7.385 -0.0784 -0.2949 -0.1948
 1279ERGO    C117177   6.331   1.781   7.578 -0.1378 -0.1342 -0.2463
 1279ERGO    C217178   6.109   1.857   7.879  0.1317  0.0329 -0.0205
 1280ERGO   ROH17179   7.619   9.086   6.173 -0.1539  0.2576  0.0464
 1280ERGO    R117180   7.484   9.087   6.423 -0.1692  0.0948  0.0425
 1280ERGO    R217181   7.483   8.869   6.592 -0.1026  0.0094 -0.0515
 1280ERGO    R317182   7.576   9.050   6.773 -0.1703 -0.0372  0.0269
 1280ERGO    R417183   7.425   8.855   6.932 -0.2653 -0.0380 -0.0822
 1280ERGO    R517184   7.398   9.072   6.932 -0.2374 -0.0420 -0.0555
 1280ERGO    C117185   7.479   9.016   7.300 -0.4236 -0.1092 -0.0263
 1280ERGO    C217186   7.634   8.970   7.570 -0.4797 -0.1792 -0.1255
 1281ERGO   ROH17187   8.116   1.063   6.752 -0.0598  0.1973 -0.0997
 1281ERGO    R117188   8.156   1.146   7.020 -0.2554  0.2249 -0.0783
 1281ERGO    R217189   7.953   1.149   7.207 -0.3117 -0.1091 -0.1322
 1281ERGO    R317190   8.127   0.997   7.350 -0.1147  0.1341 -0.1050
 1281ERGO    R417191   7.899   1.041   7.530 -0.3400 -0.4088 -0.2331
 1281ERGO    R517192   8.109   1.082   7.574 -0.4395 -0.0274 -0.0615
 1281ERGO    C117193   8.031   0.836   7.854 -0.1717 -0.3551 -0.2663
 1281ERGO    C217194   7.781   0.759   8.143 -0.1978  0.2139  0.2676
 1282ERGO   ROH17195   9.369   6.049   6.520 -0.0114  0.0798  0.0141
 1282ERGO    R117196   9.384   6.257   6.712 -0.0655  0.1005 -0.0022
 1282ERGO    R217197   9.187   6.299   6.902 -0.0791  0.0651 -0.0014
 1282ERGO    R317198   9.396   6.280   7.075 -0.0711  0.1298 -0.0052
 1282ERGO    R417199   9.173   6.379   7.237 -0.1268 -0.0659  0.0275
 1282ERGO    R517200   9.371   6.469   7.219 -0.1847  0.0591  0.0633
 1282ERGO    C117201   9.361   6.408   7.595 -0.1471 -0.0815  0.0408
 1282ERGO    C217202   9.542   6.562   7.827 -0.2280 -0.0104  0.0118
 1283ERGO   ROH17203   7.178  14.854   6.570 -0.0982 -0.1088 -0.1117
 1283ERGO    R117204   7.259  14.618   6.703 -0.1519 -0.0095  0.1000
 1283ERGO    R217205   7.519  14.575   6.785 -0.1194 -0.0762 -0.0404
 1283ERGO    R317206   7.402  14.532   7.027  0.0265  0.2705  0.0988
 1283ERGO    R417207   7.673  14.419   7.053 -0.1076 -0.1112 -0.0673
 1283ERGO    R517208   7.484  14.317   7.094 -0.2293  0.1926  0.1759
 1283ERGO    C117209   7.652  14.287   7.435  0.0364  0.1939  0.0477
 1283ERGO    C217210   8.054  14.353   7.468  0.0313  0.1952  0.0229
 1284ERGO   ROH17211   2.135  10.565   6.339  0.1365  0.0166 -0.1061
 1284ERGO    R117212   2.335  10.706   6.481  0.0457  0.1056 -0.0654
 1284ERGO    R217213   2.326  10.742   6.755  0.0057  0.0470 -0.0598
 1284ERGO    R317214   2.574  10.631   6.746  0.0724  0.1928 -0.0640
 1284ERGO    R417215   2.613  10.890   6.877 -0.1155  0.1241  0.1362
 1284ERGO    R517216   2.720  10.815   6.702 -0.0176  0.3094  0.1135
 1284ERGO    C117217   3.013  10.872   6.940 -0.1234  0.3060  0.2463
 1284ERGO    C217218   3.053  11.011   7.190 -0.0617  0.3771  0.2416
 1285ERGO   ROH17219   0.661  16.419   6.247 -0.0628  0.1769  0.0891
 1285ERGO    R117220   0.496  16.395   6.476  0.0665  0.0552  0.1712
 1285ERGO    R217221   0.350  16.167   6.531  0.0252  0.0600  0.0825
 1285ERGO    R317222   0.481  16.180   6.770  0.1731 -0.1668  0.0172
 1285ERGO    R417223   0.236  16.029   6.827  0.0784  0.0055  0.0777
 1285ERGO    R517224   0.307  16.207   6.932  0.2853 -0.1030  0.1293
 1285ERGO    C117225   0.292  15.962   7.223  0.2481 -0.2392  0.0136
 1285ERGO    C217226   0.213  15.920   7.578 -0.0658  0.3144 -0.1882
 1286ERGO   ROH17227   6.377   0.877   6.563 -0.1097 -0.1166 -0.1346
 1286ERGO    R117228   6.384   0.990   6.822 -0.1966  0.0502 -0.2036
 1286ERGO    R217229   6.160   1.009   6.982 -0.1902 -0.1270 -0.1774
 1286ERGO    R317230   6.316   0.877   7.162  0.0056  0.1709 -0.1198
 1286ERGO    R417231   6.083   0.968   7.316 -0.2923 -0.3495 -0.2263
 1286ERGO    R517232   6.293   1.004   7.364 -0.3814  0.0979 -0.1062
 1286ERGO    C117233   6.184   0.820   7.680 -0.1679 -0.1995 -0.2007
 1286ERGO    C217234   6.056   0.887   8.017  0.1583 -0.2762  0.0751
 1287ERGO   ROH17235   0.158   7.085   7.566  0.2823  0.0199 -0.0816
 1287ERGO    R117236   0.194   6.960   7.817  0.2933  0.0114 -0.0871
 1287ERGO    R217237   0.399   7.029   7.989  0.2089  0.1156 -0.0258
 1287ERGO    R317238   0.195   7.065   8.166  0.1409 -0.0283 -0.0741
 1287ERGO    R417239   0.414   6.952   8.326  0.1894  0.1441 -0.0185
 1287ERGO    R517240   0.210   6.876   8.313  0.2493 -0.0101 -0.0615
 1287ERGO    C117241   0.232   6.941   8.688  0.1142  0.0255 -0.0597
 1287ERGO    C217242   0.318   6.970   9.185 -0.3602 -0.0124  0.3061
 1288ERGO   ROH17243   0.778   0.342   9.792  0.1798  0.1035 -0.2066
 1288ERGO    R117244   0.776   0.382   9.512  0.1767  0.0589 -0.2147
 1288ERGO    R217245   0.800   0.175   9.331  0.0310  0.0077 -0.1891
 1288ERGO    R317246   0.569   0.277   9.231  0.0814  0.1362 -0.1709
 1288ERGO    R417247   0.659   0.085   9.029 -0.2315 -0.1593 -0.0197
 1288ERGO    R517248   0.609   0.294   8.995 -0.0345 -0.1480 -0.2089
 1288ERGO    C117249   0.360   0.128   8.759 -0.3371 -0.1359  0.0959
 1288ERGO    C217250   0.136   0.071   8.445  0.2388 -0.1215 -0.0941
 1289ERGO   ROH17251   6.577   4.145   7.462 -0.1552 -0.1660  0.0788
 1289ERGO    R117252   6.472   4.348   7.628 -0.2237 -0.0308 -0.1276
 1289ERGO    R217253   6.308   4.549   7.531 -0.4031 -0.2614 -0.3102
 1289ERGO    R317254   6.141   4.463   7.728 -0.2615 -0.1343 -0.1301
 1289ERGO    R417255   6.039   4.728   7.654 -0.2615 -0.1411 -0.1698
 1289ERGO    R517256   6.092   4.660   7.854 -0.1101 -0.0616 -0.1786
 1289ERGO    C117257   5.725   4.752   7.910 -0.0462  0.0482  0.0809
 1289ERGO    C217258   5.469   5.027   7.876  0.2279 -0.0378  0.0366
 1290ERGO   ROH17259   6.755  13.439   6.621 -0.0776 -0.2093  0.0181
 1290ERGO    R117260   6.829  13.523   6.881 -0.0440 -0.0667 -0.0378
 1290ERGO    R217261   6.767  13.774   6.978 -0.1844 -0.0755 -0.1059
 1290ERGO    R317262   6.657  13.632   7.182 -0.0132 -0.0816 -0.0147
 1290ERGO    R417263   6.692  13.903   7.290 -0.4246  0.0587 -0.2153
 1290ERGO    R517264   6.765  13.717   7.379 -0.1667  0.2284 -0.0585
 1290ERGO    C117265   6.545  13.845   7.663 -0.4037  0.1310 -0.1933
 1290ERGO    C217266   6.459  13.939   8.008 -0.0865  0.0343  0.1701
 1291ERGO   ROH17267   3.131   8.183   6.370 -0.0647 -0.1167  0.1051
 1291ERGO    R117268   3.181   8.342   6.599 -0.0218 -0.1705  0.1336
 1291ERGO    R217269   2.984   8.496   6.719  0.0442 -0.0526  0.0961
 1291ERGO    R317270   3.058   8.358   6.941 -0.1043 -0.1248  0.1016
 1291ERGO    R417271   3.030   8.635   7.032  0.3338 -0.0645  0.0619
 1291ERGO    R517272   3.204   8.507   7.058  0.1510 -0.3217  0.0393
 1291ERGO    C117273   3.126   8.587   7.423  0.3629 -0.1393  0.0472
 1291ERGO    C217274   3.224   8.616   7.688  0.2171  0.0477 -0.1408
 1292ERGO   ROH17275  12.219  10.789   6.568  0.1359  0.1721  0.0519
 1292ERGO    R117276  12.135  10.785   6.839  0.1334 -0.0006  0.0493
 1292ERGO    R217277  11.949  10.604   6.934  0.1063 -0.0364 -0.0768
 1292ERGO    R317278  12.145  10.548   7.115  0.0937 -0.1916 -0.1099
 1292ERGO    R417279  11.895  10.544   7.270  0.1120  0.0470 -0.0604
 1292ERGO    R517280  12.075  10.660   7.315  0.2286 -0.1050 -0.1073
 1292ERGO    C117281  12.047  10.455   7.635  0.1035 -0.0501 -0.0820
 1292ERGO    C217282  12.048  10.209   7.841  0.0635  0.0378  0.1725
 1293ERGO   ROH17283  15.478   1.005   6.720 -0.0079  0.1263  0.0824
 1293ERGO    R117284  15.634   1.027   6.955  0.1631  0.1252 -0.0294
 1293ERGO    R217285  15.590   0.872   7.179  0.1164  0.3453  0.1153
 1293ERGO    R317286  15.853   0.811   7.149  0.0323  0.0170  0.0000
 1293ERGO    R417287  15.817   0.850   7.438  0.2520  0.3276 -0.0041
 1293ERGO    R517288  15.964   0.948   7.310  0.2908  0.0460 -0.1930
 1293ERGO    C117289  16.197   0.779   7.561  0.2520  0.0090 -0.1818
 1293ERGO    C217290  16.288   0.710   7.922  0.0166 -0.0710 -0.0275
 1294ERGO   ROH17291  11.218   6.675   6.524 -0.1908 -0.3530 -0.0336
 1294ERGO    R117292  11.125   6.676   6.792 -0.1168 -0.3437 -0.0087
 1294ERGO    R217293  11.259   6.546   6.996  0.1130 -0.0643  0.0154
 1294ERGO    R317294  11.249   6.791   7.114 -0.1791 -0.0182 -0.0962
 1294ERGO    R417295  11.244   6.603   7.337  0.2106  0.0599  0.0009
 1294ERGO    R517296  11.101   6.762   7.300 -0.0479 -0.1548 -0.0043
 1294ERGO    C117297  11.225   6.865   7.645 -0.0067  0.1755 -0.1124
 1294ERGO    C217298  11.096   7.065   7.872 -0.0597 -0.2140  0.1100
 1295ERGO   ROH17299  17.241  10.788   6.415 -0.0500  0.1562  0.0473
 1295ERGO    R117300  17.149  10.963   6.618 -0.0100  0.1364  0.0818
 1295ERGO    R217301  17.232  10.941   6.881  0.0224  0.0954  0.0667
 1295ERGO    R317302  17.299  11.202   6.848  0.0377  0.0956  0.0938
 1295ERGO    R417303  17.269  11.170   7.137  0.1032  0.0510  0.0959
 1295ERGO    R517304  17.170  11.318   7.013  0.0866  0.0804  0.1434
 1295ERGO    C117305  17.353  11.548   7.255  0.1644  0.0252  0.1383
 1295ERGO    C217306  17.412  11.677   7.606 -0.0307 -0.1991  0.2797
 1296ERGO   ROH17307   1.243   7.806   5.936 -0.2725  0.0253 -0.0918
 1296ERGO    R117308   1.240   7.841   6.217 -0.1430 -0.0158 -0.0847
 1296ERGO    R217309   1.462   7.923   6.359 -0.0787 -0.0311 -0.1752
 1296ERGO    R317310   1.293   8.115   6.450 -0.0415 -0.0485 -0.0686
 1296ERGO    R417311   1.437   8.023   6.689  0.0023 -0.1489 -0.1328
 1296ERGO    R517312   1.220   8.034   6.664 -0.0024 -0.1197 -0.0822
 1296ERGO    C117313   1.264   8.262   6.966  0.0843 -0.2338 -0.0082
 1296ERGO    C217314   1.165   8.340   7.286  0.4423  0.0815  0.1795
 1297ERGO   ROH17315  16.171   4.501   7.730 -0.0952  0.0659  0.0150
 1297ERGO    R117316  16.238   4.356   7.964 -0.0020  0.1565  0.0466
 1297ERGO    R217317  16.464   4.410   8.114  0.0903  0.1820 -0.0906
 1297ERGO    R317318  16.285   4.430   8.317  0.1939  0.3081 -0.0110
 1297ERGO    R417319  16.540   4.373   8.449  0.1899  0.0612 -0.1261
 1297ERGO    R517320  16.353   4.263   8.474  0.1067  0.2251 -0.0668
 1297ERGO    C117321  16.415   4.370   8.835  0.3454  0.1092 -0.0721
 1297ERGO    C217322  16.409   4.368   9.113  0.1144  0.3748 -0.1275
 1298ERGO   ROH17323  13.344   7.792   7.005 -0.2809 -0.0231 -0.2379
 1298ERGO    R117324  13.153   7.661   7.168 -0.1359  0.0178 -0.0315
 1298ERGO    R217325  13.028   7.427   7.092 -0.3466  0.1021  0.0546
 1298ERGO    R317326  13.123   7.336   7.330 -0.0822 -0.0183 -0.0917
 1298ERGO    R417327  12.964   7.114   7.223 -0.1681  0.0181 -0.0552
 1298ERGO    R517328  12.943   7.206   7.420  0.0246 -0.0923  0.0241
 1298ERGO    C117329  13.016   6.846   7.524  0.1841 -0.1439 -0.2563
 1298ERGO    C217330  13.241   6.736   7.776 -0.0814  0.4691  0.1251
 1299ERGO   ROH17331   2.051  12.089   6.372 -0.1968 -0.1511 -0.0145
 1299ERGO    R117332   2.145  12.203   6.613 -0.0353 -0.2298 -0.0380
 1299ERGO    R217333   2.023  12.421   6.732  0.2464 -0.0486 -0.0645
 1299ERGO    R317334   2.015  12.257   6.949  0.0480 -0.0082 -0.0403
 1299ERGO    R417335   1.925  12.517   7.049  0.3834  0.1190 -0.0719
 1299ERGO    R517336   2.086  12.395   7.131  0.2324 -0.0739 -0.0633
 1299ERGO    C117337   1.860  12.420   7.437  0.2769  0.2546 -0.0535
 1299ERGO    C217338   1.667  12.397   7.701 -0.0547 -0.1816 -0.0163
 1300ERGO   ROH17339  14.722  10.826   6.802 -0.2710  0.1484  0.0104
 1300ERGO    R117340  14.754  10.849   7.083 -0.2985  0.0733  0.0205
 1300ERGO    R217341  14.891  11.058   7.201 -0.0868 -0.0876  0.0779
 1300ERGO    R317342  14.660  11.086   7.342 -0.0874  0.1442  0.0325
 1300ERGO    R417343  14.856  11.247   7.488  0.0396 -0.0605  0.0751
 1300ERGO    R517344  14.730  11.090   7.571 -0.1350  0.0683  0.0448
 1300ERGO    C117345  14.620  11.384   7.787  0.1126  0.1729  0.0310
 1300ERGO    C217346  14.706  11.473   8.153  0.1307 -0.1809  0.1911
 1301ERGO   ROH17347  15.766   6.262   6.475 -0.0977 -0.0316  0.0444
 1301ERGO    R117348  15.705   6.139   6.723 -0.0308  0.0032  0.0793
 1301ERGO    R217349  15.895   6.102   6.921  0.0191  0.0575  0.0495
 1301ERGO    R317350  15.714   6.235   7.074  0.0356  0.0669  0.0588
 1301ERGO    R417351  15.830   6.036   7.254  0.0220  0.0664  0.0510
 1301ERGO    R517352  15.619   6.066   7.214  0.0285  0.0800  0.0619
 1301ERGO    C117353  15.623   6.122   7.592  0.0391  0.0802  0.0607
 1301ERGO    C217354  15.751   6.079   7.899 -0.3094 -0.2339  0.2544
 1302ERGO   ROH17355  14.203   7.419   6.291 -0.0345  0.0895  0.2233
 1302ERGO    R117356  14.173   7.370   6.568 -0.0723 -0.1012  0.1879
 1302ERGO    R217357  14.183   7.116   6.677  0.1770 -0.1570  0.0486
 1302ERGO    R317358  14.375   7.226   6.835  0.0041 -0.0268  0.1701
 1302ERGO    R417359  14.260   7.011   6.997  0.1186 -0.1752  0.0558
 1302ERGO    R517360  14.282   7.219   7.055 -0.0959 -0.1707  0.1241
 1302ERGO    C117361  14.486   7.053   7.331 -0.0778 -0.0636  0.1741
 1302ERGO    C217362  14.771   7.137   7.562 -0.3424 -0.1853 -0.4794
 1303ERGO   ROH17363  11.158   0.858   6.837  0.0329  0.1315 -0.0608
 1303ERGO    R117364  11.138   0.782   7.109  0.0756  0.0278 -0.0871
 1303ERGO    R217365  11.336   0.639   7.238  0.1723  0.1306 -0.1276
 1303ERGO    R317366  11.324   0.845   7.416  0.0151  0.0624 -0.0562
 1303ERGO    R417367  11.393   0.611   7.578  0.1282  0.0403 -0.1269
 1303ERGO    R517368  11.227   0.748   7.612  0.0356 -0.0697 -0.1072
 1303ERGO    C117369  11.415   0.787   7.942 -0.0450 -0.0763 -0.0593
 1303ERGO    C217370  11.615   0.668   8.276 -0.2630 -0.2119  0.0912
 1304ERGO   ROH17371   7.858  14.894   6.738 -0.1355 -0.0734  0.1584
 1304ERGO    R117372   7.954  14.797   6.986 -0.2035 -0.0861  0.1806
 1304ERGO    R217373   8.137  14.935   7.139 -0.0193 -0.2307  0.0970
 1304ERGO    R317374   7.949  14.907   7.333 -0.0231  0.0573  0.1392
 1304ERGO    R417375   8.187  15.003   7.474  0.1201 -0.1749  0.0650
 1304ERGO    R517376   8.071  14.825   7.522 -0.0847 -0.0237  0.1449
 1304ERGO    C117377   8.039  15.016   7.851  0.1977  0.1280  0.0860
 1304ERGO    C217378   7.994  15.191   8.233  0.2099 -0.3844  0.0563
 1305W        W17379  10.544   0.602   0.258 -0.2005 -0.1454  0.2254
 1306W        W17380   7.056   0.832   3.218 -0.0177 -0.2896 -0.1269
 1307W        W17381  17.133  17.833  12.088  0.2304 -0.1454 -0.0289
 1308W        W17382   3.637  17.775   3.937 -0.1163  0.1304 -0.2365
 1309W        W17383   4.215  17.131   5.614 -0.2809 -0.0999  0.0473
 1310W        W17384   7.352  17.701   5.400 -0.1583 -0.0926  0.2657
 1311W        W17385  15.957   1.198   2.738  0.1490  0.2188  0.3130
 1312W        W17386   4.616   4.444   1.294  0.1493  0.1846 -0.1767
 1313W        W17387  13.434  14.208   4.886  0.2354 -0.2941  0.2105
 1314W        W17388   0.196  17.251   5.932  0.1398 -0.1085 -0.1369
 1315W        W17389   8.647   6.155  14.608 -0.1984  0.2390 -0.0500
 1316W        W17390  10.818   0.114  12.458  0.4270 -0.2268 -0.0448
 1317W        W17391   6.503   4.306   5.335  0.0711 -0.1272  0.1092
 1318W        W17392   3.049  11.744  11.892 -0.1668 -0.1597 -0.2166
 1319W        W17393  15.076   0.473  15.729  0.0161 -0.1155  0.4331
 1320W        W17394   7.523   8.839  14.443 -0.0152 -0.0131 -0.1459
 1321W        W17395  16.447  14.716   0.720 -0.2437  0.3603 -0.3899
 1322W        W17396  12.865   7.458   3.718  0.1615 -0.1761 -0.0493
 1323W        W17397  10.113   4.678   2.625  0.0819 -0.0154  0.0284
 1324W        W17398  15.304   4.307   0.865 -0.0757  0.1547 -0.0725
 1325W        W17399   2.644  13.980  11.446  0.0705 -0.1532 -0.1993
 1326W        W17400  13.875   5.929   0.630  0.3868 -0.1391  0.0881
 1327W        W17401   0.073  12.556   0.976 -0.1356 -0.2646 -0.1354
 1328W        W17402  12.132   1.279  13.666 -0.1655  0.1280 -0.0004
 1329W        W17403  15.239  11.185   4.069 -0.2992 -0.1506  0.0331
 1330W        W17404   5.656   6.565   4.302 -0.1675  0.3024  0.4351
 1331W        W17405   4.656   6.585   2.157  0.1924 -0.1180 -0.0353
 1332W        W17406   2.692  11.750   5.790  0.1505  0.0849 -0.2477
 1333W        W17407  16.369   1.563   3.703 -0.1162 -0.1250  0.3267
 1334W        W17408   8.551  15.876   4.111 -0.1370  0.0979 -0.0625
 1335W        W17409   1.451  15.693   0.483  0.3452  0.0975 -0.2274
 1336W        W17410   2.501  18.010   2.776 -0.1725  0.1716  0.0761
 1337W        W17411   1.752   2.340  11.319 -0.0883 -0.0507 -0.0186
 1338W        W17412   1.882   8.699  16.181  0.0971  0.2502 -0.0707
 1339W        W17413  14.144   6.064  13.788 -0.1365 -0.1759 -0.0942
 1340W        W17414   5.669   6.074   5.183  0.0085  0.3934  0.1623
 1341W        W17415   1.649   1.840   4.150 -0.0257 -0.1089 -0.0067
 1342W        W17416   8.084   4.724   3.212  0.0463 -0.0404 -0.0185
 1343W        W17417   6.748   3.024  15.099 -0.1750  0.0169  0.0239
 1344W        W17418  12.766   9.977  12.278 -0.0163  0.2599  0.0217
 1345W        W17419   9.345   4.285  12.439 -0.1623 -0.0447 -0.3931
 1346W        W17420  11.123   9.750  15.591  0.1684 -0.1206 -0.0653
 1347W        W17421   5.305   9.126  13.056  0.0331 -0.1125 -0.3829
 1348W        W17422  12.958  11.624  13.237  0.0260 -0.0011  0.1630
 1349W        W17423  16.206   7.536  12.078  0.2913  0.0343  0.0845
 1350W        W17424  13.585  17.047   2.401  0.0291 -0.2432  0.0320
 1351W        W17425   3.511   1.728  15.222  0.1304  0.3390  0.5463
 1352W        W17426  15.107   2.109   3.081 -0.0514 -0.1562  0.0841
 1353W        W17427   1.850  18.112  16.027  0.1131  0.2481  0.1510
 1354W        W17428   5.009   7.930   3.821  0.0445 -0.2003 -0.0163
 1355W        W17429  14.091   7.285   0.598 -0.4176 -0.2029 -0.3092
 1356W        W17430  10.000  11.848   0.587 -0.2809  0.4243  0.0174
 1357W        W17431   9.237  18.021  16.041 -0.0169 -0.0707 -0.0467
 1358W        W17432   4.686   9.225   2.426  0.1849 -0.0657 -0.1300
 1359W        W17433  14.381   4.780   5.632  0.0769 -0.2067  0.0914
 1360W        W17434  14.230  16.849   3.989  0.0914 -0.2484  0.2663
 1361W        W17435   4.226   0.476   3.046  0.0174 -0.0118  0.2207
 1362W        W17436   7.993   2.285  13.934  0.2011  0.2765  0.1172
 1363W        W17437   9.944   4.622   5.803  0.2516  0.1748  0.1495
 1364W        W17438   8.860  14.574  14.463 -0.2237 -0.0776  0.0720
 1365W        W17439   2.713   5.961  11.363 -0.0686  0.0552 -0.1810
 1366W        W17440   9.863   1.917  15.220  0.1751  0.0859 -0.3285
 1367W        W17441   2.203   2.820   5.388 -0.1577  0.3199  0.1383
 1368W        W17442  15.428  10.854  15.538  0.0092  0.0240  0.0253
 1369W        W17443  15.567   8.035   0.861  0.0988 -0.4197  0.0561
 1370W        W17444   0.250   5.052  16.499  0.1184  0.1700 -0.2701
 1371W        W17445   9.367  12.638  13.620  0.1683  0.2246  0.4035
 1372W        W17446  11.794  11.448  11.686 -0.0388  0.1037  0.3539
 1373W        W17447  10.166   3.709  15.608  0.3637  0.0489  0.1973
 1374W        W17448   4.290   2.373   0.831  0.3743  0.1719 -0.0159
 1375W        W17449   6.922   7.103  12.097  0.0504  0.1677  0.3128
 1376W        W17450   5.084   6.800  14.735  0.1728  0.0103 -0.4495
 1377W        W17451  13.011  10.690   1.223  0.0516 -0.1367 -0.2218
 1378W        W17452  17.231   2.104   5.689 -0.3244 -0.2120  0.0655
 1379W        W17453   1.513   5.027  14.186 -0.2469  0.0954  0.0732
 1380W        W17454  11.797   1.045   1.528 -0.0183 -0.1064  0.1544
 1381W        W17455  10.881   8.213  11.804  0.0644  0.1218 -0.1741
 1382W        W17456   8.438   0.787  12.964  0.2619 -0.1365 -0.0358
 1383W        W17457  13.268   7.053   4.801 -0.2260  0.2682 -0.1133
 1384W        W17458   1.683   2.797   2.296 -0.1695  0.0129  0.0921
 1385W        W17459  15.288  17.217  12.473 -0.3557  0.5952  0.1668
 1386W        W17460   1.176   3.891   6.012  0.0143  0.2620  0.0870
 1387W        W17461   4.106   2.087   4.817  0.0896 -0.0578 -0.4427
 1388W        W17462  11.050   0.448  12.793 -0.1749 -0.1861  0.1756
 1389W        W17463  11.606   1.426   0.167 -0.0782 -0.0987  0.0515
 1390W        W17464  10.997  14.356  11.314 -0.0918 -0.1985 -0.1215
 1391W        W17465  11.597  15.380   4.471 -0.2309 -0.0714 -0.0339
 1392W        W17466  10.238  10.462  14.494 -0.1158 -0.3231 -0.2073
 1393W        W17467   2.790  11.358  16.220 -0.0428 -0.0730 -0.0672
 1394W        W17468  10.063   7.266  13.418 -0.3684 -0.3054  0.1512
 1395W        W17469  11.926  16.442  15.244  0.0012 -0.1834 -0.1565
 1396W        W17470  14.668   5.994  16.026  0.4164 -0.2168 -0.0299
 1397W        W17471  11.195  14.499  16.048  0.1634 -0.0414  0.0614
 1398W        W17472  14.181   6.469   3.109 -0.0660 -0.0840 -0.0830
 1399W        W17473   4.565   1.842  14.509  0.1261  0.1286 -0.1315
 1400W        W17474   1.910  14.870   0.632  0.0517 -0.0487 -0.0834
 1401W        W17475   6.468  17.578   1.387  0.1095 -0.0728  0.1142
 1402W        W17476   5.275   8.526  13.717  0.0455  0.1696  0.0210
 1403W        W17477  11.621  13.430   1.208 -0.0355  0.0367 -0.0536
 1404W        W17478  17.953  18.241  14.257  0.3645  0.2481 -0.0168
 1405W        W17479   2.069   4.384   4.062 -0.3103  0.0016  0.0180
 1406W        W17480   8.014  10.680  13.348  0.1573 -0.2278  0.2041
 1407W        W17481   3.322  10.897   5.404 -0.3840  0.1010 -0.0572
 1408W        W17482  14.648  17.894   4.630  0.0086  0.1229 -0.0835
 1409W        W17483   0.357  12.505  13.376 -0.0157 -0.4347  0.3048
 1410W        W17484  14.441  16.654  14.144  0.2919  0.3312 -0.1752
 1411W        W17485  10.297   4.026  13.057 -0.1275 -0.1266 -0.2869
 1412W        W17486  10.081   7.750  11.981 -0.1907 -0.2812 -0.2320
 1413W        W17487   6.905   8.775   1.460  0.0431 -0.1502 -0.0810
 1414W        W17488   4.414   3.284  15.450 -0.0294 -0.5427  0.0905
 1415W        W17489   3.076   2.559   0.806 -0.3033  0.0738  0.2625
 1416W        W17490  16.514   9.160  14.646 -0.3031  0.0401 -0.0587
 1417W        W17491  12.648   0.734   1.177 -0.1735 -0.1759  0.0823
 1418W        W17492  17.714  16.507   1.393 -0.3799 -0.0501  0.0531
 1419W        W17493   7.403  16.759  15.665  0.0387  0.0354  0.2173
 1420W        W17494   9.404   1.394  12.392  0.0341 -0.2556 -0.1059
 1421W        W17495  13.323   9.374   4.794 -0.2088  0.0105 -0.2050
 1422W        W17496   6.959   6.171  12.850 -0.0350 -0.0904 -0.0714
 1423W        W17497  17.517   1.353  12.762 -0.3133  0.1976  0.1948
 1424W        W17498  15.471  12.444   0.070 -0.1409 -0.2415 -0.1272
 1425W        W17499  15.537   5.132   4.781 -0.1931  0.0649  0.1320
 1426W        W17500   4.748   7.899   0.437 -0.1507  0.0993 -0.3506
 1427W        W17501  15.630   5.136   5.552  0.1771  0.0463 -0.2445
 1428W        W17502   4.135   5.993   5.275  0.0646  0.3825 -0.1313
 1429W        W17503   2.199   4.775   0.832  0.3624 -0.0489  0.0009
 1430W        W17504  17.026   5.930   3.010  0.0959 -0.0890  0.1717
 1431W        W17505   8.129   7.428   1.423 -0.0207  0.0463 -0.1754
 1432W        W17506  11.106   3.123   0.122 -0.0219  0.0325 -0.0532
 1433W        W17507  13.278   6.182   0.213  0.1343  0.0454 -0.2225
 1434W        W17508  18.106   1.204   3.021  0.0004 -0.0162  0.1753
 1435W        W17509  17.359  16.603   5.785 -0.0632 -0.2302 -0.0043
 1436W        W17510  13.955   2.931   4.329  0.1090  0.0886  0.0909
 1437W        W17511  13.933   8.841   5.662 -0.2309  0.3501  0.1565
 1438W        W17512  10.791   8.510  12.278  0.0507  0.1126  0.1767
 1439W        W17513   5.769   4.161   1.764 -0.2599 -0.1991 -0.0024
 1440W        W17514   4.354   0.003  13.918 -0.2467 -0.0245 -0.0168
 1441W        W17515  14.109   9.272   0.913  0.0410 -0.0112  0.1363
 1442W        W17516   6.611   8.602   5.371  0.0775  0.1174  0.0360
 1443W        W17517  14.555  11.147   5.507 -0.1510  0.2330 -0.1322
 1444W        W17518   7.725   7.397   3.603 -0.0043  0.4224  0.2536
 1445W        W17519  18.096  16.258  13.416  0.0640  0.3929 -0.0634
 1446W        W17520   3.009  18.213   2.892 -0.2515 -0.0492  0.1649
 1447W        W17521  11.445   0.827  11.645 -0.0855 -0.4093 -0.3742
 1448W        W17522   1.940   2.629   1.858  0.2210 -0.1246 -0.4113
 1449W        W17523   3.167  16.420  10.253 -0.0331 -0.1803  0.0981
 1450W        W17524   7.601   5.458   4.548 -0.0535 -0.0556  0.0445
 1451W        W17525  10.705  13.409   1.386  0.1607  0.3437 -0.0888
 1452W        W17526  13.309   8.181   5.129  0.2046  0.1534 -0.0735
 1453W        W17527   8.716   0.037   5.871 -0.0173  0.0308  0.1177
 1454W        W17528   3.617  14.941   0.517  0.2249 -0.1679  0.0026
 1455W        W17529   8.634   2.155   6.376  0.2281  0.1003  0.1252
 1456W        W17530   9.035   8.153  13.109  0.1823 -0.0520 -0.2538
 1457W        W17531  16.804   3.798  16.221  0.1981 -0.4466  0.1724
 1458W        W17532  12.262   0.894   1.663  0.2079  0.1705 -0.2218
 1459W        W17533  14.434   9.871   5.396 -0.1208 -0.0338  0.2677
 1460W        W17534  12.623   5.089  12.212  0.2934  0.1125  0.1306
 1461W        W17535  16.749   2.820  14.793  0.0692 -0.1549 -0.0844
 1462W        W17536   7.655  15.703  14.346 -0.1698  0.1895 -0.2138
 1463W        W17537  10.827   6.288  15.544  0.1922 -0.0338 -0.2952
 1464W        W17538   3.779  14.288   3.945  0.0358  0.0861 -0.2264
 1465W        W17539  11.745   6.081   1.839 -0.0283 -0.0305 -0.0013
 1466W        W17540   6.355  18.144   5.745 -0.3605  0.2031 -0.0021
 1467W        W17541  13.905  14.663  16.201  0.1577  0.2243 -0.0057
 1468W        W17542   1.550  17.913   1.740  0.2414 -0.2322 -0.2505
 1469W        W17543  14.316   1.362  11.470 -0.0976  0.2049 -0.1693
 1470W        W17544   7.056   2.638  15.012  0.3114  0.0535  0.2413
 1471W        W17545  15.185  16.129   3.251 -0.0788  0.3320  0.0450
 1472W        W17546   2.731  11.344   4.000  0.0908 -0.1806 -0.0776
 1473W        W17547   2.884   9.271   1.684  0.1791 -0.1461 -0.1222
 1474W        W17548   7.897   9.633  14.350 -0.3325 -0.1762 -0.0660
 1475W        W17549   1.325   5.369   3.555  0.3228  0.1252 -0.0679
 1476W        W17550  13.912   5.671   1.030 -0.1641  0.0354  0.1415
 1477W        W17551   8.929   0.867   2.323 -0.1059  0.0013  0.3128
 1478W        W17552  17.459   1.374   2.437 -0.2550 -0.0978  0.0384
 1479W        W17553  14.700   6.442   5.443 -0.0719  0.1720 -0.0130
 1480W        W17554   1.761   3.953  12.623 -0.0098  0.1919  0.1483
 1481W        W17555  17.740  14.134  12.891 -0.0873 -0.0768 -0.2952
 1482W        W17556  13.229   6.500  14.336  0.0484 -0.0954 -0.1704
 1483W        W17557   4.666  16.962  11.902  0.0022 -0.0587  0.1529
 1484W        W17558  16.973   7.766   1.203 -0.4646 -0.0456 -0.2497
 1485W        W17559  11.188  17.466   1.404 -0.2921 -0.0186  0.0953
 1486W        W17560  10.941  15.392   5.440 -0.0789 -0.1370  0.2840
 1487W        W17561  16.397  10.296  12.216  0.0879 -0.1279  0.0716
 1488W        W17562  12.049   9.689  12.946  0.1586  0.1380 -0.0883
 1489W        W17563  12.418   6.289   4.983 -0.1836  0.3619  0.2851
 1490W        W17564  16.388  10.448  15.308  0.2849 -0.1528  0.3249
 1491W        W17565  12.250   3.691  14.006  0.3616 -0.1901 -0.0690
 1492W        W17566   0.043  14.896   4.111 -0.0711 -0.0346  0.1060
 1493W        W17567  12.464  13.589  13.632  0.1725  0.2195 -0.1820
 1494W        W17568   9.547  13.640  12.312  0.1185  0.1381 -0.3529
 1495W        W17569  13.650  16.951  11.964  0.1974 -0.1803  0.4458
 1496W        W17570   5.495   2.473  12.280  0.1548  0.3440 -0.0939
 1497W        W17571  17.858  17.489  15.531  0.2154 -0.4671 -0.1321
 1498W        W17572  15.994   2.066  14.877 -0.1228  0.0118 -0.1820
 1499W        W17573   1.284   2.778  14.593 -0.1224  0.3566  0.0067
 1500W        W17574   0.820   3.059  14.746 -0.2361  0.2294  0.0087
 1501W        W17575  13.843  13.311  14.117 -0.1218  0.2537 -0.2350
 1502W        W17576  13.261   9.089   1.390  0.3002 -0.0031  0.1614
 1503W        W17577  12.157  11.195  15.121 -0.0697 -0.0887  0.1524
 1504W        W17578  10.193   1.885  15.615  0.0560  0.1036  0.0804
 1505W        W17579  18.040  11.006   3.807  0.2020 -0.0828 -0.1333
 1506W        W17580  12.891  13.431  12.119 -0.0360 -0.0245  0.0420
 1507W        W17581  11.557  16.702   0.315  0.0417 -0.4644  0.0888
 1508W        W17582   1.189   6.714   0.503  0.0776  0.1266  0.1124
 1509W        W17583  16.962  11.053  16.022  0.0736 -0.0720  0.2671
 1510W        W17584   4.870   9.449   2.803 -0.2685 -0.0615 -0.0114
 1511W        W17585  15.885   3.787   5.358 -0.0578 -0.3052 -0.2569
 1512W        W17586  16.349   0.901   3.058  0.0441 -0.0915  0.0328
 1513W        W17587   4.949  11.670  13.272 -0.0618  0.2429 -0.1334
 1514W        W17588  11.322   4.593  12.151 -0.4009  0.2240 -0.0035
 1515W        W17589  17.108  15.895  13.882  0.1794  0.1406 -0.2639
 1516W        W17590   5.318  13.393   5.337  0.1387  0.0799  0.1012
 1517W        W17591  12.937   2.425  15.371 -0.0025  0.2299  0.1735
 1518W        W17592   5.266   3.060  12.048  0.0826  0.2225 -0.0880
 1519W        W17593   0.118   3.533   4.848  0.0532  0.3996  0.0980
 1520W        W17594   2.604   8.883  13.049 -0.1762 -0.1191 -0.0495
 1521W        W17595   0.555  13.551   3.339 -0.0378 -0.0896  0.2640
 1522W        W17596   7.458  12.885   0.819  0.0514  0.2547  0.0731
 1523W        W17597  16.116   0.529  14.213  0.1917 -0.1099  0.1445
 1524W        W17598  10.153   0.423   2.620 -0.3010  0.2796  0.2544
 1525W        W17599   5.848   4.280  12.912 -0.0404 -0.0361 -0.1266
 1526W        W17600  17.595   0.652  16.222  0.0549 -0.3742  0.1220
 1527W        W17601  16.756   2.172  15.605 -0.3107  0.0127  0.1031
 1528W        W17602   0.126   6.725   5.225  0.0472  0.1521  0.2541
 1529W        W17603  17.216  14.971   5.555 -0.0482 -0.1337  0.0589
 1530W        W17604  17.545   3.254   3.597  0.1240 -0.0240 -0.2321
 1531W        W17605   7.056  13.813  11.211  0.0482 -0.2060 -0.5756
 1532W        W17606  13.579   8.960   6.145  0.1168 -0.2705  0.2967
 1533W        W17607   9.634   9.702  16.158  0.2073  0.0979 -0.0689
 1534W        W17608  14.148   3.922  16.114  0.0123 -0.0888  0.1293
 1535W        W17609   7.317   1.879   0.377 -0.3367  0.1160  0.3138
 1536W        W17610   5.048  13.187  11.423 -0.2423 -0.2654  0.0862
 1537W        W17611  15.837  13.192   3.188  0.2417  0.2489  0.0576
 1538W        W17612   1.907  11.649  12.417  0.1849 -0.2116 -0.2263
 1539W        W17613  14.516   0.094   4.249  0.0872 -0.0674  0.2305
 1540W        W17614   9.309  11.023  11.370  0.0023 -0.1756  0.0429
 1541W        W17615   8.820   1.182   3.274  0.0562 -0.1554 -0.0503
 1542W        W17616   9.198   1.037  14.790 -0.2699 -0.1934  0.1812
 1543W        W17617   4.489  10.109   0.963 -0.0994 -0.2022  0.1554
 1544W        W17618   8.572   8.473  11.205  0.0381 -0.0722  0.0403
 1545W        W17619  10.868  13.355  16.407 -0.4062 -0.3006 -0.0595
 1546W        W17620  15.335  14.937   3.015 -0.1075 -0.2570 -0.1522
 1547W        W17621  13.329   0.591   2.363  0.0346 -0.1253  0.0443
 1548W        W17622   2.399   1.748  12.727  0.2800  0.1834  0.0380
 1549W        W17623  14.559   6.811  13.889  0.0991  0.2723  0.1047
 1550W        W17624   4.831   3.562   3.065  0.0839 -0.0470 -0.3687
 1551W        W17625  16.929  11.293   4.440 -0.1052  0.1433  0.0470
 1552W        W17626  10.475   9.803   3.230 -0.0586  0.1291 -0.0253
 1553W        W17627  17.667   3.401   3.133 -0.1272  0.0426 -0.3305
 1554W        W17628   4.536  13.888   1.027 -0.0311  0.0424  0.2572
 1555W        W17629   0.455   0.672  15.516 -0.1845 -0.5047  0.1025
 1556W        W17630  18.142   6.352   3.012 -0.0460 -0.2597  0.0994
 1557W        W17631   7.652   4.175  14.224 -0.0730 -0.2592 -0.0686
 1558W        W17632  16.272  17.728  15.935  0.4062  0.0599  0.1448
 1559W        W17633   6.010   8.371  15.340  0.3028  0.1480 -0.2296
 1560W        W17634  14.968  11.066  13.304  0.1566 -0.0377 -0.0790
 1561W        W17635   9.388   9.080  13.522  0.0274 -0.0243 -0.1841
 1562W        W17636  15.442  17.701   2.527 -0.0202  0.1891  0.0933
 1563W        W17637  15.365  12.212   2.441  0.2536  0.2691  0.0657
 1564W        W17638   8.331  18.208  16.457  0.0775 -0.0924  0.4364
 1565W        W17639   6.029   7.869  15.123 -0.2604  0.0745  0.0649
 1566W        W17640   3.867  12.169   3.175  0.0302  0.0447  0.0496
 1567W        W17641   0.129   7.741   1.936  0.3246 -0.1069 -0.0982
 1568W        W17642  10.515  11.611  12.804  0.2232  0.3873 -0.1171
 1569W        W17643  13.169  16.143  15.558  0.4417 -0.3029 -0.0526
 1570W        W17644   3.189  13.028  14.942  0.0427 -0.3778  0.0420
 1571W        W17645  13.058  10.851  13.561  0.1354  0.2631 -0.0974
 1572W        W17646   4.860  16.768  16.327  0.0330 -0.2721  0.1234
 1573W        W17647  17.056  11.245  12.981  0.4077  0.1009 -0.0431
 1574W        W17648  15.816   9.978   3.567  0.0599  0.3475  0.1531
 1575W        W17649   1.620  11.678  11.030 -0.3270 -0.1856 -0.1919
 1576W        W17650  12.957   9.982   2.659  0.1303 -0.0419  0.1684
 1577W        W17651  16.207   7.377   3.815  0.1318 -0.0311  0.1092
 1578W        W17652   9.794  11.081   1.220 -0.0523  0.0046  0.0739
 1579W        W17653   5.926   7.360   4.311 -0.0129  0.2488 -0.4179
 1580W        W17654   8.032   4.249  11.155  0.3178  0.0768  0.2124
 1581W        W17655   7.779  13.319  13.135 -0.2258  0.1038  0.1694
 1582W        W17656   1.892   9.691   4.964 -0.0492  0.0562 -0.3122
 1583W        W17657   4.111  10.890   4.104  0.4954  0.3315 -0.1234
 1584W        W17658  10.763   5.200   4.280  0.0240  0.0531 -0.1206
 1585W        W17659  13.002   4.249  14.571  0.2719 -0.0106 -0.0067
 1586W        W17660  16.972  16.051   1.952  0.0210  0.0711  0.2144
 1587W        W17661  14.726   3.725  12.607 -0.0804 -0.3995 -0.1393
 1588W        W17662  11.959   4.447   4.797 -0.2007 -0.0871 -0.0638
 1589W        W17663   6.972  15.883  12.000 -0.1889  0.0761  0.1057
 1590W        W17664  15.705  12.842   4.451  0.0046 -0.1236  0.0188
 1591W        W17665   6.328   5.347  11.370  0.2488  0.0812  0.0553
 1592W        W17666  13.385  14.981  14.884  0.2872 -0.0520  0.2390
 1593W        W17667   4.192  15.466  11.880  0.1259  0.1931  0.2558
 1594W        W17668   0.267   6.293  14.101  0.1331  0.0495 -0.0173
 1595W        W17669   1.927  13.171  12.854 -0.0555 -0.2427 -0.2078
 1596W        W17670  11.925   9.714   4.252  0.0295 -0.0642 -0.2085
 1597W        W17671  17.793  15.576   3.553 -0.1549  0.0377  0.0562
 1598W        W17672   1.102   1.836  12.558  0.3034 -0.1984  0.0184
 1599W        W17673   8.417   3.027   5.587  0.0748 -0.2928  0.2078
 1600W        W17674   0.072   9.367   2.905  0.2956  0.1759 -0.1166
 1601W        W17675  10.937   3.424   6.447  0.2410  0.0528  0.2952
 1602W        W17676   1.789   6.194   4.875  0.0014 -0.1759 -0.1004
 1603W        W17677   3.548  12.038  12.722  0.0063 -0.2103  0.0503
 1604W        W17678  10.299  13.886  15.326 -0.0538  0.0081 -0.0609
 1605W        W17679  12.022  13.478  12.733 -0.0709  0.1092 -0.2873
 1606W        W17680  13.240  15.264   5.751 -0.0343 -0.2291 -0.3707
 1607W        W17681  13.360  11.383  14.340 -0.0217  0.0044 -0.0167
 1608W        W17682  15.050  15.525  13.663 -0.1781 -0.2231  0.1690
 1609W        W17683   5.465   5.478  15.030  0.4434  0.2619  0.0150
 1610W        W17684   6.007   8.405   3.737 -0.0514  0.1215  0.0161
 1611W        W17685  13.305   3.415   4.612  0.2834 -0.1915 -0.0153
 1612W        W17686   1.243   0.511  10.007  0.1563 -0.0063  0.3549
 1613W        W17687   6.694   7.308   4.032  0.0162  0.0527 -0.1805
 1614W        W17688   8.300   0.813   4.826  0.0363 -0.1212 -0.1628
 1615W        W17689   5.995   2.721   4.624  0.0266 -0.0139 -0.1835
 1616W        W17690  13.120   1.406   0.725  0.0261  0.1062 -0.0509
 1617W        W17691  14.027   4.100   0.152 -0.3292 -0.0669 -0.0354
 1618W        W17692   0.922  14.314  15.642 -0.2423  0.0490  0.0606
 1619W        W17693   0.504  13.379  14.442  0.0958  0.2269 -0.0005
 1620W        W17694   9.340  17.251   4.381  0.3324  0.2276 -0.0616
 1621W        W17695   1.891   4.468   1.672  0.0760 -0.2764 -0.2692
 1622W        W17696   0.915  13.729   1.638 -0.0539  0.0268 -0.1456
 1623W        W17697  14.562  16.304   4.817  0.2141  0.1793  0.0108
 1624W        W17698   9.204   0.233  16.203  0.4471  0.0592  0.2170
 1625W        W17699  13.901  14.682   5.703  0.2985 -0.0596  0.2222
 1626W        W17700  16.980  13.176  12.155  0.2693  0.0197  0.0464
 1627W        W17701  16.919   6.727  12.436 -0.0527 -0.1706  0.0716
 1628W        W17702  12.603   3.145   1.176  0.2467 -0.1130 -0.0622
 1629W        W17703  13.437  14.195   3.502 -0.2396 -0.0194 -0.0705
 1630W        W17704  10.282   8.629   1.287  0.0871  0.1794  0.1350
 1631W        W17705  10.257  15.856  15.156 -0.1532 -0.0389 -0.0573
 1632W        W17706   2.305  11.599  12.062  0.0278 -0.2009  0.4493
 1633W        W17707   3.233  15.263  16.030  0.3019 -0.1537  0.1106
 1634W        W17708   3.868  15.464   4.175  0.0154  0.0370 -0.2076
 1635W        W17709  16.719   0.279  13.391 -0.1047  0.1843 -0.0265
 1636W        W17710   3.769   9.647   4.905 -0.1096  0.0940  0.0535
 1637W        W17711  16.277   1.359   2.415  0.0781 -0.0147 -0.0472
 1638W        W17712   8.338  13.804  14.749  0.0118  0.0691  0.0283
 1639W        W17713  10.835  11.227   3.715  0.1262 -0.3896 -0.1221
 1640W        W17714   3.391   3.814   0.879 -0.0257  0.0464  0.0986
 1641W        W17715  13.625   0.788   1.980  0.0554  0.2195 -0.2336
 1642W        W17716   5.513   6.736  12.182 -0.1741 -0.2531 -0.0109
 1643W        W17717  11.055  17.953   2.794 -0.1187  0.1406 -0.2463
 1644W        W17718   8.751   7.436   0.472  0.2503 -0.1567 -0.1577
 1645W        W17719   7.474  14.966  12.544 -0.0047  0.0526 -0.1937
 1646W        W17720   8.432  14.140   0.288  0.2183 -0.1118 -0.0491
 1647W        W17721   1.088  14.911  16.396  0.0751  0.2813 -0.1945
 1648W        W17722   7.216   2.321   0.099 -0.0157  0.0063 -0.1162
 1649W        W17723   0.433   9.453   3.532 -0.1398  0.1239 -0.0510
 1650W        W17724   6.089   1.595  16.275  0.0761 -0.1120 -0.0667
 1651W        W17725  13.695  17.986  12.772  0.2062 -0.2713 -0.1720
 1652W        W17726  11.009   5.474   2.062  0.2161  0.1727  0.0770
 1653W        W17727   0.663  14.397   1.805  0.0270  0.0793  0.0990
 1654W        W17728   6.898   9.584  13.306 -0.1766 -0.0624 -0.0492
 1655W        W17729   6.735   6.274   4.242  0.0884  0.1641 -0.0298
 1656W        W17730  16.095   2.982   4.130  0.3470  0.0742 -0.0674
 1657W        W17731   1.138  12.158  12.558 -0.0679  0.1665  0.0132
 1658W        W17732   5.095   9.094   0.717  0.5350  0.1689 -0.0424
 1659W        W17733   6.579  11.796   0.660 -0.3443 -0.0379  0.1835
 1660W        W17734   4.562  11.551  14.787  0.2742  0.3164 -0.3913
 1661W        W17735   5.120   1.945  15.701  0.1301  0.4234 -0.0651
 1662W        W17736   8.157   7.839   4.306 -0.4161  0.1139 -0.0164
 1663W        W17737   3.761  13.343   0.858  0.0711  0.2013  0.2088
 1664W        W17738   0.007  10.491   2.926 -0.1467  0.1138 -0.1541
 1665W        W17739   0.644   4.057  11.592 -0.1070  0.0003 -0.1771
 1666W        W17740  12.877   3.517   5.092 -0.1699  0.2358 -0.1357
 1667W        W17741  15.016  11.016  14.682  0.1429 -0.2026 -0.2244
 1668W        W17742   7.555   0.839   1.432 -0.1185  0.0079 -0.0496
 1669W        W17743  10.274   5.515   5.758 -0.3115 -0.1035  0.0449
 1670W        W17744  16.317   5.549   1.352 -0.0282  0.1916  0.0704
 1671W        W17745   1.491   6.960  14.394 -0.1782 -0.0286  0.1237
 1672W        W17746   6.263   0.510   1.989  0.0247 -0.0139 -0.2373
 1673W        W17747   2.427  12.109   0.071 -0.3188  0.1066 -0.1164
 1674W        W17748  18.034  15.823   0.946  0.3033  0.1447 -0.0943
 1675W        W17749  17.366  16.327   6.285 -0.0174  0.0711 -0.1286
 1676W        W17750  13.484  10.580  13.503 -0.0919  0.1972 -0.0460
 1677W        W17751   8.660   7.296  14.711  0.0417  0.0490  0.2174
 1678W        W17752  12.192  17.705   3.324  0.2554 -0.0467  0.2165
 1679W        W17753  11.094   8.434  14.761 -0.0731  0.1592 -0.2566
 1680W        W17754  15.979   3.699   4.848  0.0331  0.0399  0.3653
 1681W        W17755  11.436   8.475  12.095 -0.5093 -0.1068  0.0097
 1682W        W17756  16.692   4.562   2.194 -0.0291  0.2311  0.0681
 1683W        W17757   7.758  10.478   2.629  0.1180 -0.0674  0.0014
 1684W        W17758  13.386  11.785   3.306 -0.1580  0.4101  0.1631
 1685W        W17759  11.221  17.048   0.352  0.1481  0.0332  0.0765
 1686W        W17760  13.350  13.476  13.281 -0.0827 -0.2909  0.1955
 1687W        W17761   0.971  14.410   3.432 -0.0327  0.3710  0.2973
 1688W        W17762   1.595   8.637   0.232 -0.0070  0.0126 -0.2444
 1689W        W17763   2.085  10.188   0.440  0.1084 -0.4052  0.1020
 1690W        W17764   4.290  11.740   1.870 -0.3548 -0.2127 -0.0553
 1691W        W17765   2.245  15.081   0.930 -0.2030  0.1213  0.0000
 1692W        W17766   4.648  16.489  15.010  0.5889 -0.0410 -0.2070
 1693W        W17767  10.615   9.977  13.352  0.1467 -0.2490 -0.1724
 1694W        W17768  16.765   7.728  16.138 -0.2218 -0.1139 -0.0776
 1695W        W17769   1.069  12.143   2.737 -0.1440 -0.0367  0.0532
 1696W        W17770   4.438   1.788   5.273  0.0612  0.0654  0.3347
 1697W        W17771   6.579  11.137  13.374 -0.1665 -0.0978  0.0046
 1698W        W17772   2.431   2.592   4.791  0.1754 -0.1979  0.2359
 1699W        W17773  16.682   6.644  15.609 -0.3422 -0.1462  0.3907
 1700W        W17774   7.402  15.239  15.143  0.0459 -0.0632 -0.0594
 1701W        W17775   5.934   5.650  14.515  0.0204  0.1206  0.0321
 1702W        W17776  13.149  16.127  15.043  0.2421  0.1041  0.0448
 1703W        W17777   7.812  11.678   3.209 -0.0050  0.1447  0.0584
 1704W        W17778   8.583   7.459   2.322 -0.0415 -0.1666  0.0660
 1705W        W17779   3.556   7.612  15.203  0.1885 -0.0596  0.3482
 1706W        W17780   1.982   9.959  10.113  0.1629 -0.3011  0.2673
 1707W        W17781  16.064  17.446  13.469 -0.4754 -0.0982  0.2138
 1708W        W17782   1.461   0.229   4.808 -0.3206  0.1794 -0.1207
 1709W        W17783  14.741  15.081  14.414 -0.1223 -0.2143 -0.1497
 1710W        W17784   0.267   2.467   1.292  0.0119 -0.0297 -0.1042
 1711W        W17785  13.465   0.055  16.150 -0.1920 -0.1063  0.0699
 1712W        W17786   1.834  10.529   3.209 -0.2582  0.1649 -0.0671
 1713W        W17787   9.184  12.045   1.404 -0.1643 -0.0042 -0.1056
 1714W        W17788   8.449  10.114   4.937 -0.1234  0.5115 -0.1859
 1715W        W17789  13.350  13.252   0.607  0.0084  0.1218 -0.0177
 1716W        W17790   5.350  14.421  16.335 -0.1385 -0.0285  0.0311
 1717W        W17791  16.518   4.494  12.606  0.0209 -0.1003 -0.2697
 1718W        W17792   6.811  10.120   3.823 -0.3017 -0.0409  0.0241
 1719W        W17793   3.349   6.734   4.843 -0.2060  0.3345 -0.0270
 1720W        W17794   7.062  15.177   2.700  0.0211 -0.1133 -0.2023
 1721W        W17795   4.454  16.673   6.296  0.0932  0.1970  0.1522
 1722W        W17796  13.933  15.877  14.300 -0.0844  0.1787  0.2260
 1723W        W17797  15.614   2.041  13.799 -0.1760  0.0148 -0.3181
 1724W        W17798  13.301   0.506   5.656 -0.4993 -0.1484 -0.0320
 1725W        W17799   0.818  11.184  14.444 -0.0289  0.0737 -0.0166
 1726W        W17800   1.729   8.450   4.622  0.0539  0.2849  0.1406
 1727W        W17801  17.375  11.250  13.331 -0.2340  0.1278  0.0014
 1728W        W17802   7.269  16.944   1.252  0.0894 -0.1152 -0.0620
 1729W        W17803  17.982   2.497   1.213  0.2280  0.0617 -0.1376
 1730W        W17804  10.713  13.856  15.027  0.1566 -0.3026 -0.0624
 1731W        W17805   4.756   2.588   0.742 -0.4183  0.0456  0.1933
 1732W        W17806   8.945   8.171   4.988  0.2469 -0.1144 -0.1517
 1733W        W17807   3.586  14.228  13.374 -0.3394  0.0339 -0.2604
 1734W        W17808   2.996  16.745   2.251  0.0577  0.1241 -0.1172
 1735W        W17809   8.814   1.624  15.145 -0.3112 -0.1496 -0.1994
 1736W        W17810  17.271   8.124   3.894 -0.0458 -0.2680  0.0435
 1737W        W17811  11.871  14.779   3.241  0.1438  0.0617  0.1119
 1738W        W17812   0.788   4.067   4.446  0.1410 -0.2092  0.3052
 1739W        W17813  11.117   1.873   4.253 -0.0802 -0.0425  0.1083
 1740W        W17814   0.257   7.468   0.983  0.2636 -0.1349 -0.0702
 1741W        W17815  11.056   6.920   2.299  0.0772  0.0215  0.1835
 1742W        W17816  14.274  11.222   2.191  0.1303  0.2537 -0.2195
 1743W        W17817  12.836   4.790  15.439 -0.1633 -0.1546 -0.0804
 1744W        W17818  13.302  14.804   4.336 -0.0581  0.1101  0.0235
 1745W        W17819  10.468   4.451   3.094 -0.2603  0.2899  0.2922
 1746W        W17820   6.955  18.127   4.942  0.3300 -0.2890 -0.3241
 1747W        W17821   3.156  17.712  15.808 -0.0537 -0.3058  0.1221
 1748W        W17822   4.966   9.789  14.373 -0.0150  0.1263 -0.2098
 1749W        W17823   6.851   1.519  14.800 -0.1218  0.2971  0.0915
 1750W        W17824   8.841   5.047   4.697  0.5923  0.4145  0.1412
 1751W        W17825  10.980   1.257   0.954  0.2089 -0.1034 -0.0147
 1752W        W17826  15.097  10.135  15.902 -0.1081 -0.1848 -0.0042
 1753W        W17827  12.053   3.616   2.262 -0.0084 -0.1666  0.2456
 1754W        W17828   1.699  12.907   0.394  0.2507 -0.3795  0.0192
 1755W        W17829   4.127  17.127   1.580 -0.1040  0.0455 -0.1776
 1756W        W17830   5.138   1.903   3.947  0.1037 -0.0232  0.1929
 1757W        W17831   3.824  15.778   4.764 -0.1099  0.1329 -0.3674
 1758W        W17832   1.731   0.931  11.755  0.0555 -0.0286 -0.2209
 1759W        W17833  12.776  17.528   4.591  0.0401  0.0377  0.2965
 1760W        W17834  12.968  11.642   5.860  0.2413 -0.2317  0.1380
 1761W        W17835   5.771   9.695  10.854  0.0370  0.1245  0.0112
 1762W        W17836   5.595  16.046   4.067 -0.1153 -0.0501 -0.1534
 1763W        W17837   8.654   1.590  13.227  0.2275  0.2670  0.1456
 1764W        W17838  10.625  17.566  15.049 -0.2138 -0.0649 -0.0069
 1765W        W17839   2.767  11.355   4.938  0.1156 -0.0597  0.0130
 1766W        W17840  10.447   6.487   1.552 -0.1162 -0.0659 -0.4043
 1767W        W17841  11.340   3.571  12.697 -0.0624  0.0530 -0.0258
 1768W        W17842   1.324   7.390  13.001 -0.2174 -0.1210  0.1571
 1769W        W17843  12.317   7.992  14.094 -0.1871  0.2110  0.0310
 1770W        W17844  14.709   6.178  16.461 -0.0512  0.1045  0.0736
 1771W        W17845   9.351   8.564   1.027 -0.2056 -0.1399  0.0216
 1772W        W17846  13.524   0.489  13.400 -0.1914 -0.2036  0.0674
 1773W        W17847   8.992   8.086  11.779 -0.0809  0.0147 -0.1337
 1774W        W17848   4.700   8.908   0.403 -0.0339  0.0845  0.1702
 1775W        W17849   4.757  13.881  12.128 -0.0073 -0.0669  0.2374
 1776W        W17850   7.760   2.277  15.710  0.1447  0.1833 -0.0446
 1777W        W17851   1.929  14.779   3.978 -0.4052  0.3140  0.0510
 1778W        W17852   5.417   7.550  14.418 -0.0384 -0.0513  0.1916
 1779W        W17853   0.229  15.732  12.477 -0.0644  0.0969 -0.0250
 1780W        W17854  13.265   7.287   4.016  0.2647  0.0639 -0.1696
 1781W        W17855  11.933   8.905   1.984  0.1612 -0.1816  0.0517
 1782W        W17856   7.836   6.455  14.644 -0.1366 -0.0044  0.0438
 1783W        W17857   3.919  14.308   6.055 -0.3062  0.3999  0.1117
 1784W        W17858   7.695   5.005  13.722 -0.3215 -0.1058  0.1339
 1785W        W17859   7.349   7.151   1.086  0.0543  0.1684 -0.3816
 1786W        W17860   9.428  10.399   3.535  0.0413 -0.1802 -0.2479
 1787W        W17861  12.094   6.479   1.900 -0.0289  0.0185  0.5092
 1788W        W17862  17.852  11.752   2.639  0.1784 -0.1475 -0.1640
 1789W        W17863  12.015  16.488   4.028 -0.5523 -0.3615 -0.0193
 1790W        W17864   4.094   9.688  14.652  0.2299  0.2523  0.1162
 1791W        W17865   5.396   5.750   0.596 -0.0482  0.0514 -0.0595
 1792W        W17866   9.096   5.987   1.740  0.0713 -0.0370 -0.2512
 1793W        W17867  15.218  10.817   0.821 -0.0492 -0.0496 -0.0343
 1794W        W17868   9.639  16.565  12.926  0.1605  0.1563  0.3336
 1795W        W17869  15.786   0.648  16.300  0.2724 -0.0477  0.0137
 1796W        W17870   5.077   7.631   5.382 -0.0758  0.0690  0.1768
 1797W        W17871  14.035   8.121  12.586 -0.2110 -0.0178 -0.1287
 1798W        W17872   5.064  18.130   1.515  0.2445 -0.1768  0.1088
 1799W        W17873  10.814   8.844   3.114  0.1637 -0.2169 -0.0632
 1800W        W17874   1.870  11.766  11.456  0.0623 -0.0755  0.1483
 1801W        W17875  14.370   7.926  15.447  0.0610 -0.3001  0.0986
 1802W        W17876   5.813  14.630  16.243  0.0118 -0.1710  0.1574
 1803W        W17877  17.678   4.802  14.822  0.1627 -0.1262  0.0724
 1804W        W17878  10.821   4.248   4.322  0.0781  0.2075 -0.1861
 1805W        W17879  10.548  15.320   3.356  0.1732  0.3859  0.2678
 1806W        W17880   6.938   0.932  12.764 -0.0710 -0.2615  0.2506
 1807W        W17881  14.798  11.856   4.215 -0.0711  0.2750 -0.1645
 1808W        W17882   7.467  10.695   2.994  0.0206 -0.1166 -0.0800
 1809W        W17883   1.594  11.718   4.191 -0.0265  0.1547  0.2164
 1810W        W17884   2.366   4.888  15.465 -0.1325  0.0826 -0.0868
 1811W        W17885   3.041  15.097  13.666 -0.3374 -0.1883 -0.0248
 1812W        W17886  15.427  11.954   5.416  0.0182 -0.1506  0.1289
 1813W        W17887  16.308   0.767  12.616  0.0956 -0.1084 -0.1537
 1814W        W17888  11.312   6.643   1.991  0.3652 -0.0602  0.1405
 1815W        W17889   8.524  15.647   1.287  0.1223  0.0564 -0.2013
 1816W        W17890   6.796   6.838  15.736  0.0107 -0.0685  0.0791
 1817W        W17891  11.674  15.024  12.861 -0.1827 -0.0161 -0.1164
 1818W        W17892   7.539  18.153   5.632  0.1139  0.2120 -0.0256
 1819W        W17893   9.837  17.692  12.897  0.3506 -0.2879  0.4084
 1820W        W17894   8.019  11.240   0.645  0.0141  0.1292  0.2390
 1821W        W17895  17.611  18.152  13.185  0.0953  0.1593  0.0299
 1822W        W17896   4.361   6.952  12.728 -0.2486 -0.0612 -0.0537
 1823W        W17897  15.748  13.800  14.166 -0.1616  0.1160 -0.2263
 1824W        W17898   3.573   1.759   5.269 -0.0253 -0.1026  0.3441
 1825W        W17899  10.886   2.768   4.342  0.0369  0.1878  0.2237
 1826W        W17900  11.193   7.166   3.626  0.0561 -0.0552 -0.1953
 1827W        W17901  13.587  16.290  15.964  0.1394 -0.1414 -0.1996
 1828W        W17902   5.135   2.821  12.516 -0.1903  0.1032  0.0129
 1829W        W17903   2.803  15.489  16.196  0.1031  0.2990 -0.0797
 1830W        W17904  15.626   4.583  15.488  0.0892 -0.0673 -0.1356
 1831W        W17905   5.174   3.211   1.108  0.0690  0.1897 -0.0435
 1832W        W17906   9.730  10.210  11.783 -0.0724 -0.0563  0.0283
 1833W        W17907   1.439  12.901   5.249  0.0352  0.0020 -0.1477
 1834W        W17908  17.527  14.798  16.148  0.0859  0.0759  0.1558
 1835W        W17909   0.719  15.349   2.447  0.1426  0.2410  0.0181
 1836W        W17910  11.054  15.261   0.215  0.2819 -0.1552 -0.2052
 1837W        W17911  18.111  11.831   5.331  0.3657 -0.1657  0.0088
 1838W        W17912   5.128   5.170   4.903  0.0981  0.1389  0.1324
 1839W        W17913   7.738  16.470  12.497 -0.0121 -0.1815  0.2187
 1840W        W17914   1.968   4.292   3.158  0.1505  0.0966 -0.0887
 1841W        W17915   6.444  15.937   4.014  0.0997  0.2526  0.2291
 1842W        W17916   9.735  17.216   0.282 -0.0776  0.1831 -0.0390
 1843W        W17917   5.498  12.486  11.304  0.0082 -0.0082  0.2605
 1844W        W17918   1.490  15.309   0.145 -0.0044  0.1886 -0.0550
 1845W        W17919   5.270   2.930   0.717 -0.1215 -0.3291  0.6848
 1846W        W17920   9.822  10.869  13.968  0.0448  0.0283  0.0960
 1847W        W17921  14.394   2.676   0.210 -0.2206 -0.1085  0.1726
 1848W        W17922   7.251   4.970   0.974  0.1681  0.0661  0.1516
 1849W        W17923  10.553  15.203   5.145  0.0160 -0.0904 -0.0108
 1850W        W17924  16.027   5.678   3.875  0.1335 -0.2692 -0.1558
 1851W        W17925  14.043   8.712  12.572 -0.0294  0.2004 -0.4390
 1852W        W17926  16.534   6.113  14.994 -0.1014 -0.1251  0.2285
 1853W        W17927   8.100  12.211  14.233  0.0248 -0.2807 -0.1478
 1854W        W17928   0.576   4.138   1.587 -0.1077 -0.1463  0.0255
 1855W        W17929   9.463   7.226   0.463  0.1892 -0.3956 -0.2404
 1856W        W17930   4.723   7.916   2.368 -0.1429 -0.1341  0.0997
 1857W        W17931   9.899   4.349  13.495  0.0713 -0.5900  0.0322
 1858W        W17932  15.495  17.331  13.357 -0.1614  0.3807 -0.0564
 1859W        W17933  12.556   0.571   5.543  0.0597  0.1463  0.1918
 1860W        W17934  16.589   7.492   0.534  0.0654  0.2630  0.2860
 1861W        W17935   0.540  15.925   2.120  0.1172  0.3488  0.0020
 1862W        W17936   2.266   8.402  15.303 -0.1392  0.1166  0.2114
 1863W        W17937  12.916  17.794   1.949 -0.1721  0.1613 -0.2821
 1864W        W17938   2.114   1.290   2.758  0.0915 -0.1809 -0.0917
 1865W        W17939  13.837   3.443   4.813 -0.0505  0.0273  0.0646
 1866W        W17940  14.359  12.359  13.194  0.0440  0.1068  0.1077
 1867W        W17941  16.272   2.506  11.499 -0.1272 -0.1803  0.4957
 1868W        W17942  17.118   0.090  12.287 -0.2182  0.1002  0.0671
 1869W        W17943   7.736   6.940   2.522 -0.1520  0.0723 -0.0649
 1870W        W17944  16.332  15.682   0.940  0.2355  0.3131  0.0455
 1871W        W17945  17.876   4.107   3.506  0.2686  0.0368  0.2753
 1872W        W17946   3.091   6.503   2.297 -0.2513  0.2439  0.3688
 1873W        W17947  14.922   4.299  15.887 -0.2051 -0.0565 -0.0370
 1874W        W17948  11.479  11.527   4.887  0.1111 -0.3130  0.2146
 1875W        W17949  16.660   4.254  13.369 -0.0692 -0.1008 -0.0300
 1876W        W17950   4.922   7.808   1.867 -0.0490  0.2371 -0.3027
 1877W        W17951  17.692  17.104   3.317 -0.1518 -0.0947 -0.2198
 1878W        W17952  10.728  15.732   1.431  0.3653  0.1034 -0.1231
 1879W        W17953   3.226   8.159  12.419 -0.1408  0.1161  0.4517
 1880W        W17954  15.489   3.962  11.862  0.0204 -0.2164 -0.0032
 1881W        W17955  15.990  10.428  11.915 -0.3868  0.1508  0.2362
 1882W        W17956   8.579   8.952  14.380 -0.1860 -0.1380 -0.0050
 1883W        W17957  14.610  13.019   4.857  0.1289  0.5474 -0.0400
 1884W        W17958  10.650   0.090  12.992  0.2000  0.2565  0.2201
 1885W        W17959  11.657  16.680   5.756 -0.1194 -0.3823  0.1647
 1886W        W17960   3.932   2.805   1.681 -0.1612  0.1052 -0.2792
 1887W        W17961   7.377  17.331  12.252 -0.1605  0.0785  0.3998
 1888W        W17962   8.015   3.088  15.092  0.0199 -0.2868  0.0246
 1889W        W17963   3.349  13.567   4.286 -0.0633 -0.0514 -0.0451
 1890W        W17964  15.146  17.156   1.472  0.0416 -0.1594  0.0764
 1891W        W17965   1.884   5.095  14.642 -0.0815  0.0831 -0.0108
 1892W        W17966  14.937  15.048   1.912 -0.0927 -0.1205 -0.2340
 1893W        W17967   2.645   6.984  12.863 -0.0615  0.2118 -0.1990
 1894W        W17968   4.508   3.933  16.008  0.1661  0.4070  0.0345
 1895W        W17969  13.910  14.288   4.920 -0.2286  0.3558 -0.0699
 1896W        W17970  13.323  11.272   1.059 -0.2500  0.1966  0.0182
 1897W        W17971  16.590  13.296  15.346  0.1692 -0.3377  0.1382
 1898W        W17972   9.173   7.503  16.083 -0.1849  0.0328  0.2045
 1899W        W17973  15.704   8.939  15.038 -0.3199 -0.2564 -0.2459
 1900W        W17974   5.481  15.219   2.522  0.2486  0.3260 -0.0424
 1901W        W17975  14.668   1.371   0.863 -0.0246 -0.0158 -0.1584
 1902W        W17976  18.193  16.141   3.387  0.1497  0.1004  0.1335
 1903W        W17977  11.762   8.028  11.985 -0.3084 -0.0051  0.2278
 1904W        W17978  15.708   5.508   0.707  0.2514  0.2887 -0.3312
 1905W        W17979  16.545  17.097  11.333  0.1703  0.0491  0.1993
 1906W        W17980   1.552   3.555  15.943 -0.2474  0.3469  0.2321
 1907W        W17981  13.980   7.155  10.828 -0.2743 -0.0771  0.1259
 1908W        W17982   3.203   2.935   4.521 -0.0095  0.2483  0.1277
 1909W        W17983   1.327   5.704   6.060 -0.1445 -0.1617  0.1782
 1910W        W17984  13.458  16.284   0.997 -0.0730  0.0520 -0.3407
 1911W        W17985   8.500  16.022  15.044 -0.2110  0.0430 -0.3781
 1912W        W17986   2.335  14.802   4.845 -0.1505  0.0113  0.0341
 1913W        W17987   7.980   3.635  13.433 -0.0650 -0.0758  0.3013
 1914W        W17988   1.690   1.790  15.965  0.1175  0.3296 -0.5000
 1915W        W17989  16.813   0.262   0.244 -0.2376 -0.3195 -0.1275
 1916W        W17990   2.767   3.145   3.605 -0.1213 -0.3762 -0.4093
 1917W        W17991  12.970   8.420   1.427 -0.0938 -0.0336 -0.0931
 1918W        W17992  15.123   3.946   1.706  0.0271  0.2532 -0.0974
 1919W        W17993   3.063   9.726   1.619  0.1941  0.0905 -0.0345
 1920W        W17994   5.716   3.441   2.085  0.2400 -0.2558 -0.2322
 1921W        W17995  17.509  11.728   4.023 -0.1609  0.2971 -0.0453
 1922W        W17996  10.493  11.329   4.126 -0.0676 -0.3540  0.0343
 1923W        W17997  15.188   7.050  16.302  0.1418  0.3213 -0.2466
 1924W        W17998   0.035   7.551   0.225 -0.1111  0.1070  0.2953
 1925W        W17999   0.409  13.951  13.977  0.0559 -0.1557 -0.0759
 1926W        W18000   7.674  13.608  12.120 -0.1360  0.2115 -0.0027
 1927W        W18001   0.288  10.736   1.787 -0.0736 -0.0021  0.0737
 1928W        W18002  10.465  14.386   1.181  0.1570  0.0171  0.0829
 1929W        W18003   3.997  14.669   1.362  0.3470 -0.0667  0.4257
 1930W        W18004   8.020   9.274   1.964  0.3803  0.0332 -0.1842
 1931W        W18005  10.863   7.199  15.495  0.1202 -0.1450 -0.0510
 1932W        W18006   9.634   1.598   2.254 -0.2544  0.0754  0.1416
 1933W        W18007   3.565   8.258  14.340 -0.4916 -0.0085  0.2394
 1934W        W18008  16.195   4.694   4.499  0.1255  0.0258 -0.0984
 1935W        W18009   3.364  15.633  14.607  0.0304 -0.1217  0.0706
 1936W        W18010  13.582   7.286   3.484 -0.2393  0.1297 -0.1221
 1937W        W18011   3.527  12.680   3.264  0.1793 -0.2303  0.2783
 1938W        W18012   5.592   7.046  10.375  0.2304  0.2470 -0.0392
 1939W        W18013   4.802  10.703  15.742 -0.1185  0.0816 -0.1014
 1940W        W18014  10.373  17.976   1.736  0.2250  0.3980 -0.1017
 1941W        W18015   7.629  13.507   1.072  0.2062 -0.1021 -0.1233
 1942W        W18016   5.377   7.471   2.025  0.1848 -0.2538 -0.0676
 1943W        W18017  11.649   8.887  14.311  0.0873  0.1441  0.0415
 1944W        W18018  17.261   7.372  13.133  0.3517  0.1396  0.0715
 1945W        W18019   4.184   9.203   4.092 -0.4780 -0.2635  0.0124
 1946W        W18020   2.538   0.695  14.962  0.1428 -0.1515  0.2730
 1947W        W18021   2.057   4.487  15.262  0.2279  0.2272  0.1109
 1948W        W18022  12.221   2.145  12.691 -0.1088 -0.0189  0.0358
 1949W        W18023  12.363  12.017   4.634  0.1145 -0.1240 -0.1121
 1950W        W18024  16.462  17.132  14.662  0.3269 -0.3553 -0.3490
 1951W        W18025   0.594  11.125   4.960 -0.0465  0.2971 -0.2084
 1952W        W18026  10.696   7.205   0.046  0.0722  0.0081  0.1113
 1953W        W18027  17.639   7.309  10.725 -0.2210 -0.3214 -0.1576
 1954W        W18028  15.833  15.038  11.766 -0.0714  0.0036 -0.0697
 1955W        W18029  14.487  13.074   5.351  0.1101  0.1429  0.1000
 1956W        W18030   4.608  15.620   2.731 -0.1856  0.1510  0.0938
 1957W        W18031   7.864   4.800  14.974 -0.3698 -0.1984 -0.0781
 1958W        W18032   4.981  10.190   2.081  0.0337  0.2359 -0.0903
 1959W        W18033  17.847  13.730  13.433 -0.1387  0.1184  0.3519
 1960W        W18034  11.408  17.415  16.210  0.1155 -0.0233 -0.1702
 1961W        W18035  10.015  14.115  13.731 -0.0285  0.3999 -0.0240
 1962W        W18036   5.093  12.376  12.113  0.1104 -0.1875  0.0939
 1963W        W18037   9.058   8.140   0.830 -0.0428  0.0750  0.3510
 1964W        W18038  10.075   2.592   5.454 -0.1355  0.0052 -0.5701
 1965W        W18039  16.348  10.723   1.531  0.2157 -0.3553  0.4615
 1966W        W18040  15.327  15.998   0.801  0.1350  0.1485 -0.0666
 1967W        W18041   7.010  15.390   5.007 -0.1860 -0.1251 -0.4405
 1968W        W18042   0.135  13.854   3.258 -0.3359 -0.0961 -0.0415
 1969W        W18043  11.458   6.529  15.039  0.2641  0.1527 -0.2001
 1970W        W18044   9.311   7.733  13.722 -0.0065  0.2794  0.2554
 1971W        W18045   2.487  16.036  16.021 -0.1461 -0.2698 -0.0138
 1972W        W18046   2.697   5.798  13.158 -0.0266  0.0898 -0.0425
 1973W        W18047  11.356  17.622   4.578  0.3026  0.3076 -0.1259
 1974W        W18048   5.965   4.383   4.914  0.2101  0.3041  0.3205
 1975W        W18049   5.042  18.066  12.581 -0.1517  0.2929 -0.0896
 1976W        W18050   3.674   8.284  11.737 -0.2258 -0.2296 -0.0487
 1977W        W18051  11.218   5.126  12.092  0.0099 -0.0916  0.0068
 1978W        W18052  10.207  12.060  12.773 -0.2248 -0.0099  0.2791
 1979W        W18053  15.292   1.751  11.651 -0.0481  0.4152 -0.1131
 1980W        W18054  12.234   3.241   4.225 -0.3709 -0.3859  0.1566
 1981W        W18055  17.703  17.703   1.110  0.0868 -0.2559 -0.2447
 1982W        W18056   2.798   0.250  15.009 -0.3349  0.0945  0.2189
 1983W        W18057   0.414   2.660   2.675 -0.1971  0.0878 -0.1498
 1984W        W18058   6.208   5.472  16.475 -0.1268 -0.2943 -0.1923
 1985W        W18059  14.844  17.334   0.231  0.0378 -0.1541  0.1704
 1986W        W18060   9.481   3.470  13.083 -0.3024  0.1361 -0.0857
 1987W        W18061   1.605  11.480  14.983 -0.1086  0.1200  0.0687
 1988W        W18062  12.646   1.854   4.845  0.0650  0.0403 -0.0647
 1989W        W18063  15.762  10.667   3.143 -0.3520 -0.0900 -0.1251
 1990W        W18064   7.311  14.065  11.682  0.1734  0.3922 -0.0636
 1991W        W18065   5.405  15.950  15.317 -0.1042 -0.0987  0.0855
 1992W        W18066   3.509  14.760  13.181 -0.1404 -0.0639 -0.0930
 1993W        W18067   3.317  16.182  16.485 -0.0327 -0.0909 -0.1313
 1994W        W18068  13.230   0.027   4.958  0.0604 -0.1689 -0.1186
 1995W        W18069  17.689  14.934   0.911 -0.2249  0.3477 -0.3459
 1996W        W18070  12.227   8.768   2.371 -0.0778  0.0895 -0.1076
 1997W        W18071  14.811   5.754   2.548  0.1143 -0.1641  0.0635
 1998W        W18072  13.695   6.472   3.557 -0.0206  0.1431  0.1137
 1999W        W18073  10.436  11.307  14.712  0.1885 -0.1013 -0.0066
 2000W        W18074  18.120   6.410  11.983  0.0369 -0.2076 -0.0083
 2001W        W18075   3.186  16.821  14.646  0.0661 -0.2717  0.0840
 2002W        W18076   0.272   5.635   4.097  0.0528 -0.1895 -0.0451
 2003W        W18077   1.261   7.340   0.982  0.2345 -0.0067  0.0579
 2004W        W18078   3.642  16.907  15.935 -0.4058  0.0278  0.0139
 2005W        W18079   3.164  18.154  16.139  0.0402  0.2380 -0.0921
 2006W        W18080  11.291   1.004   2.581 -0.2566  0.0466  0.0878
 2007W        W18081   4.005  16.366   0.664  0.1040 -0.2414  0.0867
 2008W        W18082   0.540  14.640   4.694 -0.1286 -0.1507  0.1771
 2009W        W18083  11.455   0.529   3.346  0.2613  0.1562  0.0706
 2010W        W18084   9.497   2.554   3.539  0.0727  0.1101 -0.0466
 2011W        W18085   1.062   8.965  14.658  0.1738 -0.2531  0.2322
 2012W        W18086  13.466   2.416  15.175  0.2586 -0.1342 -0.1818
 2013W        W18087  10.585  16.056  15.484  0.0145  0.0619  0.2545
 2014W        W18088  14.533   4.714  13.133  0.3075 -0.1831 -0.1048
 2015W        W18089  14.868  16.005  16.316  0.0703 -0.3208 -0.0420
 2016W        W18090   1.238  12.368   1.384 -0.0168  0.1121  0.1820
 2017W        W18091  13.811  16.400  14.317 -0.3452  0.0479 -0.0817
 2018W        W18092   9.708  17.713   5.651  0.1442 -0.2600  0.0927
 2019W        W18093  13.127   9.022  12.280 -0.2320 -0.0813 -0.1446
 2020W        W18094   4.387   1.832   1.674  0.4810  0.3418  0.2100
 2021W        W18095   4.888   4.644  13.655 -0.0031  0.4504 -0.1041
 2022W        W18096   2.993  11.254  11.140 -0.3738 -0.3798  0.0909
 2023W        W18097  16.570  11.849  16.472 -0.1623  0.1227 -0.0922
 2024W        W18098   6.152   6.316   5.097  0.0158  0.0407  0.0797
 2025W        W18099  10.267   3.330   1.727  0.2615  0.1306 -0.0753
 2026W        W18100   8.917  14.941   0.205 -0.1181  0.2180 -0.0009
 2027W        W18101  10.734  10.184   4.981 -0.0267 -0.0253  0.2672
 2028W        W18102  16.396  17.999   3.714  0.1940  0.1852  0.3034
 2029W        W18103  16.085   9.262  14.891 -0.0603  0.2263 -0.1135
 2030W        W18104   1.844   2.885  11.472 -0.3510  0.0868 -0.0762
 2031W        W18105  13.066   8.458  15.340  0.1290 -0.1630  0.0495
 2032W        W18106   7.237  10.001  16.168 -0.0395  0.5440 -0.3739
 2033W        W18107   3.861   8.827   1.912 -0.0619  0.0012 -0.2194
 2034W        W18108   2.937   9.746  12.738  0.3015 -0.2849  0.1601
 2035W        W18109   4.068   3.517   0.862 -0.1099  0.0141 -0.1754
 2036W        W18110   4.609  16.216   2.494  0.0816  0.2170  0.1838
 2037W        W18111   1.074   3.767  14.679  0.0903 -0.2015 -0.0230
 2038W        W18112  10.577   8.173   1.619  0.1219  0.0313  0.0204
 2039W        W18113  15.190  11.683   4.882 -0.1000  0.1558 -0.0368
 2040W        W18114   7.830   5.772  16.392  0.2580 -0.0002  0.3210
 2041W        W18115  15.474  11.307  13.270 -0.1602 -0.2700  0.4091
 2042W        W18116   3.007   0.481  13.307 -0.0099  0.1445 -0.2795
 2043W        W18117   3.152  10.940  16.425 -0.0214 -0.3419 -0.1544
 2044W        W18118   0.962   2.857   4.071 -0.0150 -0.0404  0.1006
 2045W        W18119  15.066   6.012  14.916 -0.0502 -0.0941 -0.0571
 2046W        W18120   8.559  17.952   3.625  0.1785 -0.0539  0.5107
 2047W        W18121   9.907   3.422   5.671  0.0262  0.0329  0.0638
 2048W        W18122   5.365   8.895   2.397 -0.0808 -0.1252  0.4262
 2049W        W18123   3.433  12.938   0.071 -0.1114  0.3215 -0.0223
 2050W        W18124  17.917   7.277   3.753  0.1191 -0.0457  0.0268
 2051W        W18125  15.799   9.887  10.690 -0.0702  0.1140  0.3285
 2052W        W18126   3.663  15.288  14.415  0.1215  0.1946 -0.0847
 2053W        W18127  15.969  15.819   2.173 -0.0239  0.1359  0.0283
 2054W        W18128   6.465   6.471  13.664 -0.1687  0.3535  0.0543
 2055W        W18129   4.142   7.407  11.977  0.3542  0.2604 -0.0107
 2056W        W18130  11.915   7.640  14.940  0.2420  0.1892  0.0831
 2057W        W18131   8.605   7.413   1.050 -0.2121  0.2845 -0.0427
 2058W        W18132  15.831   3.083  14.489 -0.0030  0.1981 -0.1066
 2059W        W18133  17.569   1.576  15.384  0.3224  0.0122  0.1632
 2060W        W18134  11.168   9.318   1.371 -0.0559  0.2524  0.1717
 2061W        W18135   7.637  16.296   0.493 -0.1755  0.3033  0.0067
 2062W        W18136   5.529   7.916   4.774  0.1965  0.1718  0.0799
 2063W        W18137  14.647   0.015   3.673 -0.0822  0.0419  0.0590
 2064W        W18138  16.725  12.254   2.584 -0.0305 -0.0719  0.2227
 2065W        W18139  12.914   1.747   3.444 -0.0941  0.0803  0.0237
 2066W        W18140   7.177  16.447   1.745 -0.0153 -0.0513  0.0092
 2067W        W18141  17.978   3.302  14.282  0.3029  0.3921  0.1126
 2068W        W18142   9.903   2.543   3.141 -0.1376  0.0396 -0.2063
 2069W        W18143  11.270  14.865   1.093  0.3967 -0.3046 -0.4133
 2070W        W18144   0.610   5.578   1.108  0.1536  0.1368 -0.0920
 2071W        W18145   2.076   2.356  10.888  0.1890 -0.2697  0.0390
 2072W        W18146   5.295  11.760  15.485  0.1293  0.2905 -0.1438
 2073W        W18147   5.753   8.813  16.046  0.2104 -0.2438  0.0703
 2074W        W18148   2.172   2.994  10.633 -0.0616  0.0260 -0.3703
 2075W        W18149   6.613   2.010  13.306  0.3044  0.1905 -0.2462
 2076W        W18150   7.213  14.985   3.457  0.1512  0.1551  0.1922
 2077W        W18151   4.053   5.550   0.697 -0.0181 -0.0761  0.1212
 2078W        W18152   3.978   7.939  16.440 -0.1175 -0.2435  0.0239
 2079W        W18153   0.504   9.986  11.985  0.0311  0.1333  0.1820
 2080W        W18154   4.249   0.856  12.177  0.2880 -0.2302  0.1411
 2081W        W18155  15.981  10.107   5.345 -0.1119 -0.0429  0.2017
 2082W        W18156   7.716   7.984   4.090 -0.0566  0.0996  0.1406
 2083W        W18157  15.882   8.887   2.770 -0.1918  0.0954 -0.2229
 2084W        W18158   8.648   4.758  16.226  0.2095 -0.1704  0.2207
 2085W        W18159  13.371  13.584  11.924 -0.0750  0.2535  0.0811
 2086W        W18160  12.607   5.044   4.058  0.2066 -0.1289  0.0888
 2087W        W18161  12.592  16.179  13.447  0.0461  0.3221 -0.1884
 2088W        W18162   0.161  14.394  13.534  0.2294  0.1324  0.1721
 2089W        W18163   3.240  17.628   3.586 -0.0301  0.1112  0.2143
 2090W        W18164  16.549   0.206   6.047  0.1705 -0.1939  0.0128
 2091W        W18165   2.196   3.622  15.896  0.2009 -0.2578  0.0918
 2092W        W18166   2.287   6.101   2.245  0.4225  0.3077  0.0384
 2093W        W18167   6.321   4.978  12.333 -0.1770 -0.3314  0.4995
 2094W        W18168  16.850  15.486  12.158 -0.0523  0.0689 -0.2657
 2095W        W18169   4.341  10.278  14.139 -0.3837 -0.1924 -0.1566
 2096W        W18170   3.129   3.393   1.007  0.1293  0.2634 -0.2675
 2097W        W18171   0.170   9.966  12.582  0.3665 -0.0898 -0.0682
 2098W        W18172  13.009  16.337  13.189  0.1513 -0.2017 -0.1245
 2099W        W18173  15.972  17.591  14.035 -0.0839  0.2302 -0.1113
 2100W        W18174  14.532  11.418  15.690 -0.1015 -0.0055 -0.0221
 2101W        W18175   1.660   8.574   3.717  0.1686  0.3364 -0.0893
 2102W        W18176  11.500  10.793   5.411 -0.1691  0.2294 -0.0723
 2103W        W18177   4.634  17.092  13.368  0.2045 -0.2641  0.1455
 2104W        W18178  13.877   3.973  15.646  0.0014  0.0644  0.0818
 2105W        W18179  16.530   9.702   5.200  0.2911 -0.1388 -0.1939
 2106W        W18180  15.443  10.541  13.858 -0.2126  0.1332 -0.1848
 2107W        W18181  11.135   6.672   3.813  0.0631 -0.2020  0.2100
 2108W        W18182   6.993   9.242  12.922 -0.2805 -0.0664 -0.1501
 2109W        W18183   0.668  12.164   2.185 -0.4186  0.2168  0.0477
 2110W        W18184   3.504   9.105  15.992  0.2809  0.2197 -0.1762
 2111W        W18185   2.626  15.434   2.466 -0.0849 -0.1660 -0.2493
 2112W        W18186  18.031   6.214  13.819 -0.1687 -0.0280  0.0068
 2113W        W18187   2.920  12.909  13.276  0.0623 -0.0409  0.2160
 2114W        W18188   8.553  16.238  12.118 -0.1311 -0.1040  0.2661
 2115W        W18189  12.933   9.907  11.219  0.0391 -0.1520 -0.2003
 2116W        W18190  13.366   7.780  12.891  0.2104  0.0969 -0.2453
 2117W        W18191   4.381  10.763  10.153  0.0892 -0.3163 -0.2235
 2118W        W18192   6.972   7.672   2.895  0.0033 -0.1054 -0.0034
 2119W        W18193  15.372  14.284   5.112 -0.5524  0.0084  0.0710
 2120W        W18194   8.685  13.080  15.303  0.1611  0.3566 -0.0873
 2121W        W18195  14.775   5.870  12.350  0.0411 -0.0915  0.0340
 2122W        W18196   0.321   4.000  11.213  0.0628  0.0584  0.0188
 2123W        W18197   3.173  12.382  13.399 -0.2249  0.0214  0.4305
 2124W        W18198   9.999  13.169   1.835  0.0072 -0.1828  0.2929
 2125W        W18199   5.487  11.839   6.153  0.2492 -0.2110  0.0539
 2126W        W18200  13.549  14.082   4.046  0.0425  0.0139  0.0791
 2127W        W18201  16.750  14.044  12.680  0.0565  0.0137  0.6356
 2128W        W18202  12.961   1.411  13.000  0.0059 -0.2053  0.0263
 2129W        W18203   8.959  11.159  13.118 -0.1831 -0.3253 -0.2052
 2130W        W18204  11.795   1.903   2.492  0.1401 -0.0859 -0.1151
 2131W        W18205   0.095  15.571   4.085  0.2048  0.2996 -0.0152
 2132W        W18206   5.483  11.190  11.185  0.1176 -0.0837 -0.1384
 2133W        W18207  11.053   5.973   2.109 -0.0665 -0.0937  0.0187
 2134W        W18208  16.201   6.963   4.287  0.0956  0.0027 -0.2091
 2135W        W18209  16.168  13.062   4.229  0.2100  0.4164 -0.1129
 2136W        W18210  15.290   0.417   4.657  0.1049  0.2049 -0.1251
 2137W        W18211  16.543  11.189  13.141  0.2411 -0.0226 -0.0709
 2138W        W18212   5.579   7.711  13.627 -0.2984  0.2081  0.2146
 2139W        W18213   8.494   6.081   2.456 -0.0693  0.2180 -0.1417
 2140W        W18214  15.133   2.669   4.341  0.2463 -0.0094 -0.2020
 2141W        W18215  14.030   6.156  12.825 -0.1574  0.3071  0.1967
 2142W        W18216  12.298  15.035   3.343  0.0113  0.2126  0.2252
 2143W        W18217  17.113  11.840   4.313 -0.2148  0.4215 -0.3049
 2144W        W18218  16.343  11.235  13.630  0.0623 -0.0535  0.1320
 2145W        W18219   9.786  11.315  15.219  0.0878  0.0629 -0.0862
 2146W        W18220  15.964  14.549  12.285  0.0493 -0.1463 -0.2709
 2147W        W18221  12.876   3.915  15.765 -0.1383  0.2758 -0.0863
 2148W        W18222   0.741  14.958   2.149 -0.0582 -0.1374 -0.1958
 2149W        W18223  11.970  16.850  14.921 -0.4573 -0.0673  0.1588
 2150W        W18224  11.272   1.498  15.860  0.0753 -0.4601 -0.2529
 2151W        W18225  17.008  16.365   0.898  0.5465  0.3123 -0.3050
 2152W        W18226  12.709  14.732  12.498  0.1611 -0.2618 -0.0611
 2153W        W18227  15.500  15.901  12.373  0.0688 -0.1246 -0.0541
 2154W        W18228   3.309  16.909   3.129  0.0293  0.4167  0.2489
 2155W        W18229   9.868   6.168   1.324  0.2556  0.1507  0.0977
 2156W        W18230   8.383   4.280  12.007  0.0830  0.0856  0.5882
 2157W        W18231   2.667   9.511   3.311 -0.0304 -0.1566 -0.0816
 2158W        W18232  15.457  13.283   1.006 -0.0813  0.3588 -0.1738
 2159W        W18233   8.936   3.453   1.065  0.1753 -0.1501 -0.2063
 2160W        W18234   7.022   4.995  15.361 -0.0252  0.0812 -0.2237
 2161W        W18235   9.038  16.040  14.766  0.0289 -0.1369 -0.0099
 2162W        W18236  15.934   9.760  14.382  0.2779 -0.2063  0.0838
 2163W        W18237  15.972  11.044  16.168  0.0728 -0.3321 -0.0466
 2164W        W18238   3.155  14.517  14.746  0.2722  0.1232  0.0394
 2165W        W18239  18.091  14.041  12.147  0.2170 -0.0874  0.2548
 2166W        W18240  17.485  11.806  13.088 -0.1195  0.0051 -0.1241
 2167W        W18241   7.461   4.668  13.291 -0.0649 -0.3251  0.1111
 2168W        W18242   5.283  14.495  15.807  0.1565 -0.2642 -0.2626
 2169W        W18243   5.542   6.495  13.818  0.1666 -0.2812 -0.2921
 2170W        W18244   6.887   8.304  12.941  0.1112 -0.0610  0.0784
 2171W        W18245  11.077   5.063  15.490  0.1808 -0.0038  0.1081
 2172W        W18246   9.463   2.754   0.679 -0.1953 -0.3495 -0.2175
 2173W        W18247  13.786  14.539  10.413  0.1015  0.1546  0.0376
 2174W        W18248  11.104   7.214  12.200 -0.1102  0.0552  0.3288
 2175W        W18249  14.814   9.560   4.250  0.1857 -0.1531  0.2453
 2176W        W18250  12.232  13.526   3.054  0.1898 -0.2027  0.1681
 2177W        W18251   0.769   0.811  16.442 -0.0490 -0.1820 -0.1858
 2178W        W18252  16.091  13.030   3.704  0.1883 -0.0879 -0.3957
 2179W        W18253   4.756   6.918  14.259  0.3743 -0.2207 -0.0112
 2180W        W18254   6.286   3.996  12.372 -0.3447  0.0403 -0.1438
 2181W        W18255   9.247   8.497   2.510  0.1167  0.4301  0.1520
 2182W        W18256  15.283  14.437  14.613 -0.1167 -0.1509 -0.2290
 2183W        W18257   4.096   3.196   4.807 -0.0317 -0.4003  0.2866
 2184W        W18258   8.796  16.193  14.315 -0.0173  0.0832 -0.2969
 2185W        W18259   5.272  14.076   3.722  0.1868 -0.2265  0.2080
 2186W        W18260   7.216   3.669  11.955 -0.3751  0.0700  0.1247
 2187W        W18261  15.298   8.168  15.422 -0.0043 -0.0289 -0.0972
 2188W        W18262  14.511   6.724   0.175 -0.0570  0.0762 -0.0290
 2189W        W18263   8.678  10.217  15.970 -0.1107  0.3543  0.1315
 2190W        W18264   9.879  18.095   6.396 -0.0255  0.1353 -0.1222
 2191W        W18265   5.682   8.913   2.027  0.2188  0.0435 -0.0817
 2192W        W18266  15.260  17.635  10.499 -0.0353 -0.0216  0.2163
 2193W        W18267   2.286   5.098  11.496 -0.1790  0.0709 -0.1330
 2194W        W18268   5.227   7.743  11.351 -0.1264  0.0135  0.1360
 2195W        W18269  17.635   2.695   4.325 -0.1561 -0.1329 -0.2317
 2196W        W18270  12.773   9.445  11.391  0.0456  0.0635 -0.2624
 2197W        W18271   2.578   6.278   4.180  0.1992  0.1688  0.0235
 2198W        W18272  13.243  12.061   5.824  0.4366 -0.1172 -0.1655
 2199W        W18273  10.736  13.691  11.786  0.2550  0.3459 -0.3048
 2200W        W18274  15.609   7.804   4.908 -0.1979  0.2406  0.1617
 2201W        W18275  13.750   4.558  13.991 -0.2660  0.4342 -0.1166
 2202W        W18276  16.736  12.522   3.339 -0.0459 -0.2995  0.0399
 2203W        W18277  15.373   9.748  14.411 -0.0573 -0.1677 -0.1390
 2204W        W18278  15.886  12.728  14.759  0.4208  0.0598  0.1766
 2205W        W18279   8.687   6.180  15.254  0.1157 -0.0335 -0.0469
 2206W        W18280  13.710   0.007   4.235 -0.0179  0.0031  0.1004
 2207W        W18281  15.973   9.534  11.947  0.1613 -0.0721 -0.2028
 2208W        W18282   4.269   1.108  15.475 -0.0358  0.2369  0.1774
 2209W        W18283  17.031  11.473   3.971 -0.1312 -0.0315  0.2108
 2210W        W18284   5.314  13.456   4.376  0.2956 -0.1566  0.0851
 2211W        W18285   0.727   8.285   4.741 -0.0835 -0.2082 -0.0432
 2212W        W18286   7.406   9.744   2.239 -0.0347 -0.3779  0.1558
 2213W        W18287   6.809   7.463   0.386 -0.1071 -0.1039  0.1551
 2214W        W18288   2.972   3.674   0.579  0.0889  0.0897 -0.1190
 2215W        W18289   3.519   9.516   1.115  0.1177 -0.0896  0.1513
 2216W        W18290   8.535   3.786   1.066 -0.0753 -0.1644  0.4452
 2217W        W18291  14.406   5.047  13.450 -0.0092  0.1187  0.1191
 2218W        W18292  14.953   8.213  11.198  0.0232  0.0275 -0.2862
 2219W        W18293   8.692   1.558   0.314  0.1301 -0.2373 -0.1017
 2220W        W18294   0.040  10.800  11.409  0.2463  0.3811  0.1788
 2221W        W18295   6.492  15.062   3.977  0.1373  0.0931 -0.0316
 2222W        W18296  12.840  15.311  13.168  0.1078  0.1681  0.0893
 2223W        W18297   9.587  17.214  16.001  0.1517  0.1301  0.2979
 2224W        W18298   2.919  13.455  11.222  0.2943  0.1401  0.3426
 2225W        W18299  13.049   0.587  11.658 -0.0484 -0.4045 -0.1689
 2226W        W18300   4.272  10.878  15.696  0.0725 -0.0078  0.1239
 2227W        W18301  15.178   6.650   1.879 -0.4711 -0.1695  0.1056
 2228W        W18302  10.530  14.912   2.080  0.1883  0.0355 -0.0500
 2229W        W18303   2.298   8.392   2.932 -0.2420 -0.0830  0.2980
 2230W        W18304   4.701  15.817   5.835 -0.0285  0.1057  0.3403
 2231W        W18305  12.186  17.007   5.095 -0.1774 -0.3973 -0.3599
 2232W        W18306   1.832   9.608   0.296 -0.0201  0.1037  0.1399
 2233W        W18307  14.784   7.042  14.339 -0.2060 -0.2719  0.2177
 2234W        W18308   4.199   1.038   0.723  0.1074  0.2042 -0.1292
 2235W        W18309  17.330  11.489  14.462 -0.1084  0.0181  0.1709
 2236W        W18310  14.504  10.680  15.575 -0.1414 -0.1625  0.1137
 2237W        W18311   6.030  11.589  15.021  0.1851  0.0871 -0.0456
 2238W        W18312   9.546  14.198   5.569  0.3902 -0.2875  0.0522
 2239W        W18313   6.247  13.001   1.726 -0.3406  0.5019  0.0894
 2240W        W18314  11.529   2.550   5.969 -0.1738 -0.3769 -0.1144
 2241W        W18315   8.209   7.778   2.124  0.1373 -0.0674 -0.1332
 2242W        W18316  15.364  11.538  14.293  0.2451  0.1513 -0.0485
 2243W        W18317   7.189  12.656  11.687  0.0558  0.0736  0.0258
 2244W        W18318  15.274   2.678  16.352  0.3424  0.0504 -0.0282
 2245W        W18319  12.499   8.025  12.975  0.1223 -0.2151  0.0033
 2246W        W18320  12.850   1.628   0.387 -0.0357 -0.0191  0.1741
 2247W        W18321  11.237  13.771   0.364 -0.3054 -0.1677 -0.0631
 2248W        W18322  12.752   2.673  16.230  0.2721  0.3993  0.1514
 2249W        W18323  12.501   4.488  16.324 -0.0654  0.1017  0.0906
 2250W        W18324   1.760  14.094  12.929 -0.0892  0.0930  0.3881
 2251W        W18325   5.656  17.125   5.707 -0.0759  0.1356  0.2892
 2252W        W18326   7.254  14.189  12.667  0.2418  0.0223 -0.1909
 2253W        W18327  17.865   1.122   5.175  0.3024 -0.1510  0.0901
 2254W        W18328   1.250   6.317  13.507 -0.0224  0.1812  0.1919
 2255W        W18329   9.763  11.763   0.156  0.0862  0.0477  0.2314
 2256W        W18330  16.835  15.554   1.069  0.0197 -0.2055 -0.3317
 2257W        W18331   6.246   3.647   4.616 -0.0561  0.1527 -0.3269
 2258W        W18332   8.383   8.498  14.225  0.1265  0.3200  0.2160
 2259W        W18333  15.318  18.088   4.979  0.1360 -0.0736  0.1849
 2260W        W18334   4.466  17.615  16.435  0.1591 -0.1675  0.1181
 2261W        W18335  15.879  14.675   4.151  0.0278  0.1720 -0.2280
 2262W        W18336  14.899   7.544  16.021  0.0394  0.1640  0.0319
 2263W        W18337   4.774  13.832  15.598  0.1176  0.2946 -0.1656
 2264W        W18338   6.386  17.552  16.424 -0.0131 -0.1290  0.2782
 2265W        W18339  13.170  11.224   3.371 -0.1326  0.1325 -0.0788
 2266W        W18340   9.420  17.502   3.402 -0.3566  0.0634  0.2212
 2267W        W18341  10.980  14.394   2.092  0.2145  0.0388  0.0195
 2268W        W18342  15.433   1.398   3.483 -0.2743  0.0085  0.1220
 2269W        W18343   4.763   2.121  11.717 -0.1630 -0.1570  0.1577
 2270W        W18344  10.620   0.559   3.292 -0.0368 -0.2616  0.1551
 2271W        W18345   2.628   8.041   2.925 -0.2724 -0.4007 -0.1610
 2272W        W18346  11.855   2.828  15.607 -0.1167  0.1294  0.1444
 2273W        W18347   1.107  17.526   5.080  0.0615 -0.0191  0.1520
 2274W        W18348   7.664   4.687  11.697 -0.1214 -0.0228  0.0391
 2275W        W18349   6.210   6.700  15.846 -0.0721  0.1510 -0.3778
 2276W        W18350  12.402   2.956  14.917 -0.1801 -0.1552  0.2439
 2277W        W18351   3.372   2.979   5.920  0.2962  0.2460  0.1230
 2278W        W18352  11.653  16.820   3.635  0.3473 -0.1898 -0.2115
 2279W        W18353  12.004  16.255  14.314  0.2703 -0.1972  0.1817
 2280W        W18354  13.024   3.749  14.497 -0.2511  0.0221  0.1144
 2281W        W18355   0.426   2.415  14.237 -0.0665 -0.2468  0.3163
 2282W        W18356  10.513  16.193  14.879 -0.0841  0.4404  0.2082
 2283W        W18357   0.095   0.925   5.305 -0.1294  0.3514 -0.0698
 2284W        W18358   1.107   0.614   3.979  0.0282  0.0184 -0.2628
 2285W        W18359  17.138  10.938   1.875 -0.2384 -0.2134  0.1743
 2286W        W18360   8.495  13.827   5.244  0.0404  0.1451 -0.2437
 2287W        W18361   3.829   5.047  12.159 -0.0468 -0.1815 -0.0957
 2288W        W18362   5.357   1.936   4.500 -0.0437  0.2467 -0.0274
 2289W        W18363  12.947  12.607   2.360  0.0341 -0.0255  0.3079
 2290W        W18364   9.856   7.153  14.635  0.0015 -0.1041  0.2045
 2291W        W18365  16.058  13.236  14.712  0.1171 -0.1888  0.0156
 2292W        W18366   4.972  11.815   4.677  0.2752  0.1742  0.4011
 2293W        W18367   8.768   7.066   3.122 -0.0219 -0.2805 -0.1726
 2294W        W18368  11.966   9.400   5.022 -0.2402 -0.1386  0.0148
 2295W        W18369  17.516   0.979   4.258  0.0199 -0.2462 -0.0756
 2296W        W18370  16.546  11.631   4.139  0.2015  0.2234 -0.0117
 2297W        W18371   8.096  12.402  12.102  0.0154  0.1664 -0.2189
 2298W        W18372   7.687  14.556  13.414 -0.0357  0.1159 -0.1343
 2299W        W18373  17.542  11.030  15.789  0.3770 -0.3739 -0.0130
 2300W        W18374  11.441   2.366  13.113  0.2236  0.2318  0.2229
 2301W        W18375   4.691  10.991   1.542  0.0016  0.1117  0.1404
 2302W        W18376  11.357   0.765  14.014 -0.0136 -0.0687 -0.2089
 2303W        W18377  16.784  13.589  15.906 -0.2794 -0.0219 -0.0292
 2304W        W18378  15.568   6.886   0.587 -0.0331 -0.2258 -0.1119
 2305W        W18379   0.483   3.368  16.374  0.0783  0.1866 -0.1353
 2306W        W18380   9.526  11.891   2.771 -0.2069  0.2061  0.0809
 2307W        W18381   6.284  12.710   5.019 -0.0207 -0.2307  0.0450
 2308W        W18382  16.819  15.123  14.945  0.0530  0.1614 -0.1636
 2309W        W18383   4.009   4.887  11.595 -0.1247  0.3434  0.2500
 2310W        W18384  17.750  16.697  11.211 -0.1374  0.0635 -0.0479
 2311W        W18385  15.645   4.843  11.752 -0.0550 -0.0514  0.3339
 2312W        W18386   8.063   2.684   0.269 -0.1041 -0.1972  0.2578
 2313W        W18387  17.674  14.191   2.428  0.0402  0.1650  0.3142
 2314W        W18388   1.670   3.486  12.802 -0.2881 -0.0290  0.1890
 2315W        W18389  10.989  10.560  15.169 -0.0697  0.2103  0.1547
 2316W        W18390  13.781   6.448  12.382 -0.0802 -0.1079  0.0886
 2317W        W18391   2.158  16.755  16.463  0.2480  0.1794  0.0774
 2318W        W18392  15.533  15.562   5.577  0.1787  0.5755  0.3113
 2319W        W18393  11.381  10.827   4.360  0.2807 -0.1828 -0.4135
 2320W        W18394  13.917  17.445   2.689  0.3726  0.0984  0.1987
 2321W        W18395   3.261   8.214   2.310 -0.1885 -0.0762 -0.3451
 2322W        W18396   1.280  11.316   4.069 -0.0198 -0.0632  0.0907
 2323W        W18397  17.794  12.809  14.396  0.0604  0.0022  0.0859
 2324W        W18398   2.610  16.909  13.123 -0.0821  0.0849 -0.0034
 2325W        W18399  16.976   1.218  12.287 -0.1644  0.0958  0.1201
 2326W        W18400   8.172  13.940   3.448  0.0841 -0.1505 -0.3504
 2327W        W18401   1.871   0.072  14.555  0.2969 -0.0936 -0.2790
 2328W        W18402  12.020  16.855  11.962 -0.0387 -0.1426  0.1190
 2329W        W18403   2.348   3.444  14.314 -0.0009 -0.0274 -0.0491
 2330W        W18404   4.684   5.288  14.213 -0.1453 -0.0839 -0.1579
 2331W        W18405   3.198   9.962  11.329 -0.2852 -0.0650 -0.1795
 2332W        W18406   8.517  13.087   4.418 -0.4775  0.0250  0.0924
 2333W        W18407  10.458   2.718   1.548 -0.1312 -0.2170 -0.2564
 2334W        W18408   1.707  17.640   2.496  0.3666  0.0182  0.0497
 2335W        W18409   9.904  12.398   4.416  0.0194 -0.1109 -0.2554
 2336W        W18410  17.428   4.229   3.730  0.2211  0.0188 -0.0771
 2337W        W18411   3.279   1.809  14.723  0.0328  0.0377  0.1852
 2338W        W18412   6.633  17.952   2.173 -0.2719 -0.0542  0.0266
 2339W        W18413   4.391  14.507  15.359  0.4479 -0.2477  0.2463
 2340W        W18414   4.468  15.307   0.904  0.0452 -0.1692 -0.1623
 2341W        W18415  15.703   3.851  13.456  0.0342 -0.1141  0.3062
 2342W        W18416   7.589  15.363   4.373 -0.0351  0.0263  0.2683
 2343W        W18417   2.378   9.210  14.775  0.2458  0.1655 -0.1092
 2344W        W18418  16.920  10.537   5.336 -0.0939 -0.0190  0.1652
 2345W        W18419   2.784  10.906  14.382 -0.1157 -0.1093  0.0901
 2346W        W18420  16.951   5.686   3.461 -0.0702 -0.0751 -0.2755
 2347W        W18421  14.245   4.912   2.629  0.1006  0.2579 -0.1227
 2348W        W18422   2.626   4.649  12.332  0.0140  0.0206 -0.1058
 2349W        W18423  14.665  16.854  11.938 -0.1884  0.0030  0.2130
 2350W        W18424   0.152  10.063  13.446 -0.0511  0.0568  0.0258
 2351W        W18425   2.669   6.257  16.119 -0.4403 -0.2451 -0.1273
 2352W        W18426  16.598  17.890  13.885 -0.0842  0.0885  0.1456
 2353W        W18427   7.849   0.355   3.184 -0.1631  0.0085  0.1786
 2354W        W18428  15.652  17.708  13.707 -0.1663 -0.0771  0.2561
 2355W        W18429   5.791   1.270   3.866  0.5235 -0.0179  0.1958
 2356W        W18430  10.607  15.524   2.911  0.3096 -0.3109  0.0788
 2357W        W18431  11.898   9.487   3.786 -0.3394  0.0490  0.2119
 2358W        W18432   0.209   9.138  10.971 -0.0243  0.0206 -0.1153
 2359W        W18433  15.053  10.718   2.086  0.1127 -0.0155 -0.0449
 2360W        W18434   4.568   1.918  16.432  0.1198 -0.1861  0.0844
 2361W        W18435  15.761   4.586  15.974  0.1734 -0.1498 -0.1652
 2362W        W18436   4.766   3.435   1.247  0.0772  0.0225 -0.3241
 2363W        W18437   7.564   2.945  14.221 -0.1375  0.1372 -0.2075
 2364W        W18438   4.746   7.520   4.508 -0.2404 -0.0050 -0.1841
 2365W        W18439  15.220  13.108  13.827 -0.1351  0.4525 -0.0429
 2366W        W18440   2.866  16.877   4.438  0.3752  0.1100 -0.0478
 2367W        W18441   4.999   3.776   0.901  0.0014 -0.2182  0.1158
 2368W        W18442   9.606   8.581   2.847  0.0291 -0.3152 -0.1072
 2369W        W18443   9.490   6.832   2.825 -0.0110 -0.0597  0.2510
 2370W        W18444  15.351   3.605  15.124  0.2390 -0.1163 -0.1406
 2371W        W18445  13.271  17.500   0.046  0.0106  0.0083 -0.2164
 2372W        W18446   6.460   0.083  14.024 -0.1358  0.0360  0.1408
 2373W        W18447   5.544   3.119  15.641  0.1196  0.2983  0.1074
 2374W        W18448  12.452  17.788   4.867  0.3079 -0.0706 -0.0466
 2375W        W18449   2.401   0.701   1.171 -0.3951 -0.1297  0.1995
 2376W        W18450  17.727   1.774  14.728  0.0624  0.2017  0.2482
 2377W        W18451  15.964   6.810   4.685 -0.0903 -0.1909  0.2664
 2378W        W18452  14.631  16.291   5.740 -0.2409  0.0351 -0.1004
 2379W        W18453  14.433   8.808  13.735  0.1225  0.0216  0.0823
 2380W        W18454  13.536   7.631   0.730 -0.2282 -0.0801  0.1774
 2381W        W18455  11.277   5.114   2.832  0.0166  0.3925  0.0896
 2382W        W18456  17.880   2.511  14.201  0.0230 -0.1620 -0.0231
 2383W        W18457   1.601   3.597   0.998  0.2057 -0.0531 -0.1623
 2384W        W18458  11.013  12.811   3.426  0.1082  0.2779 -0.1111
 2385W        W18459  15.567   8.543   3.701 -0.3559 -0.1695  0.0972
 2386W        W18460   9.841   8.600  14.762  0.1118  0.0030 -0.0500
 2387W        W18461   4.820  14.569   2.546 -0.0563 -0.2883 -0.0441
 2388W        W18462   5.534   8.703  11.750  0.3192  0.0328  0.0885
 2389W        W18463   6.795  15.552  12.390 -0.0794  0.1246  0.1050
 2390W        W18464  13.633  12.461   3.977 -0.0942 -0.1682 -0.1182
 2391W        W18465  17.361  16.414   1.983  0.0313 -0.2062  0.2189
 2392W        W18466  17.246   9.073   3.694  0.1795 -0.2451 -0.3678
 2393W        W18467   4.832   9.638  15.359 -0.1095 -0.1258 -0.0371
 2394W        W18468   3.266  14.228  15.579  0.1488 -0.0967 -0.4994
 2395W        W18469  17.673   5.703  13.677 -0.1846 -0.2930 -0.1766
 2396W        W18470   2.539   3.150  15.826  0.0113 -0.1553  0.2044
 2397W        W18471   9.446  14.624  16.044  0.1747  0.2274  0.2007
 2398W        W18472   3.205   7.228  12.537  0.1335  0.1122 -0.3613
 2399W        W18473   7.844   5.904   4.734  0.0028 -0.2044  0.0150
 2400W        W18474   1.767   4.631   2.190 -0.2190  0.0226 -0.0431
 2401W        W18475   9.670   2.203  11.653 -0.0729 -0.1952  0.0600
 2402W        W18476  14.319  14.897   1.281  0.2870 -0.0228 -0.3010
 2403W        W18477  17.911   1.219  13.054 -0.1755  0.3735 -0.0355
 2404W        W18478   0.693   3.821   0.063  0.0540 -0.2631 -0.0749
 2405W        W18479   4.071  16.361   2.649 -0.0377 -0.1342 -0.2467
 2406W        W18480  17.013  18.224   2.601  0.1494  0.2322  0.0153
 2407W        W18481  16.949  10.785   2.356 -0.5724 -0.2198 -0.1761
 2408W        W18482   0.475   2.460   3.294 -0.0602  0.0408 -0.3001
 2409W        W18483   5.748  13.830   0.373  0.0641  0.1106  0.0750
 2410W        W18484  15.558  15.976   0.314 -0.0244  0.3599 -0.0102
 2411W        W18485   6.672   1.594   5.915  0.2142 -0.0998 -0.1801
 2412W        W18486  15.500   2.343   2.254  0.1970  0.3564 -0.3141
 2413W        W18487  11.796  14.314  12.870 -0.0171  0.0648 -0.0903
 2414W        W18488  10.182   2.201   2.864 -0.2818 -0.0078  0.4167
 2415W        W18489   8.259   6.653   0.115  0.1273  0.1085 -0.3281
 2416W        W18490  10.790  15.822   0.945  0.1226  0.1893  0.1052
 2417W        W18491  12.383  17.185  11.703  0.1268  0.3851  0.5033
 2418W        W18492   5.761   4.249   0.422 -0.0445 -0.1774 -0.1580
 2419W        W18493  14.898  15.141  13.945 -0.0141  0.1009  0.0428
 2420W        W18494  16.379   6.410   3.404  0.1276  0.2885  0.0095
 2421W        W18495   6.324  14.559  12.629  0.2598 -0.0513 -0.1763
 2422W        W18496   5.130   6.068   5.085  0.0953  0.2069  0.3050
 2423W        W18497  10.427   0.769   2.908  0.1266  0.1759 -0.2814
 2424W        W18498  11.020   9.611   3.166 -0.0642 -0.1138 -0.2329
 2425W        W18499   3.898  14.773  14.221 -0.1864 -0.3520  0.0235
 2426W        W18500   8.438   9.181  16.126  0.2914  0.2401 -0.1206
 2427W        W18501  14.250  10.522  16.102  0.0600 -0.1230 -0.1759
 2428W        W18502   4.673  10.078   4.056 -0.1429  0.0128  0.3450
 2429W        W18503   2.931   3.505  13.635 -0.0187 -0.0821  0.2968
 2430W        W18504  18.005  18.199   2.496  0.0859  0.1803 -0.1624
 2431W        W18505  17.853  12.095   4.981 -0.2958 -0.0303 -0.1548
 2432W        W18506   6.919   1.160   0.208 -0.2215  0.1546 -0.2247
 2433W        W18507   4.206  14.936   3.349 -0.2325 -0.2328 -0.1117
 2434W        W18508   2.198  16.721  15.519  0.0450  0.1429  0.1653
 2435W        W18509   3.775   7.934   3.539  0.2035 -0.0119  0.0475
 2436W        W18510  10.637  15.855  12.212 -0.2678 -0.0996 -0.0645
 2437W        W18511  18.243   3.128   4.127  0.0544 -0.2598 -0.5505
 2438W        W18512   1.605  16.314   0.509 -0.0181  0.1076  0.0847
 2439W        W18513  14.061  17.033   4.852  0.0804 -0.1834  0.1998
 2440W        W18514   2.038   4.909  13.395 -0.1428 -0.1138  0.1401
 2441W        W18515   6.524   8.972   0.181  0.1624  0.1410  0.0177
 2442W        W18516  11.788   7.041  14.257  0.0011 -0.3066 -0.1510
 2443W        W18517   0.232   9.080   2.229 -0.4306  0.3158  0.0449
 2444W        W18518  13.842   2.673  14.164 -0.4014  0.1930  0.2315
 2445W        W18519  16.088  10.926  14.544 -0.1213  0.1184  0.0136
 2446W        W18520  11.580  17.351  13.152 -0.4981  0.2105  0.0180
 2447W        W18521   4.428   1.833   3.140 -0.2422 -0.1553  0.0115
 2448W        W18522   4.107   8.139  12.456 -0.1994 -0.1187 -0.2491
 2449W        W18523  15.939  15.394  13.441 -0.2343 -0.0308  0.1977
 2450W        W18524   3.955  16.784  12.460 -0.1895 -0.0906  0.0261
 2451W        W18525  15.955   1.373  12.205  0.2339 -0.0748 -0.0163
 2452W        W18526  18.009   7.536   2.285  0.0468  0.3678  0.0016
 2453W        W18527   2.857  13.952   4.659 -0.0996 -0.0938  0.1313
 2454W        W18528  11.228  13.728   1.178  0.0506 -0.2286 -0.1566
 2455W        W18529  10.368   5.415  16.308 -0.0662 -0.0510  0.1670
 2456W        W18530   8.010   0.160   2.264  0.0087  0.1014  0.4135
 2457W        W18531   1.285   2.800   0.078 -0.1818  0.0131 -0.0775
 2458W        W18532   8.914   9.288  10.683 -0.1205  0.0673  0.0490
 2459W        W18533  15.719   7.720   1.623 -0.0404 -0.1314 -0.2073
 2460W        W18534   3.652   0.788   5.280 -0.0266 -0.0239 -0.0152
 2461W        W18535  16.688  14.200   0.449 -0.2210 -0.1787  0.1992
 2462W        W18536  15.522  12.895  14.442  0.0968 -0.2116 -0.3277
 2463W        W18537  12.696   8.456  15.680  0.0467  0.4064  0.1280
 2464W        W18538  17.328   0.824   1.634  0.0555  0.0454 -0.0089
 2465W        W18539   5.869   8.680   1.596  0.0956 -0.0249 -0.0770
 2466W        W18540   1.851   2.180   0.759  0.0815  0.1202 -0.1243
 2467W        W18541   4.924   0.314  14.357  0.0946 -0.0699 -0.0661
 2468W        W18542   7.632   3.125  12.161 -0.1883  0.4104 -0.0853
 2469W        W18543  16.157  17.066  13.054 -0.1132  0.1542 -0.0022
 2470W        W18544   6.596   1.448   0.452 -0.0245 -0.0010  0.1596
 2471W        W18545   2.713  16.979  15.697  0.1003 -0.3310  0.1350
 2472W        W18546   4.621   3.464  14.176  0.0517 -0.2190 -0.2154
 2473W        W18547   7.294  14.762  13.733 -0.1571 -0.0555  0.0128
 2474W        W18548  12.999   4.851  13.702 -0.3779  0.1012  0.1306
 2475W        W18549  10.976   0.176   5.719  0.1159 -0.3441 -0.0354
 2476W        W18550   6.714   7.578   5.487 -0.1955 -0.0470 -0.2084
 2477W        W18551   8.889  12.222   2.208  0.1003 -0.0382 -0.2686
 2478W        W18552  17.708   0.501  14.000  0.2148  0.1148 -0.0003
 2479W        W18553  18.015  11.671  11.600 -0.0339  0.0473  0.1472
 2480W        W18554   2.300  15.277   5.020  0.0931  0.1769  0.1148
 2481W        W18555   5.775  10.431   0.679 -0.0440 -0.1597 -0.2534
 2482W        W18556   8.474  16.025  15.894  0.0159 -0.5291 -0.1013
 2483W        W18557   3.654  12.230  13.167  0.3573 -0.2859  0.2557
 2484W        W18558   5.483  16.480   0.811  0.1193 -0.1878 -0.1510
 2485W        W18559   3.428  13.872   0.165  0.0331 -0.0497 -0.0181
 2486W        W18560   3.673  14.269  13.893  0.3964  0.1175  0.4019
 2487W        W18561  10.163  12.420   3.920 -0.1599  0.1218  0.0160
 2488W        W18562   7.213   1.208  14.579  0.1844  0.1112 -0.2111
 2489W        W18563  13.951   7.372   1.455  0.0899 -0.2339 -0.1328
 2490W        W18564   7.968   9.761   2.015  0.0856  0.2025 -0.2935
 2491W        W18565   4.321  16.995  16.329 -0.1114  0.1247  0.0539
 2492W        W18566  10.038   0.188  13.597 -0.0296  0.0151  0.0728
 2493W        W18567   8.580  13.316   5.431 -0.1939 -0.1752  0.0043
 2494W        W18568   9.787  15.070  14.110 -0.1969  0.0200  0.1142
 2495W        W18569   4.852  13.931  14.726  0.0692 -0.1620 -0.0530
 2496W        W18570   5.436  12.051  12.300  0.0953  0.0347  0.0580
 2497W        W18571  14.214   2.376  13.299  0.1429  0.2254  0.1195
 2498W        W18572  16.733  15.566  14.030 -0.1525 -0.0054  0.1220
 2499W        W18573  12.172   1.402   5.258  0.2519  0.0886  0.1491
 2500W        W18574  14.610   6.748   3.064  0.0392  0.1913 -0.0994
 2501W        W18575   2.304  11.279  13.180  0.2103  0.2656  0.0449
 2502W        W18576   6.196   0.165  12.234  0.0297  0.1600  0.0817
 2503W        W18577   8.129   5.609   5.692 -0.0021  0.0564 -0.0343
 2504W        W18578   6.074   1.816  15.433  0.1397  0.0536  0.0176
 2505W        W18579  12.796   6.268  12.244 -0.4013  0.2089  0.2435
 2506W        W18580  18.177   8.275  12.080 -0.0924  0.1468  0.0462
 2507W        W18581   9.304   4.588  11.769 -0.1230  0.4359 -0.3011
 2508W        W18582  12.612  10.793  13.410 -0.2329 -0.1797  0.1395
 2509W        W18583  13.060   5.269  15.621  0.1504 -0.4126 -0.1404
 2510W        W18584  16.336   3.747   5.492  0.2737  0.0172  0.1739
 2511W        W18585  13.564  16.556   2.370 -0.2349  0.0045 -0.0540
 2512W        W18586   8.588  10.894   1.899  0.1788 -0.0444  0.1171
 2513W        W18587   9.976  16.065   2.608 -0.0880 -0.2062 -0.1942
 2514W        W18588   5.231   4.229   5.391 -0.1914 -0.2200 -0.1568
 2515W        W18589   7.155  15.366  12.016  0.1100 -0.3414 -0.0782
 2516W        W18590   7.059  13.471   4.740  0.1642  0.1998 -0.2804
 2517W        W18591   4.930  13.635   0.775  0.0236 -0.1917  0.0732
 2518W        W18592   0.660   4.896  12.593  0.0811 -0.1975  0.0516
 2519W        W18593  12.995  12.315   0.645 -0.0095  0.1519  0.2498
 2520W        W18594  16.845  10.118   4.977  0.3120  0.0651 -0.2410
 2521W        W18595   5.357   3.299   3.457  0.3347 -0.0307 -0.3864
 2522W        W18596   0.179  13.879   4.108 -0.1699  0.2922 -0.0669
 2523W        W18597   3.150  14.651  11.874 -0.1052  0.1883  0.1917
 2524W        W18598  13.828   6.379  16.254 -0.0702  0.2500  0.1129
 2525W        W18599  17.060  11.522   5.343 -0.1071 -0.2870 -0.2679
 2526W        W18600   0.229  10.030  15.968 -0.1235 -0.0366  0.2153
 2527W        W18601   2.590  18.041   0.887 -0.4643  0.1827 -0.1987
 2528W        W18602   4.113   3.711  11.710  0.4801 -0.1108 -0.0994
 2529W        W18603  11.383  13.807   5.423 -0.0761  0.0444 -0.0612
 2530W        W18604   5.961   7.553  14.011  0.3034  0.1104  0.0834
 2531W        W18605  13.102   4.523   0.482 -0.0320  0.1068  0.0107
 2532W        W18606   2.059   2.979  15.895 -0.0249  0.0642 -0.0831
 2533W        W18607  14.334   2.646  15.871 -0.3088 -0.0046 -0.1074
 2534W        W18608   9.774   5.430   6.009 -0.1817 -0.1412  0.0749
 2535W        W18609   3.043   0.644  12.329 -0.2100  0.0278  0.0458
 2536W        W18610   0.371   1.285   2.892  0.1658 -0.1996 -0.1832
 2537W        W18611  14.448   5.144   5.310  0.4077 -0.0387  0.2376
 2538W        W18612  15.160  14.398   3.120 -0.1959 -0.2085  0.0624
 2539W        W18613   6.220  13.899  15.667  0.1002 -0.1502 -0.1104
 2540W        W18614   5.233   2.876   3.635  0.2144  0.0034  0.1844
 2541W        W18615  10.871  15.000   0.667 -0.1067 -0.0911 -0.2557
 2542W        W18616  14.053  10.941  12.231 -0.0156  0.2497  0.1683
 2543W        W18617   2.171  12.008   5.458 -0.0688 -0.0964  0.0102
 2544W        W18618  12.335  15.178  13.290  0.0254 -0.2765 -0.0081
 2545W        W18619  15.934  15.654   2.981  0.1375 -0.1970  0.1707
 2546W        W18620  10.647   4.331   0.824  0.0722 -0.0253 -0.0831
 2547W        W18621   1.660  11.825   0.571 -0.0168 -0.0438 -0.5676
 2548W        W18622   3.183   8.673   3.896  0.0621  0.1764 -0.0928
 2549W        W18623  15.618  12.874  13.325  0.3889  0.1666 -0.1812
 2550W        W18624  15.880  12.213   3.666 -0.2199 -0.3536 -0.2654
 2551W        W18625   6.665   4.561  13.680 -0.1036 -0.0009 -0.0170
 2552W        W18626   2.218   0.139  11.230 -0.2961  0.0832 -0.4972
 2553W        W18627   4.901   1.423   5.497 -0.2403  0.0387  0.4644
 2554W        W18628  12.293   3.315   1.934 -0.1807  0.0247 -0.1513
 2555W        W18629   9.681   7.129  12.536 -0.0742 -0.4196 -0.0785
 2556W        W18630   3.696   0.611  15.928  0.0309 -0.1333  0.3684
 2557W        W18631  12.416  12.605  12.709  0.0029  0.3530 -0.0745
 2558W        W18632   4.152  10.451  14.840  0.1267  0.1307 -0.0470
 2559W        W18633   5.821   3.337   5.832  0.1798  0.0732  0.0476
 2560W        W18634  17.048   5.239   0.082 -0.1699  0.4108 -0.1734
 2561W        W18635   7.273   0.349  12.065 -0.4531  0.0386  0.2645
 2562W        W18636  11.027  16.660   2.293 -0.1964 -0.0816 -0.1778
 2563W        W18637   7.507  10.018  12.794  0.0088  0.1747  0.0162
 2564W        W18638  16.174   4.685  12.819 -0.0300 -0.2297  0.5904
 2565W        W18639  15.846  15.986   0.924 -0.2460 -0.1541  0.0350
 2566W        W18640   3.481  10.562  13.732 -0.0014 -0.1738  0.0732
 2567W        W18641   5.927  16.536   5.083  0.0371 -0.0371  0.0188
 2568W        W18642   8.836   2.356   2.429 -0.0905 -0.1842 -0.1338
 2569W        W18643   2.992  13.640   2.318  0.1436  0.0178 -0.1352
 2570W        W18644   3.666   1.812  13.356  0.4634  0.2197 -0.0013
 2571W        W18645   7.720  14.767  11.304 -0.0497 -0.3462  0.0758
 2572W        W18646   4.570   0.770  15.673 -0.0468 -0.1305  0.3296
 2573W        W18647  17.453   3.268   0.024 -0.1403 -0.3650  0.2143
 2574W        W18648   9.346  15.277  12.340  0.0341  0.1258 -0.0378
 2575W        W18649  15.319  15.444   1.674  0.2661 -0.1012  0.0742
 2576W        W18650   8.408  13.777  12.621  0.1885 -0.0327  0.1332
 2577W        W18651   6.739   8.869   4.124  0.1289  0.0423 -0.0686
 2578W        W18652  13.720   4.599   5.493 -0.0037 -0.2036 -0.0446
 2579W        W18653  16.303   5.433   4.923  0.1072  0.1544 -0.0414
 2580W        W18654   8.758  14.037   1.585  0.1189  0.0636 -0.1180
 2581W        W18655  10.817  14.166  11.761  0.5532  0.2657  0.0991
 2582W        W18656   0.220  16.345  10.499 -0.0616 -0.0358  0.0146
 2583W        W18657  16.509   5.055  14.911  0.3070  0.0129 -0.0196
 2584W        W18658   6.551  17.125   0.243  0.0630 -0.0791  0.3006
 2585W        W18659  11.586   3.224   0.865 -0.3863  0.1826  0.1903
 2586W        W18660   4.707  10.313  15.003 -0.0750 -0.0322 -0.0934
 2587W        W18661  14.004  13.938  14.675  0.3508 -0.1371 -0.2281
 2588W        W18662   5.990  10.720   0.291  0.3040  0.0564 -0.2635
 2589W        W18663   4.595   9.048  14.317  0.2683  0.0983 -0.1365
 2590W        W18664  10.005   3.245  14.366 -0.0826 -0.4650 -0.0589
 2591W        W18665  14.681   2.727  13.696 -0.3364 -0.0703  0.0949
 2592W        W18666   2.047  14.081  12.564  0.1683 -0.1218  0.0859
 2593W        W18667  12.728  18.245  12.483  0.0714 -0.1175 -0.3204
 2594W        W18668  14.584  17.799   3.412 -0.1342  0.0071  0.0300
 2595W        W18669  14.367  11.022  11.642  0.2298 -0.1760  0.0331
 2596W        W18670  15.604   9.116  12.570 -0.0382 -0.0370  0.1106
 2597W        W18671  12.008   4.182   5.750 -0.0181 -0.0753  0.0313
 2598W        W18672   8.602  16.079   0.643  0.0825  0.1923 -0.1751
 2599W        W18673   8.965   4.280  15.431 -0.2465  0.0847 -0.2425
 2600W        W18674  14.975  17.907  15.466 -0.0483  0.1594 -0.0449
 2601W        W18675   0.449   9.998  16.469  0.1455  0.1615  0.1104
 2602W        W18676  12.200   7.369  13.394 -0.0483  0.0819  0.0398
 2603W        W18677   3.905   3.597   3.913  0.0277 -0.0702  0.1678
 2604W        W18678  15.384  16.659  11.237 -0.5131  0.1424 -0.1164
 2605W        W18679   2.886   3.612  15.235 -0.0361 -0.0478 -0.0458
 2606W        W18680   4.021   2.220  13.407 -0.2733  0.2195 -0.3152
 2607W        W18681  11.575   9.845  15.270 -0.0033 -0.1746 -0.0943
 2608W        W18682  17.603  12.350  14.914 -0.0970  0.3250 -0.1372
 2609W        W18683  17.612   4.368  15.101  0.1815 -0.2256 -0.0024
 2610W        W18684   9.326  12.088  15.299  0.0723  0.2395  0.0361
 2611W        W18685   1.537   9.070   5.022 -0.0901 -0.2800 -0.1341
 2612W        W18686   9.657  10.838  15.076  0.0512 -0.1121  0.0280
 2613W        W18687  10.505   2.115   6.815  0.0271 -0.1003 -0.1571
 2614W        W18688   4.743  16.360   5.743  0.0658 -0.1892  0.0588
 2615W        W18689   8.152  11.355   5.265  0.0891  0.0276  0.2508
 2616W        W18690  12.664   5.814   1.837  0.1092 -0.1750 -0.1634
 2617W        W18691  16.741   8.024   5.824  0.0132 -0.2661  0.1548
 2618W        W18692  16.207  13.113   0.432 -0.3548  0.0025 -0.2426
 2619W        W18693  11.248  17.048   1.675 -0.1778 -0.0596 -0.0974
 2620W        W18694   0.721  13.290  11.207 -0.0482 -0.0061 -0.2716
 2621W        W18695   0.493   2.451   0.777 -0.1487  0.0293 -0.1694
 2622W        W18696  13.042   9.814   1.642  0.1668  0.0643 -0.1995
 2623W        W18697   8.402   4.969  15.859  0.0449 -0.1250 -0.0227
 2624W        W18698  17.396   9.121  13.217  0.0233 -0.2880 -0.0628
 2625W        W18699  13.208  11.702   5.412 -0.2217  0.0883 -0.0455
 2626W        W18700  11.070   3.771  15.877  0.4290 -0.2174  0.3763
 2627W        W18701   3.430   0.225   2.727 -0.0709 -0.0520  0.0834
 2628W        W18702   5.360  12.024   5.064 -0.0520  0.0642  0.1046
 2629W        W18703  11.209   7.045   5.706  0.2022 -0.3208  0.0918
 2630W        W18704  16.136  10.519   2.789  0.1216 -0.2267  0.0155
 2631W        W18705  15.631  13.006   4.927 -0.2077  0.0158 -0.0292
 2632W        W18706   4.497  15.290   4.287  0.2978 -0.1135  0.1006
 2633W        W18707  12.504  17.842   2.960 -0.0744 -0.2521 -0.0093
 2634W        W18708   0.558  11.773  11.075  0.1399 -0.2960 -0.0299
 2635W        W18709   2.314  13.456   0.562 -0.0025  0.0272  0.0627
 2636W        W18710  11.004   0.541   6.503  0.0751  0.0445  0.0345
 2637W        W18711  16.333   1.533  11.578 -0.1480  0.1471  0.2164
 2638W        W18712   0.740  16.575   3.589 -0.2077  0.3786 -0.1868
 2639W        W18713   7.074   9.198  14.470  0.3656 -0.0920 -0.1673
 2640W        W18714   6.557   2.486  14.787 -0.0191  0.2029 -0.2978
 2641W        W18715   8.587   9.095  12.718 -0.3683 -0.1984  0.0654
 2642W        W18716   2.476   8.003   1.153 -0.2406 -0.3043  0.1163
 2643W        W18717  13.982   3.684   0.983 -0.1338 -0.1116 -0.0882
 2644W        W18718  12.442  16.040  14.384 -0.2764 -0.2156 -0.3542
 2645W        W18719  14.283  13.909  13.212  0.2384 -0.1295 -0.0586
 2646W        W18720  14.428   6.072   5.619 -0.1569 -0.0837 -0.3351
 2647W        W18721   1.563   6.422   1.012 -0.1293 -0.1833 -0.2215
 2648W        W18722  16.487  11.149  14.802 -0.2297 -0.3025  0.1377
 2649W        W18723  11.711   9.028   4.687  0.1523  0.1558  0.3208
 2650W        W18724  12.463   7.510  13.814 -0.2629 -0.2131  0.0738
 2651W        W18725  15.517   3.207  15.547  0.1255 -0.1236  0.1041
 2652W        W18726  14.803  12.435  13.441 -0.1659  0.0426  0.1430
 2653W        W18727   0.831  11.547   3.920  0.1042  0.0222 -0.2174
 2654W        W18728   0.347  15.960  13.781  0.0309 -0.0759  0.2553
 2655W        W18729   2.455   4.730  14.509  0.3980 -0.2401  0.3935
 2656W        W18730   0.127   8.915   4.212  0.3670 -0.0395  0.2202
 2657W        W18731  18.146   5.081  16.011 -0.3427 -0.1793 -0.1327
 2658W        W18732   1.642  12.971  14.596  0.1315  0.0289 -0.2472
 2659W        W18733   4.076   5.479  16.392  0.1954 -0.0295  0.1391
 2660W        W18734  16.883  14.379   4.916  0.1522 -0.1967  0.0590
 2661W        W18735   3.910  13.988   0.372 -0.3058  0.2356 -0.0025
 2662W        W18736  11.700   0.407  11.976 -0.3344 -0.2345 -0.1312
 2663W        W18737  11.817  10.164  14.421  0.0735  0.1728 -0.1372
 2664W        W18738   7.970   3.261   2.532  0.0179 -0.2044 -0.1561
 2665W        W18739  15.488   9.051  14.388 -0.0360  0.1504 -0.3447
 2666W        W18740  14.570  12.236  12.664  0.1185  0.1746 -0.1845
 2667W        W18741   2.066   6.941   2.799  0.0579 -0.1516  0.1551
 2668W        W18742   4.391  13.852  14.015 -0.0267  0.3306  0.0313
 2669W        W18743   2.261   6.367  13.256  0.3019 -0.0837 -0.1839
 2670W        W18744   3.333  13.988   2.562 -0.3761 -0.0113  0.0231
 2671W        W18745   3.875   1.872  12.156  0.1705  0.0070  0.2839
 2672W        W18746  17.551   9.846   4.462 -0.0255  0.0064  0.0848
 2673W        W18747   3.303  13.402   0.389 -0.0115  0.2862 -0.0933
 2674W        W18748  17.223  12.043  11.114 -0.0213 -0.3206 -0.1390
 2675W        W18749  16.434  12.655  14.649 -0.0084 -0.0615  0.1469
 2676W        W18750   8.913  15.526  12.157  0.3762 -0.2714  0.2100
 2677W        W18751   8.882  12.058   4.249 -0.2101  0.1894  0.1118
 2678W        W18752   6.876  16.814   5.043  0.2416  0.0154  0.1578
 2679W        W18753   4.960  16.718   6.596 -0.1342 -0.1807  0.0752
 2680W        W18754  13.379  15.984  14.055  0.1774 -0.0616  0.0516
 2681W        W18755   8.211  16.195   0.324  0.0049  0.0769  0.1812
 2682W        W18756   2.922  14.736   2.115  0.0127 -0.0798  0.3597
 2683W        W18757   2.052  10.270   4.389  0.0242  0.2008  0.0183
 2684W        W18758   3.331  11.371   4.888  0.3240 -0.1721 -0.1228
 2685W        W18759  14.665  17.754   2.349  0.1454  0.1064 -0.4461
 2686W        W18760   6.664  15.159   4.448  0.0174  0.2724  0.1499
 2687W        W18761  15.547  13.520   2.719 -0.1960 -0.4911  0.3119
 2688W        W18762  11.055  14.575  13.934 -0.1847  0.1493 -0.3686
 2689W        W18763   1.963  13.281  14.353  0.1380 -0.0438  0.2558
 2690W        W18764  10.574  15.130   4.188  0.1300 -0.2623  0.1788
 2691W        W18765  17.181   7.771   2.956  0.2815  0.1543  0.1365
 2692W        W18766   3.102  13.246  12.149 -0.1858  0.2114  0.1135
 2693W        W18767   7.238   8.584   3.548  0.3613  0.2286 -0.2133
 2694W        W18768   2.138  16.213  11.734 -0.2253 -0.5607 -0.1741
 2695W        W18769  16.645   5.257   5.241  0.3982  0.0796 -0.0448
 2696W        W18770  12.045   7.131  12.097  0.0016  0.0581 -0.0986
 2697W        W18771  17.705  10.656   0.890  0.1134  0.2389 -0.0082
 2698W        W18772   3.477  15.266  12.372 -0.0502  0.0882 -0.3595
 2699W        W18773  11.023   9.003   0.950 -0.1048  0.1797  0.1836
 2700W        W18774   6.194   6.078  15.305 -0.5334 -0.1742  0.2981
 2701W        W18775  15.749   7.298   3.106  0.0743 -0.0571  0.0468
 2702W        W18776  12.999  16.939  14.051 -0.1461 -0.1915 -0.2827
 2703W        W18777  11.142   4.552   4.980  0.1152 -0.0319  0.2588
 2704W        W18778   5.771   2.419   6.162  0.3742 -0.4344 -0.2215
 2705W        W18779  13.942  14.291   3.309 -0.1103  0.0252  0.0068
 2706W        W18780  17.960   4.077   4.740  0.0069 -0.1921 -0.0549
 2707W        W18781  17.906   0.129   3.572 -0.3262 -0.3133  0.3965
 2708W        W18782  14.924   4.295  13.984  0.4932 -0.1527  0.0002
 2709W        W18783   6.586   6.322  15.666 -0.2846  0.0675  0.0161
 2710W        W18784   8.862   9.382  14.362 -0.1475  0.0371 -0.0608
 2711W        W18785   6.304   2.256   0.141  0.4343  0.4210 -0.0462
 2712W        W18786  15.633   4.024  15.069 -0.0153 -0.3637  0.0955
 2713W        W18787  14.310   5.143   1.751 -0.4044  0.1883 -0.0713
 2714W        W18788  12.999  14.833  11.470  0.1948 -0.1545  0.2381
 2715W        W18789   8.030   4.383  14.546 -0.1103  0.1142  0.0640
 2716W        W18790   2.095  10.694   2.483 -0.0955 -0.0906  0.0677
 2717W        W18791  15.853   7.394   4.134 -0.0240  0.0350 -0.0145
 2718W        W18792   4.506  13.692  15.110 -0.1844 -0.1685  0.0734
 2719W        W18793   8.000  13.950   1.104 -0.0239 -0.0780  0.6003
 2720W        W18794   7.041  16.423  16.254  0.1146 -0.2993 -0.2841
 2721W        W18795  10.427   2.844  11.261 -0.1585  0.2034 -0.2148
 2722W        W18796  15.855   3.646  12.633  0.0984  0.4319  0.0975
 2723W        W18797   5.659   1.905   3.862 -0.0015  0.0664  0.1902
 2724W        W18798   0.519   0.297   5.208 -0.0045 -0.0444  0.1222
 2725W        W18799  14.147  18.226  14.196 -0.0262 -0.0926  0.0055
 2726W        W18800  17.101   7.432  15.353  0.0452 -0.3113 -0.0855
 2727W        W18801  10.898  10.391  16.309  0.0793 -0.1024  0.4223
 2728W        W18802   9.325   3.156  13.849 -0.3438  0.3247  0.1691
 2729W        W18803  13.269   5.324  11.723  0.1758 -0.1019 -0.1126
 2730W        W18804  10.468   6.150  12.613  0.1866  0.1444  0.1777
 2731W        W18805  11.360   3.835  13.238 -0.1626  0.6815  0.1070
 2732W        W18806  10.410   1.279   6.528  0.0807  0.0930 -0.0490
 2733W        W18807   9.323   4.559  12.896  0.0268  0.1282  0.1602
 2734W        W18808   1.518   5.063  11.756  0.0991 -0.1299 -0.0813
 2735W        W18809   7.224   3.731   5.431 -0.1584 -0.1345  0.1003
 2736W        W18810  15.598   3.538  14.292 -0.1076  0.0174 -0.1045
 2737W        W18811   1.872  14.557   1.092 -0.0130 -0.1681 -0.2545
 2738W        W18812   9.052   4.450  16.353 -0.1557 -0.2567 -0.0477
 2739W        W18813  17.362   7.615  14.935  0.2736 -0.0963  0.2848
 2740W        W18814   3.206   8.130   5.434  0.4486 -0.0939 -0.1716
 2741W        W18815   6.892   5.976  16.131 -0.1911  0.3270  0.1427
 2742W        W18816   0.034  12.682   4.755  0.0994 -0.1269 -0.0838
 2743W        W18817  12.362  16.647  16.264 -0.2102 -0.0366  0.4052
 2744W        W18818   8.210  16.904  13.257  0.0821  0.2736  0.2614
 2745W        W18819  15.225   5.514   2.594 -0.4387 -0.0176  0.0706
 2746W        W18820  14.393   6.863  14.896  0.0818  0.1093 -0.3106
 2747W        W18821   2.536  15.405  15.365 -0.1684 -0.1715  0.2105
 2748W        W18822   0.791   7.595  10.247  0.1418  0.0636  0.2573
 2749W        W18823   2.667   7.395   1.872  0.1363  0.3362 -0.2008
 2750W        W18824  12.469   9.609   5.112 -0.2828  0.1976 -0.1399
 2751W        W18825   1.818   0.976  14.495  0.0139  0.2294 -0.0347
 2752W        W18826   7.299   2.707   5.076  0.0219 -0.0236  0.0155
 2753W        W18827   8.839   4.375  13.195 -0.1262  0.2059  0.2426
 2754W        W18828   7.747   5.589  12.942  0.1779  0.0014 -0.1479
 2755W        W18829   9.130   8.155  14.967  0.0704  0.1168  0.1221
 2756W        W18830  10.636   6.568   3.558  0.1825  0.1697  0.1788
 2757W        W18831   0.236   3.656   3.183  0.2609 -0.0118 -0.0341
 2758W        W18832   0.895  10.858  11.871 -0.2827 -0.1687 -0.1057
 2759W        W18833   4.401  12.383  13.131 -0.4421 -0.0540  0.0019
 2760W        W18834   9.303  16.128   1.019  0.0650  0.1442  0.1223
 2761W        W18835   9.104   6.263  11.699 -0.0473  0.0618 -0.2637
 2762W        W18836   6.131   6.825  14.908 -0.1528 -0.2371  0.0241
 2763W        W18837   0.637   3.949   0.588 -0.2098 -0.0259  0.1502
 2764W        W18838  16.288   6.876  14.355  0.0339 -0.1473  0.1076
 2765W        W18839  17.568   8.166  13.262 -0.1267  0.1237  0.0578
 2766W        W18840  11.792   5.857  12.287 -0.2811  0.0583  0.0990
 2767W        W18841  14.829  13.133  12.130 -0.1932 -0.0702 -0.0735
 2768W        W18842   3.465   0.847  11.856 -0.1122  0.0569  0.1187
 2769W        W18843   2.429   7.730   0.388  0.1382 -0.4220 -0.1058
 2770W        W18844   0.354  16.524   4.558 -0.0084  0.1527  0.4030
 2771W        W18845   4.304   9.097   1.157  0.1844  0.2615  0.0029
 2772W        W18846   8.434  16.346  16.369  0.1769  0.0301 -0.3937
 2773W        W18847  11.337   3.318   3.425 -0.2162  0.1957 -0.0778
 2774W        W18848  10.912   9.717  11.589 -0.0128 -0.2844 -0.0561
 2775W        W18849  11.442   4.925  16.496 -0.0370  0.0409  0.2769
 2776W        W18850  11.812   8.605  15.199 -0.1657 -0.0753  0.0201
 2777W        W18851   8.135  17.874   3.366 -0.3446 -0.0440  0.0928
 2778W        W18852   4.462   0.255   2.398 -0.3640 -0.2080 -0.0877
 2779W        W18853  17.309   3.284  14.225  0.2374  0.0187  0.1114
 2780W        W18854   0.822  18.239  15.134 -0.0343 -0.2171  0.3227
 2781W        W18855   6.094   5.470   3.161 -0.1976  0.0533 -0.2357
 2782W        W18856  12.407  13.271  11.895 -0.0496  0.1729 -0.1570
 2783W        W18857   5.046   5.996   3.160 -0.0824  0.0525  0.3297
 2784W        W18858  13.521  12.179  13.624  0.0472  0.1668 -0.1899
 2785W        W18859  14.335   4.574  12.293 -0.1630 -0.1016  0.0937
 2786W        W18860   9.008   3.325  14.932  0.4372 -0.2518 -0.0395
 2787W        W18861  10.026   8.258  15.658  0.1221 -0.2737  0.1281
 2788W        W18862  10.732   3.386  12.602 -0.2096 -0.1654 -0.0810
 2789W        W18863  12.616  16.869  12.089 -0.0355  0.2479 -0.1604
 2790W        W18864  10.494  18.252   5.797 -0.0372 -0.0278 -0.0632
 2791W        W18865  13.876  12.736  13.321 -0.0215 -0.0287  0.0944
 2792W        W18866   5.372   1.149  16.313 -0.2749 -0.0332 -0.2238
 2793W        W18867   5.608  17.114   5.151 -0.0920 -0.1742 -0.0380
 2794W        W18868  15.506  10.380  15.442 -0.0227 -0.0359 -0.1315
 2795W        W18869  11.377  11.894  11.494  0.0502 -0.2291  0.0028
 2796W        W18870   5.619  14.246   2.002 -0.0270  0.0110 -0.0537
 2797W        W18871   7.826  12.148  15.249 -0.1691  0.0608  0.0139
 2798W        W18872  17.039   3.650  11.683  0.3821  0.0753 -0.0012
 2799W        W18873  12.014   8.112   2.585 -0.1256 -0.2246  0.1200
 2800W        W18874   0.619   5.221   4.711  0.1404 -0.2689  0.0273
 2801W        W18875  13.883  10.585   2.856 -0.0297  0.0697 -0.1151
 2802W        W18876  12.440   9.977   2.711 -0.1787 -0.2336  0.1780
 2803W        W18877   1.850  15.041   4.756  0.0409 -0.0394 -0.0743
 2804W        W18878  12.936  17.011  16.313  0.2185  0.2351  0.0302
 2805W        W18879   4.119   8.403  10.650  0.3140 -0.0980 -0.2803
 2806W        W18880   1.522   6.720   2.155 -0.2901  0.0706 -0.1270
 2807W        W18881  10.084  17.358  13.674  0.1846 -0.0697 -0.3226
 2808W        W18882  10.431   7.489   5.644  0.0441  0.0438  0.0703
 2809W        W18883   2.890  11.412  14.253  0.1412 -0.0373 -0.1244
 2810W        W18884   5.458   7.127   0.848  0.0395 -0.1024  0.1162
 2811W        W18885  12.696   3.299   4.067  0.1393 -0.0258  0.1475
 2812W        W18886   6.811  15.905   4.970  0.0859  0.1016  0.3412
 2813W        W18887   6.994  10.323   3.015  0.1247 -0.1663 -0.0162
 2814W        W18888   6.487  11.493  14.787  0.0129 -0.1697  0.0282
 2815W        W18889   7.573  18.198  11.868 -0.0710  0.1709 -0.0247
 2816W        W18890   4.035  13.947  13.259 -0.4156  0.0703  0.3483
 2817W        W18891  16.134  14.481   3.355  0.1057 -0.2652 -0.1091
 2818W        W18892   8.334   3.608   2.707  0.0545 -0.3271 -0.2025
 2819W        W18893   2.824   9.879   2.079 -0.2841 -0.1146  0.0425
 2820W        W18894   4.152   3.321  14.237  0.0881 -0.0082  0.0185
 2821W        W18895  12.262  11.197  13.516  0.0588  0.2169  0.2518
 2822W        W18896  17.900  15.248   4.064  0.0517  0.1042 -0.1604
 2823W        W18897  16.806  14.908   1.118  0.0641 -0.0828 -0.0783
 2824W        W18898  12.332  11.103  13.033  0.1087 -0.2742 -0.0968
 2825W        W18899  12.008  13.528   0.829  0.1528  0.0049 -0.2384
 2826W        W18900   8.645  13.095   3.000  0.2237  0.0650  0.2349
 2827W        W18901   0.918   0.947  11.097 -0.0087 -0.0355 -0.0386
 2828W        W18902   6.301  16.149   0.294  0.1504 -0.2031 -0.2361
 2829W        W18903   7.495   4.794  12.776 -0.1465 -0.2331 -0.1928
 2830W        W18904   4.082  10.776  11.693  0.1384 -0.2532  0.0815
 2831W        W18905  15.404   5.538   1.185  0.0055 -0.1173  0.0991
 2832W        W18906   9.045  13.496   3.735  0.0427  0.3241 -0.0422
 2833W        W18907   4.972   0.408   1.016 -0.0522 -0.1148  0.0097
 2834W        W18908   8.250  10.944  12.060 -0.1405  0.0554 -0.3714
 2835W        W18909   5.126  10.672   4.666 -0.2030 -0.0729 -0.2372
 2836W        W18910   1.325   5.516  14.362 -0.2398 -0.1629 -0.0218
 2837W        W18911  13.388   2.060  14.646  0.0822 -0.0505 -0.2310
 2838W        W18912   6.385  11.173  12.832 -0.2985  0.1367 -0.0263
 2839W        W18913   6.836  10.053  14.513  0.0603 -0.2644 -0.0049
 2840W        W18914  10.317  15.020  14.078 -0.2468 -0.0675  0.0058
 2841W        W18915   3.116   9.650  11.697 -0.0388  0.1099  0.1575
 2842W        W18916   1.040   2.948   2.246  0.1224  0.0390 -0.2346
 2843W        W18917   4.623   0.143  12.888 -0.0396 -0.1109 -0.0384
 2844W        W18918   9.486  15.017   0.066  0.2797  0.1484  0.0232
 2845W        W18919  10.372   1.270   0.199  0.0394 -0.1189 -0.1772
 2846W        W18920  11.105   5.857  13.912  0.1515 -0.2784  0.1983
 2847W        W18921   8.208  16.220  15.524  0.1625  0.3499 -0.2213
 2848W        W18922   8.553   0.543  12.528  0.0706 -0.1576  0.0396
 2849W        W18923  15.328  11.199   4.795 -0.3507 -0.0170 -0.2431
 2850W        W18924   0.946  15.967  11.964 -0.0816 -0.1494  0.1336
 2851W        W18925   7.755  16.773  14.214 -0.0640  0.4608  0.1821
 2852W        W18926  11.246  11.314  13.441  0.1733  0.1135 -0.2682
 2853W        W18927   3.533  12.407  14.193 -0.0400  0.1988 -0.1138
 2854W        W18928   9.426  15.759  13.399 -0.1462 -0.0619  0.0027
 2855W        W18929   7.445  11.818   5.970  0.5122 -0.1169  0.1241
 2856W        W18930  13.295  17.522   1.792  0.1289 -0.1286 -0.0980
 2857W        W18931  14.468   0.375  12.840  0.0792  0.0977  0.2115
 2858W        W18932   5.836  14.262   0.136  0.1740  0.3025 -0.1042
 2859W        W18933   4.233   6.254  14.467 -0.1985  0.1515 -0.1385
 2860W        W18934   2.728   5.939   1.614  0.2969  0.2450  0.0647
 2861W        W18935  14.089  12.399   3.806 -0.2471  0.1607 -0.0654
 2862W        W18936  12.330  12.006   2.917  0.0593 -0.1092  0.1604
 2863W        W18937   6.746   2.071   4.444 -0.2013 -0.1483  0.1637
 2864W        W18938  10.757   4.291   5.289  0.0690  0.1844 -0.1713
 2865W        W18939  10.080   1.433   2.186  0.2433 -0.2001  0.0448
 2866W        W18940  10.162  15.582  15.601  0.0481  0.3626  0.4094
 2867W        W18941   6.483   1.752   0.039  0.0860 -0.0896  0.0653
 2868W        W18942   4.819  11.970  12.327 -0.2595 -0.0741 -0.0266
 2869W        W18943   9.762  16.130   0.861 -0.0672 -0.0393  0.5489
 2870W        W18944   8.074  14.804  15.453 -0.1182  0.2724  0.0725
 2871W        W18945   4.855   1.588   5.022 -0.2077 -0.1555 -0.1938
 2872W        W18946   1.805  14.272   0.017  0.1379 -0.1090 -0.3485
 2873W        W18947   7.211   0.051   0.194  0.1759  0.0529 -0.1408
 2874W        W18948   0.953  13.954   3.252 -0.1609  0.3071  0.0149
 2875W        W18949  12.550  14.057  11.364 -0.0046  0.1210  0.2235
 2876W        W18950  11.979   6.308  14.903 -0.1794  0.1669  0.0986
 2877W        W18951  14.286   9.303   0.410  0.2628  0.1258  0.0709
 2878W        W18952   3.508  13.457  11.730  0.0145 -0.0802  0.0402
 2879W        W18953  11.622   9.526  11.471  0.0715 -0.0039  0.4487
 2880W        W18954   1.581  12.816  15.283 -0.0912 -0.0053  0.0411
 2881W        W18955  10.978   9.886   1.452 -0.1191 -0.2248 -0.1416
 2882W        W18956   7.319   7.993   2.102  0.2587  0.0986  0.0163
 2883W        W18957   9.286  14.386   4.763 -0.2875  0.0442  0.0779
 2884W        W18958   9.442   7.150   5.756  0.1491  0.4469  0.2203
 2885W        W18959   3.495   2.735   4.128 -0.0110  0.0017  0.0901
 2886W        W18960  12.622  14.577   4.810  0.1449 -0.0014 -0.1904
 2887W        W18961   9.574  16.666  15.214  0.0406  0.3621 -0.0570
 2888W        W18962  16.017  12.286   1.692 -0.1367  0.0540 -0.1717
 2889W        W18963   0.791   4.392   0.181  0.2631 -0.0288  0.0733
 2890W        W18964   1.365  17.545  14.683  0.0476 -0.0724  0.2363
 2891W        W18965  16.993   3.341   0.912 -0.1514 -0.1565 -0.1509
 2892W        W18966   5.749  11.832  12.638 -0.0344  0.1190 -0.1748
 2893W        W18967  11.831   1.195   2.019 -0.1373 -0.1052  0.0691
 2894W        W18968   0.732  10.593  13.858 -0.0892  0.2216  0.2080
 2895W        W18969  12.860  14.030  12.995  0.1586 -0.1306  0.2222
 2896W        W18970   3.649  18.056  12.771  0.0409  0.0493 -0.2063
 2897W        W18971   0.185   2.956   0.075 -0.0694 -0.1120  0.1021
 2898W        W18972   4.624   6.506  11.732 -0.3002 -0.1630 -0.0410
 2899W        W18973  14.075   1.815   1.148  0.3487 -0.2271  0.4974
 2900W        W18974   1.128  14.740  11.688  0.3177 -0.0731 -0.0007
 2901W        W18975   2.531   5.893  15.476  0.0694 -0.2477 -0.2286
 2902W        W18976   2.304  12.914   2.188 -0.1128  0.2625 -0.0450
 2903W        W18977  12.638  14.979  13.736  0.1687 -0.0412 -0.0180
 2904W        W18978  16.745   8.741   1.949 -0.1522  0.0329  0.4253
 2905W        W18979   4.417   4.532  12.875 -0.3597  0.2639 -0.3606
 2906W        W18980  11.607  14.760   0.303  0.0254  0.1023 -0.1340
 2907W        W18981   3.557   6.298   1.518  0.4523  0.1028  0.1511
 2908W        W18982   1.918  13.146   2.541  0.0861  0.1334  0.0955
 2909W        W18983  10.891   0.617   0.940  0.2222 -0.1139  0.0894
 2910W        W18984   6.695   2.607   2.353 -0.1085  0.3408  0.0881
 2911W        W18985   6.319   0.443   1.095  0.3439 -0.1055  0.0502
 2912W        W18986   0.032   8.944   5.697 -0.0915 -0.0112  0.3774
 2913W        W18987   5.598  12.716   0.983 -0.1853  0.1124  0.2982
 2914W        W18988  12.373   9.110   0.493 -0.2676 -0.0339 -0.0208
 2915W        W18989   5.158   6.647  13.513 -0.0497 -0.0300  0.0553
 2916W        W18990  13.568  14.331  13.999 -0.0607 -0.0553  0.0828
 2917W        W18991  17.978   1.235  11.846 -0.0327 -0.2058 -0.1916
 2918W        W18992   7.872  14.053  14.667  0.0152  0.1492 -0.1106
 2919W        W18993  16.967   9.993   4.258 -0.1124  0.1394  0.3574
 2920W        W18994  15.854   4.212   2.675  0.1045  0.3375  0.2811
 2921W        W18995   3.495   5.371   2.443  0.0871 -0.3074 -0.0098
 2922W        W18996   3.048   3.730  13.151 -0.1383 -0.1469  0.0241
 2923W        W18997   0.425  15.651  11.211  0.1800 -0.0457  0.1027
 2924W        W18998   3.935   7.144  12.618  0.2415  0.0587  0.3376
 2925W        W18999   5.010   7.658   0.089  0.2717 -0.0427  0.0372
 2926W        W19000  10.513   3.924   4.636 -0.0155  0.1385  0.1384
 2927W        W19001  16.454   6.024  12.104 -0.3358 -0.2263  0.1674
 2928W        W19002  11.241   6.975  10.838 -0.2768  0.0854  0.0806
 2929W        W19003  13.195   7.327  13.977  0.0221 -0.1087 -0.1350
 2930W        W19004  12.602  16.470   1.683  0.2118 -0.1273 -0.2013
 2931W        W19005   8.685   1.581  12.748 -0.1875 -0.1344  0.0875
 2932W        W19006   9.508  17.619   1.561 -0.0173  0.1539  0.0215
 2933W        W19007   5.585   6.988  12.695  0.1565 -0.0895  0.2461
 2934W        W19008  17.524   3.819  14.002 -0.3800 -0.1427  0.1041
 2935W        W19009   6.810  13.554   1.080 -0.1791  0.1436 -0.0384
 2936W        W19010   3.590   8.346  16.473  0.0578  0.2652  0.0673
 2937W        W19011   3.402  15.582   5.874  0.0671  0.0308 -0.1219
 2938W        W19012  12.261  10.481   5.655  0.0443  0.2552 -0.0930
 2939W        W19013  14.651   5.731   5.902 -0.1136  0.1030  0.2939
 2940W        W19014   4.360  17.767   2.915  0.0861  0.4353 -0.0242
 2941W        W19015  14.342  11.388   0.190 -0.0559 -0.2215 -0.0297
 2942W        W19016  13.141  14.329   2.497 -0.1843  0.3840 -0.1777
 2943W        W19017  10.462   9.220   2.504 -0.0661 -0.0808  0.0059
 2944W        W19018   1.054   0.303  15.713  0.2530  0.0603  0.3419
 2945W        W19019   2.474  17.358   2.205  0.0370 -0.2269 -0.0401
 2946W        W19020  17.621   3.204  12.897 -0.0844  0.0493 -0.4033
 2947W        W19021  11.249  17.998   4.931 -0.2587  0.2239  0.3586
 2948W        W19022  13.970  12.394  12.782 -0.1233  0.4506 -0.3390
 2949W        W19023   6.147   5.677   3.854  0.2344 -0.0780  0.1217
 2950W        W19024  15.402  16.371  14.491  0.1325 -0.1764 -0.1208
 2951W        W19025  10.289  13.666  12.152  0.0237  0.0020 -0.0831
 2952W        W19026   7.811   9.244   5.397  0.0038  0.1758  0.1561
 2953W        W19027   5.913   1.665  14.818  0.1916  0.0640 -0.2552
 2954W        W19028  17.898  12.341  14.529 -0.0705  0.2510  0.2525
 2955W        W19029  11.457  13.286   5.453 -0.2627  0.3291 -0.2391
 2956W        W19030   6.585   8.905   4.574  0.0329 -0.0734  0.2406
 2957W        W19031  15.744   8.628  16.346 -0.0938  0.1020  0.2757
 2958W        W19032   8.123  15.477   4.390 -0.0759  0.1409  0.1865
 2959W        W19033  12.719   0.173   1.650 -0.1598  0.2515 -0.0269
 2960W        W19034  16.753   7.317   4.648 -0.0340  0.2003  0.0214
 2961W        W19035   5.668  14.689  13.194  0.0034 -0.2097  0.0009
 2962W        W19036   2.902  11.421   1.670 -0.0570 -0.0239  0.0100
 2963W        W19037   9.480   7.852  11.880 -0.0257 -0.0030  0.0406
 2964W        W19038   2.915  17.835  15.406 -0.2954 -0.1463 -0.1004
 2965W        W19039  10.643   7.341   0.586 -0.0909  0.1799 -0.0396
 2966W        W19040   9.419  17.909   3.624 -0.1845  0.1611  0.0823
 2967W        W19041   3.130  12.957   1.861 -0.0701 -0.0573 -0.1225
 2968W        W19042   8.590  11.630   0.511 -0.1731 -0.0251  0.0909
 2969W        W19043  17.325  16.346  11.098 -0.0816 -0.0203 -0.0947
 2970W        W19044  10.024  13.044   6.204 -0.0376  0.2156  0.0334
 2971W        W19045  11.834  11.082  14.700 -0.1962  0.0529  0.0664
 2972W        W19046   9.886   3.905   0.421  0.1834 -0.1155  0.1451
 2973W        W19047   0.580  15.439   1.952  0.0386  0.0825 -0.0889
 2974W        W19048   8.110   9.309  13.172  0.1447  0.1481  0.2159
 2975W        W19049  12.145  12.428  15.396 -0.2700  0.0602 -0.3067
 2976W        W19050  16.037  15.707  13.846  0.1642  0.1029  0.0639
 2977W        W19051   9.134  16.910  16.097  0.0890  0.0984  0.0497
 2978W        W19052  16.229   9.262  15.851  0.1414 -0.1818  0.1127
 2979W        W19053  14.329   5.437   6.172  0.2635  0.0039 -0.0171
 2980W        W19054  15.383   1.172   4.816  0.2356  0.1284  0.0504
 2981W        W19055   9.454   8.691   6.145 -0.1311 -0.1710 -0.3799
 2982W        W19056   2.905  17.018   2.927 -0.1025  0.4646  0.2277
 2983W        W19057   5.051   1.321  13.702 -0.1587 -0.1030  0.0583
 2984W        W19058   7.706   9.802   4.636  0.2054 -0.0135  0.2785
 2985W        W19059   9.085   0.436  15.741  0.2497 -0.0014 -0.2183
 2986W        W19060  13.938   0.737  11.512  0.1264 -0.0887 -0.0661
 2987W        W19061   0.859   4.026   3.950 -0.2070 -0.0147 -0.2769
 2988W        W19062   9.759  14.932   0.848  0.2014 -0.1183 -0.3910
 2989W        W19063   6.678  14.487   4.760 -0.1126 -0.0089 -0.1846
 2990W        W19064   9.110  15.111   3.597 -0.1924  0.2050  0.1157
 2991W        W19065  12.278  17.367   4.652 -0.0087 -0.1995  0.1580
 2992W        W19066   7.441   0.491   2.712  0.1004 -0.0685  0.4941
 2993W        W19067   0.854   5.286  16.268 -0.0606 -0.0609  0.0219
 2994W        W19068  12.147  15.574   0.707 -0.1939 -0.1560  0.0781
 2995W        W19069  18.178  10.117  12.973  0.2744 -0.0085 -0.0137
 2996W        W19070   3.651   2.746  11.765 -0.1868 -0.1518  0.0466
 2997W        W19071   4.871  13.371  15.835 -0.2985  0.1239  0.1222
 2998W        W19072   5.169  12.120   1.015  0.0234 -0.5846 -0.0339
 2999W        W19073   2.591   7.858  10.871  0.1127 -0.0833  0.0480
 3000W        W19074  13.610   8.260  11.314  0.0322  0.0664 -0.2731
 3001W        W19075  10.411   6.542  11.774  0.0831 -0.1944 -0.0697
 3002W        W19076  17.165  14.369  12.970  0.0091  0.0791 -0.0122
 3003W        W19077   8.247   7.404   3.149 -0.0189  0.1709  0.0988
 3004W        W19078   3.369   9.638  13.977  0.0189 -0.0046  0.1511
 3005W        W19079  12.919  10.994   3.780  0.2530  0.0854 -0.1589
 3006W        W19080   8.673   1.049  16.132  0.0979  0.1953 -0.4597
 3007W        W19081   0.446   8.939   0.016  0.2145  0.0959 -0.0306
 3008W        W19082   4.678  11.312   0.692  0.2309 -0.0229 -0.1598
 3009W        W19083  12.674  12.251  14.086  0.0623 -0.1869 -0.0520
 3010W        W19084   5.175  13.254   3.110  0.0845  0.2317  0.1330
 3011W        W19085  10.917   5.753   5.497  0.0210  0.0322 -0.1750
 3012W        W19086  15.049   4.182   3.088 -0.0408 -0.3016  0.0058
 3013W        W19087   9.933   1.687   4.793 -0.2703  0.0747  0.2098
 3014W        W19088   7.912  16.839   4.140 -0.2317  0.0359 -0.1352
 3015W        W19089   5.137   2.811  15.690 -0.0096  0.4009 -0.3267
 3016W        W19090   5.640  16.862  14.030 -0.0603  0.1239 -0.0493
 3017W        W19091  11.492   5.383  12.908 -0.2511  0.2169 -0.0629
 3018W        W19092  11.988  17.905  13.445  0.0314 -0.1142  0.1650
 3019W        W19093  14.257  16.983   1.805  0.2227  0.1641  0.0760
 3020W        W19094  18.082  10.306   4.360 -0.2921 -0.1020  0.2440
 3021W        W19095  14.400  12.394   0.317  0.1671 -0.1036  0.2573
 3022W        W19096   0.731  14.760   3.218 -0.1301  0.0888 -0.1525
 3023W        W19097  11.023  12.453  12.969  0.0488  0.3003  0.0515
 3024W        W19098   9.517   8.466  11.754 -0.2070  0.0266  0.3076
 3025W        W19099  16.725   0.760  14.447 -0.3375  0.2665 -0.0950
 3026W        W19100  18.001   0.403   4.178  0.1523  0.2620 -0.0961
 3027W        W19101  12.191   4.402   1.702 -0.0290  0.2633 -0.2698
 3028W        W19102   7.633   5.058  14.570  0.0951 -0.3326  0.0354
 3029W        W19103  10.957  16.278  15.251 -0.1544  0.0420 -0.2379
 3030W        W19104   4.359  17.140   6.153 -0.0489 -0.0394  0.1842
 3031W        W19105   9.650  15.774  11.993 -0.2287  0.2688 -0.2292
 3032W        W19106   7.633   4.440  15.950 -0.0789  0.4486  0.4703
 3033W        W19107  11.498   6.501  14.322 -0.1416 -0.1322  0.2234
 3034W        W19108   1.618   7.669  15.683 -0.0684 -0.0989 -0.4955
 3035W        W19109   5.804  13.691   3.078 -0.0330  0.1743 -0.4648
 3036W        W19110  18.249   7.940  13.059  0.3427 -0.1802 -0.1222
 3037W        W19111   1.620  11.816  15.873  0.1944 -0.2528 -0.1628
 3038W        W19112  16.505   3.396  13.143  0.0935 -0.2655 -0.2197
 3039W        W19113  13.792   0.531   5.600 -0.0610  0.0990 -0.1866
 3040W        W19114   2.798   9.066  13.572 -0.1304  0.4942  0.1453
 3041W        W19115  17.905  12.120   3.761  0.1946  0.3659  0.1204
 3042W        W19116   8.629  13.975   2.539  0.0065 -0.3615 -0.1748
 3043W        W19117   0.141   2.811   3.054 -0.0715  0.1831  0.2414
 3044W        W19118   5.454   6.265   2.571 -0.1396 -0.0255  0.3333
 3045W        W19119   4.364  15.602   1.299  0.0381 -0.2565  0.0009
 3046W        W19120  17.916  14.618   1.602 -0.1115  0.1879 -0.1648
 3047W        W19121  10.352   1.230   2.706 -0.0198  0.2041 -0.1442
 3048W        W19122  15.990  15.172  13.891  0.1716  0.2273 -0.2905
 3049W        W19123   6.697  11.200   3.008  0.2717 -0.4527  0.0318
 3050W        W19124   2.073  17.767  13.730 -0.1941  0.0662  0.4569
 3051W        W19125   9.911  11.454  14.758 -0.1064 -0.1074  0.1238
 3052W        W19126   9.042   1.623   0.805 -0.1149 -0.4126  0.0450
 3053W        W19127  11.504  13.739   0.773  0.0140 -0.2192  0.2986
 3054W        W19128   3.443  13.691   0.877  0.0590 -0.0646  0.1124
 3055W        W19129  12.647  11.412   3.908 -0.0311 -0.2255 -0.0959
 3056W        W19130   7.334   5.695   0.008  0.0139  0.0585  0.1563
 3057W        W19131   7.230  13.798  13.596 -0.0224 -0.3066 -0.2049
 3058W        W19132   3.096   8.492   9.656  0.1673  0.1969 -0.1660
 3059W        W19133   7.281  13.125   5.136  0.1572  0.0771 -0.2915
 3060W        W19134   7.005  10.117  13.123 -0.1144 -0.3784  0.2065
 3061W        W19135   4.215  15.615   5.175  0.2463 -0.2289 -0.0483
 3062W        W19136   9.705   6.433   0.867 -0.3751  0.1841  0.1043
 3063W        W19137  18.008   9.948   0.546  0.0395 -0.0101  0.0111
 3064W        W19138   9.836   0.403   6.532  0.2363  0.3476  0.1330
 3065W        W19139   1.124  12.835  13.242  0.0623 -0.1044 -0.0040
 3066W        W19140   9.646  16.624   3.526  0.2031 -0.1194 -0.0590
 3067W        W19141  13.813  12.354   4.439 -0.0687  0.0794  0.2594
 3068W        W19142  17.228   2.383  16.437  0.0222  0.2459  0.1803
 3069W        W19143  15.455  10.392  12.920  0.1290  0.1112 -0.0937
 3070W        W19144   4.902  14.164  16.400  0.3330 -0.2555  0.1098
 3071W        W19145   9.717  11.306   2.684 -0.1334 -0.0220  0.1732
 3072W        W19146  17.849  14.885  11.717  0.1263  0.0763  0.2636
 3073W        W19147   0.097   0.379  15.620 -0.1499  0.2330  0.1218
 3074W        W19148   3.896  13.716   3.194 -0.0974 -0.0058 -0.0631
 3075W        W19149  16.350  12.930   3.238  0.2412  0.1795  0.2348
 3076W        W19150   3.595   8.202  10.975 -0.1343  0.1327 -0.0633
 3077W        W19151  18.158  14.797   3.190  0.1509 -0.2039  0.3358
 3078W        W19152   1.191  13.272   1.709 -0.0271  0.0048 -0.1550
 3079W        W19153   2.901   1.279   6.565  0.1092  0.2332 -0.0548
 3080W        W19154   9.814   9.347   4.386  0.0450  0.0155 -0.0224
 3081W        W19155   4.917  11.796   0.759  0.0770 -0.1096  0.1679
 3082W        W19156   2.834   2.360   1.898 -0.1949  0.0134  0.0527
 3083W        W19157   7.915  10.267  13.114 -0.4317  0.0146  0.0204
 3084W        W19158   4.371   3.254  12.005  0.0191 -0.0922 -0.0886
 3085W        W19159  11.026  14.860   3.348 -0.0198 -0.0001 -0.0189
 3086W        W19160   0.215   0.676   4.166 -0.2222  0.1852 -0.4386
 3087W        W19161  17.899  15.888  11.591  0.1672  0.1259 -0.0650
 3088W        W19162  16.088   8.200  14.970 -0.3878  0.1792  0.3068
 3089W        W19163   4.128   4.119   5.686 -0.1546  0.1115  0.2065
 3090W        W19164  12.801  13.295   0.543 -0.1617  0.0615  0.1130
 3091W        W19165   1.135  11.063   5.038 -0.0645 -0.1825 -0.0762
 3092W        W19166   3.593  16.392   6.124  0.1827  0.1078  0.2427
 3093W        W19167   3.686  18.116   2.550  0.1644  0.2555  0.2875
 3094W        W19168  10.483  10.257   0.509 -0.0913 -0.2163 -0.2720
 3095W        W19169  16.498  13.871  13.592  0.0332  0.0423 -0.1809
 3096W        W19170   5.490  10.386   1.048 -0.2360 -0.2961 -0.2273
 3097W        W19171  16.413  16.561  12.611  0.1934  0.4755 -0.2936
 3098W        W19172   6.047  17.933  15.578  0.2841  0.2467 -0.2842
 3099W        W19173  14.589   8.102   2.792 -0.1269 -0.0875  0.3093
 3100W        W19174  11.906  10.952   0.132  0.1640  0.1235 -0.0923
 3101W        W19175   6.082  12.150  11.538 -0.2587 -0.1918 -0.0685
 3102W        W19176   7.400   7.277   4.794 -0.2165  0.4076  0.0405
 3103W        W19177   7.338   4.955  12.251 -0.2296  0.3496  0.2109
 3104W        W19178  11.812   6.994   1.710 -0.1367  0.0156  0.0004
 3105W        W19179   9.535  13.729  13.800 -0.1069 -0.3202  0.4056
 3106W        W19180   8.995   9.001  15.212  0.0880 -0.2883  0.1409
 3107W        W19181  12.720  14.565  14.264  0.1792  0.0045 -0.0220
 3108W        W19182   1.748  13.286   2.981  0.0493  0.0979 -0.1586
 3109W        W19183  17.080  15.173  15.554 -0.0737 -0.0526  0.0163
 3110W        W19184   6.198  14.748  13.081 -0.0834  0.0419 -0.0691
 3111W        W19185   4.507   7.261  14.640 -0.1722 -0.1889 -0.1139
 3112W        W19186   6.007   1.477  12.779 -0.0666 -0.2016 -0.0498
 3113W        W19187  16.450   1.329   5.101 -0.0922  0.3566 -0.4316
 3114W        W19188   1.518   0.781   3.655  0.0068 -0.2164  0.0169
 3115W        W19189  11.395   2.734  15.308 -0.0812 -0.1451 -0.0963
 3116W        W19190   7.952   0.753  13.092 -0.2162  0.0426 -0.1376
 3117W        W19191   0.562  11.887   1.595 -0.2400  0.1632 -0.2228
 3118W        W19192  17.183   7.057   0.952  0.3188  0.0511  0.1055
 3119W        W19193  11.911   6.750  15.022 -0.1843  0.1311  0.0477
 3120W        W19194   7.556  17.140   3.011 -0.0047  0.1193 -0.1550
 3121W        W19195  10.381   1.723   2.579  0.1162  0.0025  0.4354
 3122W        W19196   8.854   7.756  12.117  0.0705 -0.2575 -0.0467
 3123W        W19197   2.866   4.035   4.614  0.0816  0.0789  0.1144
 3124W        W19198   2.011   7.188  10.643  0.4339 -0.2665 -0.0327
 3125W        W19199  17.460   9.401  14.915  0.0672 -0.2254  0.0213
 3126W        W19200  14.193  18.154  11.979  0.4049  0.0388  0.1220
 3127W        W19201  14.652   5.454  12.628  0.0026 -0.2777  0.0855
 3128W        W19202   6.106  11.522  13.946 -0.1006  0.2772 -0.3583
 3129W        W19203   0.603   0.004   3.719  0.2981 -0.0384 -0.2581
 3130W        W19204   8.454  11.532   4.533 -0.0532  0.1142  0.0976
 3131W        W19205   2.844  11.060  15.098 -0.2166 -0.0103 -0.1836
 3132W        W19206   9.947  17.960  13.335 -0.1277 -0.1562  0.0317
 3133W        W19207   3.680  12.511  12.646  0.3911  0.3876  0.4488
 3134W        W19208   1.552   5.920  15.816  0.0126  0.0887 -0.0383
 3135W        W19209   6.636   0.134   4.102 -0.0306  0.2122  0.0368
 3136W        W19210   6.514   5.451  12.548  0.1547  0.1530 -0.1785
 3137W        W19211   4.855  14.826  13.770 -0.1189 -0.2169 -0.2379
 3138W        W19212   3.246   7.417  11.175 -0.0791 -0.1776 -0.2267
 3139W        W19213  14.622   2.173  15.995  0.2340 -0.0223 -0.0992
 3140W        W19214   1.336   2.032   2.743 -0.0832 -0.1973 -0.0167
 3141W        W19215  12.935  15.786  16.170  0.3507  0.1355 -0.4337
 3142W        W19216   2.599   2.711  14.152 -0.3514 -0.1713 -0.2533
 3143W        W19217  11.791  14.291   4.281  0.0619  0.1347  0.0182
 3144W        W19218  10.134  16.890  14.381 -0.0726  0.1730  0.0027
 3145W        W19219   2.562  17.494  15.617  0.4189 -0.3013 -0.0057
 3146W        W19220  17.061  11.629  13.263 -0.3373  0.1949  0.3847
 3147W        W19221  13.568   7.050  11.233  0.0064 -0.3521 -0.0357
 3148W        W19222   1.107   6.374  13.983  0.1530  0.4483 -0.1043
 3149W        W19223  14.390  14.592   4.032  0.0573  0.0633  0.0838
 3150W        W19224  10.120   8.315  13.587 -0.1644 -0.0758  0.0770
 3151W        W19225  10.812   4.648  16.239 -0.0192 -0.0057 -0.0860
 3152W        W19226   2.313   2.452   1.064  0.2095 -0.2046 -0.1247
 3153W        W19227   0.111  17.528  14.773 -0.2886  0.0381 -0.2186
 3154W        W19228  16.232   0.076  14.050 -0.2280  0.0257  0.0716
 3155W        W19229  14.084   6.614  15.280  0.0243  0.0375 -0.0445
 3156W        W19230  11.657   5.014  11.841 -0.0295  0.1603  0.2309
 3157W        W19231  10.636   2.738   6.300 -0.4911  0.0571  0.1966
 3158W        W19232  17.672  18.020  16.361  0.1333  0.2474 -0.1462
 3159W        W19233   3.756   0.133  15.986 -0.0583 -0.1275 -0.0777
 3160W        W19234   6.339   5.197   5.127 -0.0049  0.1057 -0.0883
 3161W        W19235  14.258   4.046   5.904 -0.0595 -0.1484  0.3068
 3162W        W19236  13.304   1.442   0.277 -0.0395  0.0622  0.0133
 3163W        W19237  15.745   8.704  14.652 -0.5015  0.1832 -0.1526
 3164W        W19238   9.785  17.186   3.560 -0.1060 -0.3349  0.2028
 3165W        W19239  11.240  10.267  15.519  0.1965  0.1131  0.2829
 3166W        W19240   8.274   3.233  12.483 -0.1776 -0.0581 -0.3372
 3167W        W19241  13.643  11.969  15.397  0.2902  0.2059 -0.0644
 3168W        W19242   3.849   0.842   1.060  0.0813 -0.0029  0.1203
 3169W        W19243   3.454   1.556  13.723 -0.0091  0.1039 -0.2079
 3170W        W19244   3.156  15.143   0.781  0.0077 -0.2093  0.0003
 3171W        W19245  10.838  17.734  12.150  0.1556  0.0142 -0.1683
 3172W        W19246   9.650   5.617  15.244 -0.2763  0.2281  0.2071
 3173W        W19247   1.764   7.789  16.297  0.0176  0.1673  0.0603
 3174W        W19248   7.343  16.375   5.439 -0.0154 -0.0618 -0.1851
 3175W        W19249  12.567   4.117  15.328  0.1106  0.3485 -0.1213
 3176W        W19250  14.045   2.375   0.302  0.0488 -0.1325 -0.1060
 3177W        W19251  16.846   8.463  15.545  0.0105 -0.2959 -0.0260
 3178W        W19252   9.045   3.318   1.596  0.0615 -0.3173 -0.3264
 3179W        W19253  16.010   2.111  14.171 -0.1522  0.0643  0.3589
 3180W        W19254  13.599  17.300   6.057 -0.0496 -0.3714  0.0398
 3181W        W19255   4.487   2.700   1.174  0.0199 -0.3057 -0.0814
 3182W        W19256  15.859  10.834   1.589 -0.0242  0.0096  0.0930
 3183W        W19257   2.817   0.687   5.087 -0.0519 -0.0187 -0.2320
 3184W        W19258  15.046   9.554  13.033 -0.1071 -0.0933  0.2408
 3185W        W19259   8.851  17.827  15.765  0.1033 -0.1894 -0.1366
 3186W        W19260   1.365   2.262   0.929 -0.4278 -0.0738 -0.3312
 3187W        W19261   0.593  10.122   3.039 -0.0952 -0.0676 -0.1308
 3188W        W19262  16.022  15.536   5.889  0.0198  0.1367  0.3942
 3189W        W19263   0.443   5.479  14.934  0.1033 -0.0472 -0.0444
 3190W        W19264   2.466  12.412   0.733 -0.1339  0.2516 -0.3003
 3191W        W19265  17.888   4.471  13.681 -0.1799 -0.3530 -0.0649
 3192W        W19266  12.542  15.083  12.798  0.2157 -0.1934 -0.0855
 3193W        W19267  11.868   8.808   5.072  0.1583  0.0036  0.0808
 3194W        W19268  13.471   3.453  15.419 -0.0375  0.1404  0.0398
 3195W        W19269   6.866  16.898  13.097  0.0389  0.0337 -0.0924
 3196W        W19270   8.850   3.690  15.291  0.2057 -0.3859  0.1311
 3197W        W19271   5.410  13.310  15.871  0.2202 -0.0390  0.1129
 3198W        W19272  14.874   0.231   2.716 -0.1237 -0.0378 -0.0114
 3199W        W19273  11.481   2.311   1.261 -0.2563  0.0618  0.0056
 3200W        W19274   3.086  14.092   4.137 -0.0889 -0.2718 -0.3672
 3201W        W19275  15.128   6.374   0.202 -0.0140 -0.0865 -0.2466
 3202W        W19276  14.584   7.015   5.332  0.0642  0.3070  0.2758
 3203W        W19277   2.818   0.492   1.381  0.3396 -0.1567  0.0635
 3204W        W19278  16.589  11.482   1.748  0.0110 -0.2349  0.0584
 3205W        W19279  13.540  13.191  13.700  0.1180 -0.0933  0.0305
 3206W        W19280   6.002   3.500   1.619  0.3155 -0.6392  0.0741
 3207W        W19281  11.630   1.128  12.450 -0.0480 -0.4364 -0.0795
 3208W        W19282  15.741  10.603  11.109 -0.0726  0.2016  0.0161
 3209W        W19283   1.980   2.331   0.113 -0.0299 -0.0629  0.1777
 3210W        W19284  14.491  14.187   5.608 -0.0604  0.1018 -0.0127
 3211W        W19285   0.418   1.850   0.767  0.1654  0.0690 -0.0193
 3212W        W19286  16.323  10.147  13.230  0.1682  0.2365  0.2409
 3213W        W19287   4.438   1.539   5.857 -0.0297  0.1199 -0.0855
 3214W        W19288   0.984   2.516  12.157 -0.1127 -0.0125  0.4242
 3215W        W19289   5.069  12.082  15.257 -0.0012 -0.0387 -0.0513
 3216W        W19290  16.602   8.316   0.122  0.1774  0.2585  0.2634
 3217W        W19291   5.101  12.967  16.134  0.0298 -0.2050  0.2178
 3218W        W19292  14.217  11.621   4.719  0.4823 -0.0526  0.0341
 3219W        W19293  17.138   5.528   4.894  0.1945  0.0698 -0.0983
 3220W        W19294  14.193  10.621  11.339  0.1110  0.1169  0.0143
 3221W        W19295   5.166   7.777  14.773 -0.1690  0.1881 -0.0150
 3222W        W19296  14.769   8.935  15.021 -0.0682 -0.1690 -0.1144
 3223W        W19297  17.459  16.780  16.089 -0.1110  0.1723 -0.1305
 3224W        W19298   3.694  14.291   2.684  0.1316  0.0258 -0.1364
 3225W        W19299  10.650   5.178   3.297 -0.3100 -0.2756 -0.0689
 3226W        W19300  13.625  14.450   4.518 -0.1217 -0.0068 -0.2058
 3227W        W19301   9.389  15.649  14.860  0.0064 -0.1023 -0.1077
 3228W        W19302  15.205  10.140   5.044 -0.2056  0.1389  0.1654
 3229W        W19303   2.153  13.858  11.260 -0.1112 -0.1647 -0.2130
 3230W        W19304   5.245   9.830  12.260  0.2496 -0.1886  0.1249
 3231W        W19305   7.947   1.267  15.576  0.0262 -0.1399  0.0030
 3232W        W19306  15.112  13.146  14.494  0.0042  0.0017  0.1334
 3233W        W19307  15.443  11.465  12.337 -0.1721 -0.3185 -0.0502
 3234W        W19308   7.240   1.611   3.122 -0.1669 -0.1786  0.0907
 3235W        W19309   6.682   2.236   1.072 -0.0231  0.0455 -0.2388
 3236W        W19310  18.229  17.295  15.267  0.0826  0.0194  0.1668
 3237W        W19311  14.493  18.011  12.529 -0.1376  0.1551 -0.0744
 3238W        W19312   6.341  17.617   2.556 -0.1300 -0.0379 -0.3218
 3239W        W19313   9.797  15.513   3.912 -0.1614  0.1926 -0.2273
 3240W        W19314  13.611   6.938   1.518 -0.2843 -0.4501 -0.1383
 3241W        W19315  12.646   5.962  12.572 -0.0678 -0.1366 -0.0271
 3242W        W19316  15.546  15.495  13.905  0.3442  0.0090  0.1329
 3243W        W19317   4.649   4.068  12.987 -0.1152  0.0676  0.1049
 3244W        W19318   5.022  12.125  16.365  0.0141 -0.1105  0.1873
 3245W        W19319  11.868  11.074   4.287 -0.2177  0.2271 -0.1592
 3246W        W19320   4.865   4.188  15.316  0.0592 -0.1045  0.3960
 3247W        W19321  10.299   3.437   4.327  0.2607 -0.1432  0.0200
 3248W        W19322  17.658   6.298   0.091 -0.0288  0.0641  0.1324
 3249W        W19323   1.660   9.026  12.014  0.1334  0.2088 -0.0156
 3250W        W19324  15.451   8.789  13.083 -0.1855  0.1809 -0.0107
 3251W        W19325  12.030   7.121   0.384 -0.0626 -0.0311 -0.0080
 3252W        W19326   5.906   7.465  14.488  0.3015  0.0566  0.0955
 3253W        W19327   5.941  10.999   3.287 -0.0429  0.1794  0.1372
 3254W        W19328   4.309   3.633   1.351  0.0945 -0.1071  0.0796
 3255W        W19329  14.771  14.050  12.854  0.1186 -0.0172 -0.0066
 3256W        W19330  16.112   4.495   1.673 -0.4344  0.0966 -0.0809
 3257W        W19331   4.500   5.344   2.480 -0.2763 -0.1338 -0.0674
 3258W        W19332  16.144  12.694   1.326  0.0722  0.0741 -0.2430
 3259W        W19333  11.260  12.062  14.273 -0.0630  0.0917  0.2732
 3260W        W19334  14.406  17.784  11.540 -0.0424  0.0474  0.0935
 3261W        W19335   9.740  14.596  12.640  0.0679 -0.1090 -0.0667
 3262W        W19336   4.849   8.580   5.221  0.2872 -0.2224  0.0378
 3263W        W19337  15.940   9.821   3.102  0.2361 -0.2309 -0.0591
 3264W        W19338   9.864   5.804   5.629 -0.0445 -0.0084  0.2536
 3265W        W19339   4.174   5.479   5.179  0.1251 -0.0342  0.1053
 3266W        W19340  16.868   7.952  15.724 -0.0781 -0.0559  0.1930
 3267W        W19341  14.335   2.371  11.401 -0.1417  0.1313 -0.3267
 3268W        W19342  13.111   0.961   0.184 -0.0278 -0.3659  0.0673
 3269W        W19343   5.623   3.170   4.551  0.3291  0.1845  0.2349
 3270W        W19344  12.601   0.244   3.803  0.2211  0.1673 -0.0361
 3271W        W19345   3.073   0.951  11.192  0.1533 -0.0986 -0.1633
 3272W        W19346  11.052  15.044  12.060  0.0155  0.1048 -0.0045
 3273W        W19347   4.535   5.797   0.746 -0.1075 -0.2706 -0.0783
 3274W        W19348  17.267   4.804  12.440  0.1046 -0.0509 -0.0896
 3275W        W19349   5.718   9.348  13.396 -0.2328  0.0606 -0.2223
 3276W        W19350  11.364  11.879   4.323  0.0025  0.2419 -0.0253
 3277W        W19351  12.684   2.106  12.528  0.0808 -0.1286  0.3629
 3278W        W19352  10.022  16.875  12.108 -0.0039  0.2868 -0.0406
 3279W        W19353  17.556  11.999  14.389 -0.0104 -0.1622  0.1765
 3280W        W19354  11.342   3.340   2.757 -0.2166  0.1291 -0.0952
 3281W        W19355   4.409  11.725  15.666 -0.1896  0.4516  0.1377
 3282W        W19356  13.220   7.590   1.081  0.1886 -0.1151  0.3954
 3283W        W19357   1.285   9.357   3.763  0.2864 -0.0787  0.1879
 3284W        W19358   2.723  12.776   3.730 -0.0003 -0.2455 -0.0893
 3285W        W19359  17.745   2.697  12.914  0.0631 -0.0238 -0.0835
 3286W        W19360   4.916   9.275  13.395  0.0618  0.2953 -0.3258
 3287W        W19361  12.970  14.100  14.652 -0.2109 -0.0721  0.0511
 3288W        W19362   4.871  16.394   4.763  0.1542  0.2303 -0.1332
 3289W        W19363   3.974   8.941  15.451  0.2883  0.1834  0.1477
 3290W        W19364  13.439   2.357   2.824  0.0731 -0.1194  0.0671
 3291W        W19365   5.947   5.539  13.697 -0.0641  0.2313  0.1259
 3292W        W19366  11.504   9.461   4.131  0.1083 -0.0609  0.3049
 3293W        W19367   1.086  17.157   3.778  0.1226 -0.0210  0.1303
 3294W        W19368   3.303   1.340   4.520  0.0077 -0.3791 -0.1400
 3295W        W19369  14.405  12.703   3.533  0.0311  0.0082  0.0085
 3296W        W19370   4.293   4.222   0.504 -0.0300  0.0383  0.2919
 3297W        W19371   1.332   2.443   1.927 -0.1949 -0.0194  0.1522
 3298W        W19372  13.429  10.100  13.354  0.0606  0.0203  0.0270
 3299W        W19373   9.071  17.913   5.735 -0.0679  0.3005 -0.1478
 3300W        W19374   1.241   1.229  13.612 -0.2008  0.0819 -0.2960
 3301W        W19375  15.613  17.832   4.729 -0.1891 -0.1121 -0.2389
 3302W        W19376  11.812  13.512   6.283 -0.0213  0.1664  0.0628
 3303W        W19377  13.153  10.047  14.165  0.1211 -0.3847  0.1819
 3304W        W19378   9.573  16.449   5.538 -0.1746 -0.1222  0.0830
 3305W        W19379  13.981   0.798   1.120 -0.2575 -0.0423 -0.1400
 3306W        W19380  16.759   7.818   5.283  0.0585  0.2598 -0.2494
 3307W        W19381  14.955   6.342  15.376  0.4461 -0.1757 -0.2483
 3308W        W19382   7.772   4.707   0.810  0.3152  0.0684  0.1230
 3309W        W19383   3.315   1.446  11.099 -0.0482 -0.3270  0.0513
 3310W        W19384   2.238   5.432   3.140 -0.2192  0.1945 -0.1259
 3311W        W19385  11.226  12.984  12.904 -0.1644 -0.1153  0.1788
 3312W        W19386   3.834   7.960  15.937  0.0346 -0.0656 -0.1332
 3313W        W19387   8.882  13.212  13.175  0.0193  0.0379  0.0914
 3314W        W19388   9.920   6.249  15.996  0.2750 -0.0423  0.0933
 3315W        W19389   4.275   3.716  14.594 -0.0643  0.0061  0.2491
 3316W        W19390  12.075   9.881   5.236 -0.1692  0.0252  0.3568
 3317W        W19391   8.413  16.994   1.851  0.2124  0.1374 -0.0246
 3318W        W19392   3.671   7.709  10.869  0.1734 -0.0412  0.2329
 3319W        W19393   1.694  12.392  16.060  0.0736  0.0945  0.2424
 3320W        W19394  14.104  12.172  16.481 -0.0771  0.1251  0.0626
 3321W        W19395   9.421   9.148  14.991 -0.1566 -0.0539 -0.0785
 3322W        W19396   3.697  10.547   0.781  0.0951 -0.1200  0.2071
 3323W        W19397   9.027   0.382   4.561 -0.0518 -0.0009  0.0730
 3324W        W19398  16.876   5.813   0.163 -0.3240  0.3296 -0.0136
 3325W        W19399   5.567  12.139  14.291 -0.2081  0.0717 -0.1400
 3326W        W19400  16.883   4.509  13.704  0.3219 -0.1772 -0.3216
 3327W        W19401   7.867   5.018  15.837 -0.2133 -0.0758 -0.0172
 3328W        W19402   5.762  12.925  14.393  0.2606  0.0260 -0.0039
 3329W        W19403  10.317  13.272  11.829 -0.2961 -0.1529 -0.0050
 3330W        W19404   5.525   0.280   2.706 -0.2447  0.0058  0.3453
 3331W        W19405  10.424  14.914  13.193  0.0261  0.2944 -0.2116
 3332W        W19406   9.639   4.941   4.661  0.1417  0.2938  0.2310
 3333W        W19407   1.753  11.297   1.931  0.2566  0.0748 -0.2708
 3334W        W19408   0.824   7.370  13.308  0.0347  0.0817  0.0133
 3335W        W19409  12.359   2.268   4.653 -0.1056  0.2854  0.2035
 3336W        W19410   6.001  17.381   5.246 -0.0406 -0.0638  0.2259
 3337W        W19411   3.908   7.390  14.857 -0.1242  0.1172  0.1006
 3338W        W19412   7.733   6.031   5.570 -0.1005  0.1878 -0.0788
 3339W        W19413  18.206   2.125   2.422 -0.1917 -0.2493 -0.1675
 3340W        W19414   8.886  18.227  14.090  0.0036 -0.0072 -0.2879
 3341W        W19415   6.311   2.647  11.123 -0.0864 -0.0463 -0.1574
 3342W        W19416   5.664   4.492  15.619  0.0972  0.2143  0.0921
 3343W        W19417   7.625  17.678  13.698 -0.0974 -0.0372  0.2699
 3344W        W19418   2.716  17.720   5.700 -0.2202  0.2070 -0.0814
 3345W        W19419  17.563   2.777  16.334 -0.1579  0.0002 -0.0637
 3346W        W19420   2.111  13.063  12.389  0.0389  0.2223  0.0516
 3347W        W19421   3.718   8.738   3.185 -0.2881 -0.0177  0.0386
 3348W        W19422   9.600  14.952  12.171 -0.1667  0.1975  0.1381
 3349W        W19423   0.921   2.216   4.893 -0.2367 -0.0070 -0.0991
 3350W        W19424   0.131  16.922  11.083 -0.4639 -0.3004  0.2049
 3351W        W19425   4.273   0.372  14.727 -0.0227  0.3042  0.0145
 3352W        W19426  12.824  10.179   4.870 -0.3024  0.2184  0.0840
 3353W        W19427   5.463   5.960  16.486 -0.1894 -0.1606  0.2480
 3354W        W19428  11.723   0.054  15.271  0.3675  0.2351 -0.0989
 3355W        W19429  13.658  14.260   2.795  0.0486  0.2334 -0.0716
 3356W        W19430   7.210   6.804   4.814 -0.0004 -0.0917  0.1311
 3357W        W19431   1.302  15.809   4.501  0.0963  0.4466  0.0928
 3358W        W19432   1.523   0.494  13.846  0.0516 -0.1865  0.1057
 3359W        W19433   1.268  11.877   0.243  0.0976 -0.2376 -0.1157
 3360W        W19434  10.373  16.316  12.181  0.1690 -0.4770 -0.3945
 3361W        W19435  13.012  12.941  12.037 -0.0856  0.1413 -0.1776
 3362W        W19436  11.577  17.077   3.123  0.0117 -0.1524  0.1382
 3363W        W19437  14.108  13.095   0.381  0.1618  0.0534 -0.0772
 3364W        W19438  13.483   0.480   4.129  0.1867  0.1042 -0.2206
 3365W        W19439  14.052   2.625  12.891 -0.1968  0.0084  0.1017
 3366W        W19440  10.348   5.191   3.988  0.1510  0.2474 -0.1015
 3367W        W19441  15.012   6.769   5.515  0.0114 -0.0769  0.3913
 3368W        W19442  10.835  17.628   5.342 -0.1302  0.3504 -0.1675
 3369W        W19443   0.047   1.605   3.804  0.1520 -0.1236  0.2406
 3370W        W19444   4.417  17.409  13.636  0.0941  0.1230  0.0491
 3371W        W19445   2.645   1.813   5.141  0.0028  0.0063  0.1308
 3372W        W19446   9.876   0.488  15.701  0.1477 -0.4206  0.1081
 3373W        W19447  12.402  12.429  15.977  0.1163  0.1101 -0.4182
 3374W        W19448   6.955  13.830   4.363 -0.0963 -0.0970 -0.0372
 3375W        W19449   2.808   7.787  11.868 -0.1794  0.1557 -0.0614
 3376W        W19450   7.563   9.521   1.854 -0.1472 -0.1887  0.1655
 3377W        W19451   3.315  15.776  15.917 -0.0817 -0.4701  0.0286
 3378W        W19452   4.388   4.828   4.465 -0.1142 -0.2221 -0.2304
 3379W        W19453   4.016   6.187  11.376 -0.2067  0.0948 -0.0596
 3380W        W19454   0.150  10.338  14.996  0.1209 -0.0153 -0.1515
 3381W        W19455  15.080   4.515   2.234  0.2129  0.0570  0.0298
 3382W        W19456  17.120  16.664  15.745 -0.1919  0.0427  0.1708
 3383W        W19457   1.992   9.967  12.977  0.1323 -0.2278 -0.1442
 3384W        W19458  17.618   1.781   4.710  0.1935 -0.2171 -0.0520
 3385W        W19459   6.605   3.324  12.478 -0.0989 -0.0174 -0.0748
 3386W        W19460  13.555  10.314  12.864  0.0588  0.0311  0.0696
 3387W        W19461   1.540  11.127  16.438  0.1389  0.0481 -0.0443
 3388W        W19462  16.003  14.760   5.229  0.0168 -0.0262 -0.1801
 3389W        W19463   6.877  10.546  14.415  0.0376 -0.1076 -0.0464
 3390W        W19464  17.099   2.748  11.466  0.3357 -0.2314  0.1667
 3391W        W19465  16.137  17.854  15.460  0.2961  0.0866  0.3734
 3392W        W19466   8.121  17.675  13.473  0.0605 -0.2612  0.1105
 3393W        W19467   9.919  11.748   5.705  0.0846 -0.0240  0.3087
 3394W        W19468  10.536  10.509  13.054 -0.0880 -0.1967  0.2597
 3395W        W19469   8.407  16.356  11.172  0.1257  0.1060  0.0234
 3396W        W19470  15.575   8.410  15.056 -0.0793 -0.4494  0.1069
 3397W        W19471   0.981  16.260  16.146 -0.0606  0.4843 -0.2910
 3398W        W19472  11.512   6.009   0.368 -0.2220 -0.1629 -0.0834
 3399W        W19473   3.572   1.089  12.858  0.0970 -0.2539  0.1042
 3400W        W19474   3.933  13.668  16.439  0.0992 -0.6785 -0.6062
 3401W        W19475   1.087  10.185   2.727 -0.2544 -0.2211 -0.2367
 3402W        W19476   1.027  15.491   1.692 -0.3434 -0.4418  0.6322
 3403W        W19477   1.027   4.591  12.827  0.0187 -0.2935  0.2525
 3404W        W19478   0.220   3.582   0.889  0.1765 -0.1509 -0.0360
 3405W        W19479   1.682   7.093  13.877 -0.3513  0.1921 -0.0445
 3406W        W19480  14.866  16.906  15.579 -0.1012  0.0908 -0.2086
 3407W        W19481   1.365   0.525  12.008 -0.3900  0.0627 -0.0760
 3408W        W19482  16.494   7.827  11.777  0.0254  0.0928  0.0932
 3409W        W19483   2.293   3.987   2.764  0.1396 -0.2408  0.1486
 3410W        W19484   8.865   5.663   0.063 -0.1324  0.4050  0.1361
 3411W        W19485  15.561   8.583   1.458  0.2823  0.1387 -0.0234
 3412W        W19486   5.451  17.290  13.054  0.2181  0.3836  0.0563
 3413W        W19487   3.472  15.370  15.043  0.1533 -0.1450  0.3735
 3414W        W19488   6.971   9.726  12.837 -0.2069 -0.0895  0.3008
 3415W        W19489  15.220   1.383   0.953  0.1324  0.2055 -0.0788
 3416W        W19490   2.663   4.207  16.233  0.1458  0.1200  0.2765
 3417W        W19491  12.756   6.619   0.298 -0.2416  0.2902  0.2769
 3418W        W19492  10.165   1.763   0.187  0.1810 -0.0334  0.0381
 3419W        W19493   9.329   2.126   1.599  0.1509 -0.2572  0.1935
 3420W        W19494   4.543  11.937   5.841  0.1351 -0.1783 -0.2350
 3421W        W19495   6.796   3.024   3.733  0.0615  0.1655 -0.0829
 3422W        W19496   1.044   5.406   2.495 -0.0556  0.0213 -0.3545
 3423W        W19497  10.379   2.184   2.335 -0.0602 -0.3861 -0.2047
 3424W        W19498   7.980  11.905   4.221  0.0584  0.2180  0.1612
 3425W        W19499  10.982   4.586  15.502  0.1061 -0.2763 -0.4945
 3426W        W19500  10.668   9.583   1.126 -0.0255  0.2778  0.5143
 3427W        W19501   9.139   4.305   2.820  0.0937 -0.4056  0.0130
 3428W        W19502  18.216   3.999   1.077 -0.1238  0.0663  0.1740
 3429W        W19503   7.014   2.701  15.497  0.1416  0.0287  0.0700
 3430W        W19504   1.394  17.680   1.051  0.1414  0.0331  0.1564
 3431W        W19505  14.074  10.681   0.951  0.2009  0.0577 -0.2017
 3432W        W19506   3.038  16.825   1.617  0.1655 -0.0058  0.1834
 3433W        W19507   7.989   4.858  12.535  0.1626 -0.4120  0.1086
 3434W        W19508   5.079   6.619   2.375 -0.2949  0.0548  0.1506
 3435W        W19509   8.886   6.642  13.390  0.0695 -0.0389 -0.0026
 3436W        W19510  16.850  16.371   1.468 -0.2463  0.0590  0.2395
 3437W        W19511   0.651  12.854   5.742 -0.1240  0.0108  0.1313
 3438W        W19512  12.467   8.312   5.387 -0.1326 -0.0341 -0.1033
 3439W        W19513   9.487   7.553   4.418  0.1896  0.3734  0.1797
 3440W        W19514   7.837  12.511   0.570  0.1116  0.0711 -0.1530
 3441W        W19515   8.441   3.191   4.676  0.2695 -0.1180 -0.2303
 3442W        W19516   0.749   8.164  14.341  0.0184  0.1730  0.0793
 3443W        W19517   5.689  17.521   1.964 -0.0136  0.0962 -0.3390
 3444W        W19518   4.692   5.634  11.527 -0.0579 -0.1166 -0.1931
 3445W        W19519  16.543  10.102  15.580 -0.0649 -0.2329  0.1003
 3446W        W19520  10.290   9.797  12.482  0.1703  0.2076  0.0504
 3447W        W19521   0.425   6.499  11.190 -0.2521 -0.1286  0.0769
 3448W        W19522   8.260  15.837  13.688  0.2256 -0.0386 -0.1926
 3449W        W19523  16.349   6.331   2.632 -0.2714  0.1025  0.2101
 3450W        W19524  15.666  18.139   2.442 -0.3334  0.2068 -0.0436
 3451W        W19525  13.990   7.331   2.400  0.1080 -0.2380  0.0548
 3452W        W19526  17.703   6.212  15.326  0.0613  0.0486 -0.2360
 3453W        W19527   3.743  15.291  12.789  0.0364 -0.0489  0.3282
 3454W        W19528  15.066   6.403   4.285  0.0378 -0.4294  0.0101
 3455W        W19529   3.772   8.721  14.292  0.0504 -0.1757  0.1297
 3456W        W19530  13.221   7.703  15.365  0.0774 -0.2557 -0.2072
 3457W        W19531  12.444  16.701  15.206 -0.1828  0.1794  0.2304
 3458W        W19532   3.035   4.595  12.655 -0.0751  0.1464  0.3679
 3459W        W19533   4.342   0.412   3.876  0.0941  0.0046  0.2733
 3460W        W19534  13.149   7.591   0.415  0.1399 -0.0755  0.0160
 3461W        W19535  13.176   3.012  15.483 -0.1448  0.0105  0.1397
 3462W        W19536   7.357   5.772  14.805  0.3513 -0.1496 -0.0544
 3463W        W19537  17.641   5.669  12.221 -0.3483  0.0461 -0.0080
 3464W        W19538   1.592   9.007   3.344 -0.1811 -0.1903  0.3087
 3465W        W19539  14.511   9.260  13.580  0.2160 -0.0896 -0.0016
 3466W        W19540  18.251   4.076   4.124 -0.0687 -0.4145 -0.0578
 3467W        W19541  13.943  11.899   0.418  0.0404 -0.0940  0.0292
 3468W        W19542   3.210  11.803  14.370 -0.2724 -0.2849 -0.1288
 3469W        W19543   7.661   3.651  14.309 -0.3233 -0.0674 -0.0883
 3470W        W19544   8.373   0.128  13.414 -0.4032 -0.1669 -0.4438
 3471W        W19545   1.276   0.000   0.986 -0.4375 -0.1233 -0.0396
 3472W        W19546   5.947   4.988   4.820 -0.1739  0.3454  0.0224
 3473W        W19547  13.321  17.536   2.663  0.2498 -0.1129  0.5405
 3474W        W19548   5.893  18.099  10.974  0.1753  0.3070 -0.3857
 3475W        W19549  13.084   0.605   0.976 -0.0003 -0.0760  0.3022
 3476W        W19550   3.656  10.192  11.374 -0.1587 -0.3766  0.2777
 3477W        W19551   4.456   3.580   4.886 -0.2521 -0.1382 -0.0287
 3478W        W19552  15.512   8.353   5.481  0.6842  0.2780  0.0494
 3479W        W19553  17.265  16.938   2.064  0.0505 -0.0680 -0.2759
 3480W        W19554  12.370  16.590   4.333 -0.2952  0.0716 -0.1556
 3481W        W19555   9.533   6.404  10.455  0.3261  0.0184 -0.1448
 3482W        W19556  15.170   1.385  12.484 -0.0871 -0.1149  0.2550
 3483W        W19557   3.006   0.148   5.178 -0.0106  0.0934  0.1930
 3484W        W19558   0.228   1.312   2.042  0.2081  0.0106 -0.2035
 3485W        W19559   4.068  16.539   3.679  0.0326  0.2624  0.1293
 3486W        W19560  11.069   9.407   4.966 -0.1947  0.0885  0.1143
 3487W        W19561   0.543   8.017   2.186 -0.1084 -0.1212 -0.4018
 3488W        W19562   9.765  15.321   0.475  0.1425 -0.0762  0.1267
 3489W        W19563   2.585  11.927  13.012  0.0780  0.2079 -0.2274
 3490W        W19564  16.072  15.505   5.346 -0.0335  0.2217 -0.2215
 3491W        W19565  14.976  15.846  12.340  0.5003  0.0089 -0.3026
 3492W        W19566   4.693   5.417   1.920 -0.2416 -0.0531  0.2879
 3493W        W19567   4.173   6.722  10.264  0.0525  0.1257 -0.1965
 3494W        W19568  12.278  10.141   3.221  0.1874  0.0451 -0.0507
 3495W        W19569   2.121  16.421  14.154 -0.0249 -0.3142 -0.2605
 3496W        W19570   1.724  16.169  14.188  0.1051  0.2806  0.0181
 3497W        W19571   2.677  12.142   6.380 -0.0340 -0.1114  0.2271
 3498W        W19572  13.842   1.382   2.164 -0.1038 -0.0231  0.0632
 3499W        W19573   9.966  12.541   1.501  0.0866 -0.3206  0.0364
 3500W        W19574   6.989   3.979   1.848  0.2125  0.1459  0.2271
 3501W        W19575  12.052  13.427  15.641  0.0381 -0.2111  0.1555
 3502W        W19576   5.400  18.147   5.524  0.0771  0.0290  0.2440
 3503W        W19577  15.006   8.957  13.310  0.1319  0.3024 -0.1144
 3504W        W19578   5.689  17.500  14.761 -0.0911 -0.0104 -0.1411
 3505W        W19579  14.672   8.163  16.398  0.0585  0.4151  0.0408
 3506W        W19580  12.649  10.230  14.105 -0.1372  0.0483  0.2378
 3507W        W19581  11.899   1.378   0.697 -0.1016  0.2463  0.0183
 3508W        W19582   2.087   1.573   4.287  0.0753 -0.3061  0.1867
 3509W        W19583   8.843   2.629  11.822  0.0940 -0.1946  0.1265
 3510W        W19584  14.914   2.887  14.156  0.2309 -0.2720 -0.1040
 3511W        W19585   9.446  18.233   2.835  0.3349  0.1097 -0.0500
 3512W        W19586  13.227   5.060   1.434  0.0463  0.0751 -0.3261
 3513W        W19587  14.619   5.355  13.093 -0.0576  0.0501 -0.3640
 3514W        W19588  10.988   7.948  14.801  0.2118  0.0396 -0.2057
 3515W        W19589  11.451   4.814  13.204  0.3172  0.1126  0.1723
 3516W        W19590  13.510   4.204   1.462 -0.2173  0.0598  0.2899
 3517W        W19591  18.178  12.046  14.079  0.2750  0.0314  0.1292
 3518W        W19592   8.344   5.408   5.229 -0.1368 -0.3514  0.0535
 3519W        W19593   9.856   6.841  12.930  0.4160 -0.1979 -0.1504
 3520W        W19594  16.980  14.075  16.143  0.1151 -0.2974  0.3180
 3521W        W19595  15.456  17.298  11.960 -0.4375 -0.3592  0.0822
 3522W        W19596   7.543  10.024  11.663 -0.3713  0.2481 -0.2860
 3523W        W19597  15.442  17.454   1.774  0.2279 -0.2583 -0.2817
 3524W        W19598   9.401   9.064  12.275  0.0722  0.2106 -0.1528
 3525W        W19599   2.868   0.484  15.478  0.1851  0.0919 -0.0319
 3526W        W19600  13.805  16.783   4.429  0.1218  0.0123 -0.0035
 3527W        W19601   9.002   8.772   3.901  0.0770  0.0885 -0.1735
 3528W        W19602  11.387   1.295   0.602 -0.1168  0.0866  0.1465
 3529W        W19603   6.248  11.217  16.107  0.0168 -0.1136 -0.0870
 3530W        W19604   3.009   6.673   1.255  0.2546 -0.2149 -0.3593
 3531W        W19605  17.962   8.296  15.214  0.0188  0.1221  0.1358
 3532W        W19606  16.344  11.373  14.366  0.3108  0.2091  0.1365
 3533W        W19607   5.440   5.456   3.909 -0.1269  0.1237 -0.0387
 3534W        W19608   3.058  14.287  16.105 -0.0193  0.5110  0.2588
 3535W        W19609   7.264   4.086   1.406 -0.0640  0.0212  0.0542
 3536W        W19610   3.981  17.719  15.729  0.1150  0.0871 -0.0193
 3537W        W19611   3.397   0.850   1.822 -0.2615 -0.0130  0.0807
 3538W        W19612  10.626  13.060  16.094  0.0337  0.3852  0.0026
 3539W        W19613   8.164  15.626  16.382 -0.1059  0.0450 -0.1289
 3540W        W19614  11.813  17.340  15.861  0.0245  0.0071 -0.1458
 3541W        W19615   7.992  16.519  15.950  0.3944  0.2062 -0.1488
 3542W        W19616   2.549  16.268  11.419 -0.0064 -0.0732 -0.0053
 3543W        W19617  14.382  16.615  13.158  0.2092 -0.0140  0.0358
 3544W        W19618   3.208   8.302  13.914  0.0578  0.1319 -0.2932
 3545W        W19619   6.002   6.050  14.202 -0.0114 -0.1498  0.2142
 3546W        W19620  18.015   1.276  12.477 -0.0236 -0.1921  0.1716
 3547W        W19621  12.216  10.192  15.602  0.1328 -0.1520  0.2245
 3548W        W19622  15.302  18.135  12.639 -0.0250  0.0846 -0.0142
 3549W        W19623   9.853  16.883  13.469 -0.0783 -0.1666 -0.0300
 3550W        W19624   8.943   9.401  16.447 -0.0260  0.2215  0.0759
 3551W        W19625   6.134   8.202   2.411  0.4175  0.3195  0.2095
 3552W        W19626   0.067  13.419   2.330 -0.0508  0.1001 -0.2153
 3553W        W19627  11.065   6.742  15.334 -0.0997  0.0342  0.0034
 3554W        W19628   7.897  10.485   4.082  0.0290 -0.0254 -0.1753
 3555W        W19629   9.241   7.994   1.859 -0.0787 -0.1433 -0.0366
 3556W        W19630   1.406   2.458   5.040 -0.0586 -0.2776 -0.0144
 3557W        W19631   8.321  17.731   0.199 -0.2921 -0.1987  0.3499
 3558W        W19632   3.839  17.550  13.477  0.1208 -0.0125  0.2422
 3559W        W19633   1.655   9.833  15.988 -0.2316 -0.1308  0.0771
 3560W        W19634   6.690  10.582   3.660 -0.0062 -0.2425 -0.4091
 3561W        W19635  13.950  10.863  15.983  0.2315 -0.1250  0.0889
 3562W        W19636  12.840   1.469   6.112 -0.0316  0.3705  0.3342
 3563W        W19637  15.199   9.130  14.854 -0.3506 -0.2585  0.0119
 3564W        W19638  12.892   4.526  12.320 -0.0576  0.1588  0.0647
 3565W        W19639   1.027  16.240  11.565  0.1962  0.1601 -0.2173
 3566W        W19640  14.174   6.514  11.623 -0.0483  0.1331 -0.0192
 3567W        W19641  15.700   0.775  14.459  0.0533  0.0795  0.0918
 3568W        W19642  15.883   4.425  14.292 -0.3259 -0.3519  0.1946
 3569W        W19643   6.512   3.830   3.208 -0.0344 -0.2342 -0.0219
 3570W        W19644   4.080   9.920   1.190 -0.3429  0.1415  0.2502
 3571W        W19645  14.130  13.497  11.958  0.1803  0.1087  0.2628
 3572W        W19646  10.616  11.056  12.169 -0.0133 -0.0800 -0.3399
 3573W        W19647   8.535  12.291  13.512  0.0056 -0.0108 -0.2577
 3574W        W19648   3.881   8.946   5.197  0.0582  0.0853  0.0090
 3575W        W19649  12.164   0.603  11.929 -0.2840  0.1795 -0.1716
 3576W        W19650  17.155   8.380   1.672  0.0967 -0.1041  0.1071
 3577W        W19651   7.380   1.375  12.795  0.3898  0.0819 -0.3006
 3578W        W19652   9.926   1.642  12.293 -0.1020 -0.2934 -0.0507
 3579W        W19653   4.225  11.517   1.344  0.0526  0.1241 -0.4499
 3580W        W19654  10.240  13.220   5.635  0.0530  0.0044  0.1175
 3581W        W19655   9.756  10.451   4.896 -0.0172  0.0205  0.3981
 3582W        W19656   5.379   4.292   2.033 -0.0134 -0.0955  0.1535
 3583W        W19657  13.947  10.207   4.444  0.3546 -0.1078  0.0248
 3584W        W19658   4.874   2.240   4.311  0.2993 -0.0787  0.0970
 3585W        W19659  14.494   0.017   0.125 -0.1087  0.0843 -0.2404
 3586W        W19660   9.401   9.060   4.206  0.0500 -0.1584  0.0488
 3587W        W19661  14.486  12.418  15.198 -0.0348  0.3800  0.0173
 3588W        W19662   6.036  14.127   1.145 -0.1108 -0.1766  0.0936
 3589W        W19663  14.676   0.453   3.868 -0.0977  0.0522 -0.3403
 3590W        W19664   4.872   7.542  13.597  0.0586 -0.0320  0.1333
 3591W        W19665   5.528   8.089  14.324 -0.0195 -0.6209  0.0096
 3592W        W19666  13.960  10.481  14.253  0.0173  0.1978 -0.0574
 3593W        W19667   4.230   4.792  14.868 -0.0528 -0.0714 -0.1367
 3594W        W19668  14.034  13.862   0.358  0.0065 -0.1166 -0.1568
 3595W        W19669   2.368  15.155   2.822 -0.3492 -0.1039  0.2587
 3596W        W19670   8.824   8.302   2.692  0.0626  0.0429  0.1571
 3597W        W19671   4.918  10.201  12.482  0.0179 -0.1470 -0.2245
 3598W        W19672  15.265  14.231   4.212 -0.3620 -0.1794  0.0125
 3599W        W19673  15.279  15.417  12.366  0.1682 -0.3179 -0.0078
 3600W        W19674   1.787  17.387  12.779  0.3932  0.2967  0.0401
 3601W        W19675  17.926  10.448   5.280 -0.1274 -0.2116 -0.0385
 3602W        W19676  14.266   7.578   1.834  0.0034  0.0224 -0.3093
 3603W        W19677   0.304  11.617  15.159  0.0283 -0.1878  0.1196
 3604W        W19678  17.816  16.624  11.905  0.1295  0.1966 -0.1761
 3605W        W19679   3.895   7.978   1.002  0.0556 -0.0559  0.0688
 3606W        W19680   9.609   0.657  13.769  0.0558  0.1557 -0.0371
 3607W        W19681   0.967  12.233  15.181  0.1804 -0.0353  0.1577
 3608W        W19682   9.174   2.252  12.728 -0.0166 -0.0330 -0.0914
 3609W        W19683  17.053  13.846  13.601  0.1225  0.0801  0.1133
 3610W        W19684   5.745   6.392   3.787 -0.0144 -0.0179  0.0220
 3611W        W19685  18.123  11.798   0.693  0.1683 -0.2425 -0.2830
 3612W        W19686  10.027   6.474  12.630 -0.0312 -0.0493 -0.0679
 3613W        W19687   2.127  10.181   2.614 -0.2471  0.2711 -0.0051
 3614W        W19688  13.471   2.305   1.417  0.0468 -0.0879  0.0216
 3615W        W19689  13.837   1.472  15.239 -0.2153 -0.0739 -0.2104
 3616W        W19690  14.688   2.221   3.390 -0.2276  0.0805 -0.0100
 3617W        W19691   8.264  13.048  12.764 -0.2864  0.3609  0.0273
 3618W        W19692   6.306   0.154   0.657  0.0858  0.2517 -0.0999
 3619W        W19693   7.940  15.450  12.899 -0.1822 -0.0394 -0.1187
 3620W        W19694  15.764  13.435   4.466  0.0670 -0.3279  0.4880
 3621W        W19695   3.921   0.563  13.436  0.0218  0.1334 -0.3240
 3622W        W19696   5.494  13.917  16.488  0.1982  0.1034  0.1545
 3623W        W19697   6.078  14.529   5.010  0.0038 -0.2199  0.2250
 3624W        W19698   0.091   9.373   4.426 -0.2093 -0.2712 -0.2084
 3625W        W19699  12.261  12.342  12.123  0.1138  0.2723  0.1612
 3626W        W19700   2.130  10.905   1.637  0.0849 -0.2094 -0.2432
 3627W        W19701  12.980  11.172  11.915  0.2443  0.0378  0.0135
 3628W        W19702   9.658   5.749  12.210  0.0238  0.0168 -0.0353
 3629W        W19703  17.919  15.851  14.404  0.1008 -0.0558  0.2694
 3630W        W19704   9.046   0.144  15.068  0.0115 -0.2739  0.0733
 3631W        W19705  16.120   9.759   4.002  0.1333  0.0627  0.1503
 3632W        W19706   9.182  15.558  12.992 -0.2473 -0.0486  0.2108
 3633W        W19707   6.522   3.938   2.747 -0.0200 -0.0600 -0.1291
 3634W        W19708  11.567   9.046  15.898 -0.2358 -0.2416 -0.0089
 3635W        W19709  14.727   3.085   3.167 -0.0117 -0.2118  0.0879
 3636W        W19710  10.861   9.514  15.967  0.1388 -0.0371 -0.0928
 3637W        W19711   0.235  11.555  15.865 -0.1801 -0.0236 -0.0679
 3638W        W19712   8.419  12.168   4.128  0.0738 -0.0686  0.0920
 3639W        W19713  12.984  17.107   5.818 -0.2552  0.3041  0.0867
 3640W        W19714   9.025  11.150   1.636  0.0697 -0.1458  0.0102
 3641W        W19715   5.393   7.993   5.251 -0.2446  0.1199 -0.0716
 3642W        W19716  12.196  17.528  15.540  0.1942 -0.1272 -0.2311
 3643W        W19717   6.123  13.002  16.438  0.0854 -0.4106 -0.2345
 3644W        W19718   0.462  11.130  12.035  0.2408 -0.1586  0.1090
 3645W        W19719  11.775  18.064   3.390 -0.1018  0.1928  0.3218
 3646W        W19720  16.438  17.539  13.175  0.1806  0.0143 -0.0057
 3647W        W19721   6.097  10.275  13.028  0.3227  0.0042  0.3227
 3648W        W19722  11.950  13.695  12.223 -0.0721 -0.0457  0.1419
 3649W        W19723   9.819   8.281   3.843 -0.1253 -0.1489 -0.0267
 3650W        W19724   1.636   7.347  11.159  0.0987 -0.2311 -0.1390
 3651W        W19725   1.561   8.188  15.872  0.3037 -0.1591 -0.0041
 3652W        W19726  14.754  11.484  11.634  0.0942  0.0518  0.1294
 3653W        W19727  12.539  15.086   3.865  0.2269  0.2492 -0.1709
 3654W        W19728   5.876  11.174  12.934 -0.0562 -0.0611  0.4051
 3655W        W19729  12.267   0.727   3.699 -0.1003  0.1296  0.1869
 3656W        W19730  17.107  13.543   5.665 -0.0949  0.0274  0.0816
 3657W        W19731   4.392   9.510  16.141  0.2134 -0.1219 -0.3204
 3658W        W19732  12.796  17.784   2.568  0.0320  0.0563 -0.3035
 3659W        W19733  17.666   8.524   4.572  0.2048  0.0010  0.1102
 3660W        W19734   8.368   1.735   4.698 -0.1307  0.3774  0.0890
 3661W        W19735   4.370  16.087   2.027  0.0118  0.1140  0.1635
 3662W        W19736  16.164  17.136  14.135  0.3137 -0.3167  0.1362
 3663W        W19737  13.001   3.045   4.891 -0.0074 -0.1724 -0.0038
 3664W        W19738  13.519  17.144   0.650  0.1336  0.0586 -0.1152
 3665W        W19739   6.115   8.481  15.827 -0.2687  0.0570 -0.2270
 3666W        W19740   9.611   9.095  15.486 -0.0601 -0.1646 -0.0609
 3667W        W19741   8.527   0.037  15.133  0.2775 -0.0895 -0.0795
 3668W        W19742  16.920   3.393   1.649  0.1102 -0.0024  0.1962
 3669W        W19743  16.844  11.910   3.883 -0.0462  0.0319 -0.2931
 3670W        W19744   2.462  16.607   0.768 -0.0890 -0.0496  0.0266
 3671W        W19745  13.430  16.013   4.675 -0.2014  0.2594  0.1676
 3672W        W19746   7.655   8.859   2.108 -0.1063  0.0693 -0.1837
 3673W        W19747   0.749   4.867   0.042 -0.0050  0.0861 -0.0207
 3674W        W19748   2.269   5.260   0.310  0.1927  0.0011 -0.0834
 3675W        W19749  12.956  16.247   3.348 -0.0822  0.0441  0.2067
 3676W        W19750  12.264   7.015  14.397  0.0114  0.1263 -0.0981
 3677W        W19751   2.813  14.768   4.767 -0.0615  0.2952 -0.2905
 3678W        W19752   9.841  16.288  16.009  0.0170 -0.2888 -0.1753
 3679W        W19753  15.524  13.458  14.612 -0.1342  0.0403  0.1972
 3680W        W19754  17.157   7.481   1.746  0.1360 -0.2176  0.2333
 3681W        W19755   7.934   1.621  12.160 -0.2562 -0.1133 -0.0011
 3682W        W19756  10.110   3.943  16.130 -0.1416  0.0862 -0.3411
 3683W        W19757  11.461  14.483  14.205  0.1554 -0.2525 -0.0721
 3684W        W19758   1.260  16.601  13.037 -0.1999  0.2381  0.2258
 3685W        W19759  10.175   0.612   1.448 -0.2456  0.1954 -0.2556
 3686W        W19760  17.797  11.487  13.612  0.0830  0.2889  0.1125
 3687W        W19761   7.692   7.849  12.980 -0.1489 -0.0535 -0.1940
 3688W        W19762   6.584   1.774  15.986  0.4607  0.4033 -0.1186
 3689W        W19763   0.278   9.306   3.962  0.1880  0.0457  0.0627
 3690W        W19764   9.505   7.151  15.904 -0.1045  0.0483  0.0497
 3691W        W19765   2.891  17.859   1.339  0.1982 -0.1630 -0.0646
 3692W        W19766  12.385   9.967  11.002 -0.1372  0.1599 -0.2301
 3693W        W19767  13.064   1.724   5.631 -0.0360  0.3383 -0.1286
 3694W        W19768   2.355   8.338  14.797 -0.2604  0.2026  0.2063
 3695W        W19769  14.486  13.715   3.838 -0.4063 -0.2658 -0.2317
 3696W        W19770   1.800  13.911  15.088  0.0092 -0.3072 -0.0268
 3697W        W19771  12.982   8.829   1.747  0.4545  0.1012  0.3075
 3698W        W19772   6.042   5.153  14.157  0.2941 -0.0326 -0.0667
 3699W        W19773  11.162  17.429   3.052 -0.4069  0.1246  0.0254
 3700W        W19774   7.340  13.824   4.024  0.0793 -0.1867 -0.1325
 3701W        W19775  16.536   2.156   2.946 -0.1475  0.3568 -0.0057
 3702W        W19776  14.799   0.552  16.306  0.2291  0.1483  0.2029
 3703W        W19777   7.498  16.657   4.729  0.2040 -0.1090 -0.0288
 3704W        W19778   1.898   3.365  13.750 -0.0407 -0.0356  0.3217
 3705W        W19779   6.085  15.435  12.380  0.0876  0.0595  0.2301
 3706W        W19780  16.284   2.177  15.845  0.1827 -0.3195 -0.0596
 3707W        W19781   4.073   1.546   0.863  0.5193 -0.1640  0.1866
 3708W        W19782   1.093  17.933   1.472  0.2591 -0.2246 -0.1850
 3709W        W19783   1.542   3.875  16.403  0.0149  0.0593  0.3252
 3710W        W19784  12.957  12.092  15.292  0.1481 -0.0658  0.0345
 3711W        W19785   6.334   4.865   2.063 -0.1327 -0.0677 -0.0443
 3712W        W19786  13.763  13.883  11.992  0.0508 -0.3069 -0.0952
 3713W        W19787   5.238  17.816   5.094  0.5082 -0.0332 -0.1288
 3714W        W19788   7.356  10.216  15.632  0.0888  0.4880  0.1100
 3715W        W19789   5.107   7.147  13.290 -0.1106  0.0719 -0.0839
 3716W        W19790   8.773  14.921   0.772 -0.1674 -0.0549 -0.2391
 3717W        W19791   5.959  14.290  14.822  0.1388  0.0627  0.2238
 3718W        W19792   0.715  18.218  11.474  0.0179  0.3102  0.1119
 3719W        W19793  12.725  15.504  11.964 -0.0141 -0.1355 -0.0462
 3720W        W19794  15.894   8.551   1.812  0.1558 -0.0019  0.1630
 3721W        W19795   4.824   5.745  12.932 -0.2804  0.2489  0.1396
 3722W        W19796   7.615   8.990   0.074  0.1572 -0.0616 -0.1251
 3723W        W19797  12.104  17.359  13.998 -0.1920 -0.1736 -0.3228
 3724W        W19798  17.269  14.738   0.905  0.4106 -0.1078  0.1334
 3725W        W19799  17.778   2.191   5.531 -0.0682 -0.0228 -0.1669
 3726W        W19800   3.935  10.456   1.248  0.2399  0.1342  0.1363
 3727W        W19801   1.881   9.795   0.756  0.1641 -0.0313  0.1406
 3728W        W19802   0.050   7.559   3.805 -0.0681 -0.0180  0.0269
 3729W        W19803   0.544   4.250  13.504  0.0747  0.0115 -0.2957
 3730W        W19804   7.915   6.008  12.239 -0.0707  0.0338  0.0818
 3731W        W19805  17.912   7.255  13.866 -0.2163  0.0848 -0.1425
 3732W        W19806  14.190   0.533   4.183 -0.0288  0.3540  0.1884
 3733W        W19807   0.608  12.502  12.461 -0.0050  0.3881 -0.2238
 3734W        W19808  10.640   5.157   1.324 -0.1380 -0.0470 -0.2327
 3735W        W19809   9.306   0.718   1.440 -0.0768 -0.0320  0.0750
 3736W        W19810   6.207  15.872   1.302 -0.2796  0.0700 -0.1020
 3737W        W19811   9.267  11.136  12.563  0.0015  0.0540  0.1537
 3738W        W19812   2.824   0.063  12.152  0.4887  0.0852  0.2882
 3739W        W19813  16.366   6.845   5.440 -0.2668 -0.1033  0.0705
 3740W        W19814   5.440  15.654  13.463  0.0325 -0.3040  0.0681
 3741W        W19815   9.448   2.865   3.009  0.3855  0.1469  0.2389
 3742W        W19816  16.267   0.835  15.735  0.1154  0.1566 -0.1204
 3743W        W19817   7.500   1.842   2.066 -0.1711  0.1380  0.2101
 3744W        W19818   1.843   8.942  14.099 -0.1362 -0.1376  0.2236
 3745W        W19819   7.034   4.082   0.995 -0.1277 -0.1904 -0.0838
 3746W        W19820  14.934  17.627   1.653 -0.0398  0.0449 -0.0547
 3747W        W19821   7.831  18.189   1.477  0.1353 -0.1163 -0.1823
 3748W        W19822   1.338   9.289  12.300 -0.1439  0.0335  0.1983
 3749W        W19823  17.368   5.060   2.811 -0.2377  0.0967 -0.1280
 3750W        W19824  12.824  14.756   2.795 -0.1424  0.2414 -0.2590
 3751W        W19825   3.012   6.189  14.316  0.2866 -0.3532 -0.1370
 3752W        W19826  17.670  12.045  16.217  0.0885 -0.1845 -0.0490
 3753W        W19827  12.839  15.702   6.369  0.2967 -0.0942 -0.0019
 3754W        W19828   8.927  12.655   2.774 -0.0759  0.0201  0.2271
 3755W        W19829   1.618   5.684  12.071 -0.3518  0.1792  0.3420
 3756W        W19830   3.487   9.189   3.281 -0.1081 -0.0775 -0.1448
 3757W        W19831   8.603   8.056   3.616 -0.0423 -0.1284 -0.1840
 3758W        W19832   8.671   1.269  11.782 -0.4714  0.0088 -0.1712
 3759W        W19833   1.899   6.916   5.703  0.2235 -0.1615 -0.2755
 3760W        W19834  18.122  16.351  14.706 -0.1972 -0.1685 -0.4280
 3761W        W19835  14.341   6.975  15.788  0.1070  0.1560 -0.1162
 3762W        W19836   5.159  16.245  12.339  0.2675  0.1061 -0.0073
 3763W        W19837   4.594  10.504   1.320  0.0065  0.0532 -0.1678
 3764W        W19838   8.641   3.120  15.159  0.0255  0.0839 -0.1663
 3765W        W19839   5.327   0.700   0.820  0.1585  0.1847  0.1099
 3766W        W19840  12.037   9.382  15.182 -0.0439  0.1522  0.1331
 3767W        W19841   5.410   1.323   5.235 -0.1346 -0.1305  0.0014
 3768W        W19842   4.778  11.705  15.259  0.1127  0.0612  0.0002
 3769W        W19843   5.939   5.123   0.282 -0.0521 -0.1437 -0.0628
 3770W        W19844   8.035  15.686  15.201  0.0050  0.1212  0.2005
 3771W        W19845  14.461  16.992   0.404  0.2698 -0.4351  0.0954
 3772W        W19846   2.880   9.168   2.188  0.1312 -0.0310 -0.0247
 3773W        W19847   1.472   6.911   3.705  0.2542  0.1670 -0.0765
 3774W        W19848   1.631   1.583  13.782  0.2149 -0.2266  0.6530
 3775W        W19849   9.084   0.776   2.918  0.3017  0.0994  0.0565
 3776W        W19850  17.136   9.018  14.277 -0.2067 -0.0273 -0.0894
 3777W        W19851   3.640  17.061  13.170  0.2066  0.0673  0.0434
 3778W        W19852   0.527   1.136  15.564 -0.1130 -0.1420  0.1187
 3779W        W19853  12.314   7.239   5.041  0.0735  0.0853 -0.1388
 3780W        W19854  11.794  13.290   2.721 -0.0391 -0.0098 -0.0885
 3781W        W19855  15.457   7.992  13.547 -0.0515  0.0088  0.0040
 3782W        W19856   0.761   9.121   3.647 -0.1376 -0.1860  0.0506
 3783W        W19857   2.880   3.177  15.477 -0.1285  0.1184 -0.1670
 3784W        W19858   4.145  14.947  11.931  0.0460  0.4435  0.1524
 3785W        W19859   9.750   6.195  13.650 -0.1327 -0.0370  0.0608
 3786W        W19860   0.338   9.301  13.376  0.1148 -0.2678 -0.0669
 3787W        W19861   5.537  10.231   3.010 -0.0198  0.0890  0.1418
 3788W        W19862  16.539  13.359  11.925  0.2004 -0.0527  0.0019
 3789W        W19863   6.103   5.567   1.781 -0.1177  0.0253  0.0389
 3790W        W19864  10.870  11.596   3.358  0.0261  0.2676 -0.1467
 3791W        W19865   1.282   1.318  11.054 -0.3278 -0.0696 -0.0124
 3792W        W19866   9.128  11.775   2.390  0.0265 -0.2963 -0.3379
 3793W        W19867  16.500  14.545   1.258 -0.2072  0.2992  0.1828
 3794W        W19868   4.659   4.792   2.694 -0.3271  0.0863  0.5338
 3795W        W19869  12.309  10.589   4.604 -0.2865  0.0070  0.0784
 3796W        W19870  15.088  10.265   0.833  0.0370  0.2078  0.1121
 3797W        W19871   0.348   5.366   1.490  0.0213 -0.0217 -0.1756
 3798W        W19872   5.574   9.407  11.374  0.0632  0.3602 -0.0156
 3799W        W19873  13.058   2.397   4.296 -0.2970  0.0793  0.0904
 3800W        W19874   0.988   4.177   1.974  0.3941  0.0669 -0.1391
 3801W        W19875  15.696   5.565   2.467 -0.0344  0.1138 -0.1007
 3802W        W19876  16.216   3.468  14.479  0.0035  0.0787 -0.0006
 3803W        W19877   8.873  16.438   1.089  0.0693  0.1455  0.1973
 3804W        W19878  15.239   2.724   3.797 -0.3129  0.0716 -0.2022
 3805W        W19879   4.615   5.981  13.508 -0.0650  0.1030  0.0359
 3806W        W19880  13.881  17.760  15.474  0.1626 -0.2545  0.0428
 3807W        W19881  17.769  15.331   0.547  0.2218 -0.1382 -0.0472
 3808W        W19882   6.511  16.652   1.787 -0.0602 -0.1016 -0.1835
 3809W        W19883   2.610   6.596  12.490  0.2146 -0.0684 -0.2287
 3810W        W19884   4.062  15.299   5.555 -0.2876  0.0061  0.1471
 3811W        W19885   7.071   3.555   3.807  0.2503 -0.1939 -0.1734
 3812W        W19886   6.560  12.611   2.678 -0.0650 -0.1525  0.2569
 3813W        W19887  10.387   3.158   3.806 -0.0918  0.1033  0.0276
 3814W        W19888  13.641  15.124   3.341  0.0398 -0.1741 -0.2630
 3815W        W19889  17.018   0.344  14.352  0.1078 -0.2620  0.0756
 3816W        W19890  17.281  14.025   2.773 -0.2656  0.0020  0.1520
 3817W        W19891   1.446  13.984   5.688  0.0917 -0.1897 -0.2750
 3818W        W19892  13.638  17.995   2.708  0.1384 -0.0926 -0.0875
 3819W        W19893  12.461   1.609   3.987 -0.1446 -0.3185 -0.1481
 3820W        W19894   4.380   7.577   2.511  0.2876 -0.1531 -0.1643
 3821W        W19895  17.159   2.519  14.882  0.3785 -0.0585 -0.2400
 3822W        W19896  17.499   3.447   1.586 -0.4359  0.2872 -0.0727
 3823W        W19897  14.803  11.332   3.986  0.1100  0.1562  0.0135
 3824W        W19898   0.797  11.627  14.155  0.2446 -0.2635  0.1193
 3825W        W19899   7.941   6.177  14.196  0.3820  0.2196 -0.0108
 3826W        W19900   4.814   0.403   4.821 -0.2800 -0.2189  0.1566
 3827W        W19901   9.390   3.450   0.761  0.2286  0.2060 -0.1719
 3828W        W19902  15.753  13.745   0.695 -0.0336 -0.3408  0.2068
 3829W        W19903   5.259  10.132  10.865 -0.0792  0.1841 -0.2512
 3830W        W19904  12.091   7.376   3.154  0.0476 -0.0720  0.2111
 3831W        W19905   7.522  11.158  15.841 -0.0142 -0.4201  0.1243
 3832W        W19906  18.232   1.449   0.086 -0.1187  0.0109 -0.2010
 3833W        W19907   0.371  12.930  16.419 -0.0213 -0.1838  0.0956
 3834W        W19908  13.992   4.583   4.700  0.0023 -0.0474 -0.2150
 3835W        W19909  15.074  18.190  12.092  0.3292 -0.0184 -0.1538
 3836W        W19910   9.806   8.337   0.324  0.1377 -0.0176  0.4410
 3837W        W19911   9.658  14.539   0.452 -0.0786 -0.1480 -0.0878
 3838W        W19912   5.084   2.289   4.753 -0.1129 -0.4786  0.0703
 3839W        W19913  16.096  13.536  12.768 -0.4621  0.3506  0.2710
 3840W        W19914   1.208   8.668   4.808 -0.0716 -0.1456 -0.0054
 3841W        W19915   2.837   5.826  15.858 -0.4014 -0.1474  0.1746
 3842W        W19916  11.061  14.945   1.702 -0.0373  0.1145  0.3010
 3843W        W19917  16.258  11.421  12.785 -0.0804 -0.1330 -0.0441
 3844W        W19918   3.115   9.313  14.370  0.1714  0.1324 -0.3605
 3845W        W19919  14.224   7.835   1.417 -0.1106 -0.0319  0.0819
 3846W        W19920   3.673  17.830  14.770  0.2053 -0.1736 -0.1368
 3847W        W19921   9.287   8.259   0.325 -0.1796 -0.0143 -0.1977
 3848W        W19922   5.862   4.517  11.672 -0.1435 -0.1385  0.0128
 3849W        W19923  15.203   8.831   5.482  0.2773 -0.1522  0.0764
 3850W        W19924   6.524   8.185  14.446 -0.1016  0.3242  0.0144
 3851W        W19925  13.504   0.196   2.704 -0.2548  0.2533 -0.0870
 3852W        W19926  12.848   3.831  12.018 -0.1192  0.3410  0.0046
 3853W        W19927   3.158  16.948  12.742 -0.3700  0.1605  0.1052
 3854W        W19928   6.218   9.434  11.457  0.0772 -0.0575  0.0658
 3855W        W19929  16.098  12.239  12.741 -0.1365  0.1105 -0.2551
 3856W        W19930   2.685   4.869   3.677  0.2525 -0.1512  0.0671
 3857W        W19931   1.923   1.474   0.704  0.1926 -0.0204  0.0753
 3858W        W19932  16.938  17.363  13.027 -0.0615 -0.2185  0.0701
 3859W        W19933   9.609  13.929   2.592 -0.2387  0.0382  0.1464
 3860W        W19934  10.418   9.165  15.843 -0.1627 -0.0523 -0.0052
 3861W        W19935   4.588  15.422  16.347 -0.1077  0.3782 -0.1064
 3862W        W19936   7.619  15.979   1.242  0.0571 -0.3699  0.0756
 3863W        W19937   2.078  16.166  12.588 -0.0938 -0.1925  0.2273
 3864W        W19938   4.934   5.559   2.377 -0.1398  0.0210  0.2574
 3865W        W19939   7.015  15.003  14.898  0.1807 -0.2042  0.1749
 3866W        W19940   8.083  10.535   0.072  0.4088 -0.0053 -0.2589
 3867W        W19941   8.340  11.100   2.270  0.0368 -0.1808  0.0037
 3868W        W19942   3.492  12.708  13.061 -0.0646  0.0136  0.2094
 3869W        W19943  13.183   2.356   3.616 -0.0586 -0.1600 -0.1216
 3870W        W19944   5.168  14.744  14.130 -0.2116 -0.0378  0.2035
 3871W        W19945  15.972  16.630  12.959  0.0417 -0.1044 -0.4094
 3872W        W19946   1.000   6.573  15.501 -0.1246 -0.0385 -0.2325
 3873W        W19947   8.802   8.441   5.381  0.0854 -0.0132  0.0254
 3874W        W19948   4.575   7.911   2.876 -0.1033 -0.0043  0.4414
 3875W        W19949   4.882   7.332  14.987 -0.0316  0.2160  0.2858
 3876W        W19950   2.673   8.267  16.170 -0.1453  0.2728 -0.1698
 3877W        W19951   2.543   9.898   2.549  0.1367 -0.0357 -0.2341
 3878W        W19952  13.771   8.443   0.912 -0.2294 -0.0486  0.4253
 3879W        W19953  16.834  16.882   0.702  0.1388 -0.0749  0.1462
 3880W        W19954   6.751   3.265  13.251  0.1148  0.0189 -0.1761
 3881W        W19955   2.549   3.053   5.070  0.1810 -0.0869 -0.2105
 3882W        W19956   7.204   5.553  16.009  0.0777 -0.2166 -0.1077
 3883W        W19957   8.732  16.907  12.234  0.2118  0.1953 -0.1690
 3884W        W19958   5.750   7.798  11.363 -0.2467  0.1285 -0.0250
 3885W        W19959   6.234   8.092   0.193  0.2829  0.1827  0.0772
 3886W        W19960   4.531  15.785   4.099  0.0729  0.2168  0.2012
 3887W        W19961   5.194  14.305  13.949  0.0864  0.1976  0.1102
 3888W        W19962  15.051   1.808   3.488  0.0981 -0.1614  0.0879
 3889W        W19963   4.989  16.923   4.025 -0.1011 -0.1558  0.0581
 3890W        W19964  17.843   8.512  16.401  0.4251 -0.1724 -0.3389
 3891W        W19965   5.056  12.213  13.145 -0.0054 -0.1550 -0.0778
 3892W        W19966   7.994   9.764   1.092 -0.4936 -0.1370 -0.1386
 3893W        W19967   6.110   3.798  15.264  0.0587 -0.0990  0.2114
 3894W        W19968  17.613   8.661   0.396  0.1199  0.2958  0.0426
 3895W        W19969  13.428   3.555  12.216 -0.1687 -0.2711 -0.0758
 3896W        W19970  13.141   9.163  11.325 -0.0255 -0.1840 -0.1304
 3897W        W19971  17.504   7.614  16.317  0.2000 -0.0607 -0.2123
 3898W        W19972   3.976   4.853   4.747  0.2150  0.0483  0.0615
 3899W        W19973  10.790   3.781  11.839  0.0079 -0.0931  0.1423
 3900W        W19974  10.291   6.977   1.365  0.4156 -0.0258  0.0521
 3901W        W19975   9.770  10.118   3.327 -0.3595 -0.3388  0.0417
 3902W        W19976   4.364   2.507  15.232 -0.2645  0.5765 -0.1429
 3903W        W19977  10.197  11.661   2.051  0.0521  0.1475 -0.2436
 3904W        W19978   3.253   8.393   4.770 -0.0681  0.1581  0.0564
 3905W        W19979  13.406  10.836  13.047 -0.2900 -0.0118  0.0197
 3906W        W19980  17.322   4.731  13.936  0.0431  0.2075 -0.3221
 3907W        W19981  11.871   5.068  13.061 -0.2196  0.0470  0.1019
 3908W        W19982   7.318  14.582   1.023 -0.1274  0.2526  0.3515
 3909W        W19983   8.242   6.275   2.017 -0.4186  0.1794  0.2656
 3910W        W19984   0.826  17.401   9.974 -0.0962  0.0867 -0.0084
 3911W        W19985   5.010   2.898  14.778 -0.0625 -0.0417  0.0476
 3912W        W19986  14.913   9.931  11.779 -0.0653 -0.3306 -0.0722
 3913W        W19987   1.782   3.531  14.197  0.1280 -0.1955  0.0514
 3914W        W19988  17.785  15.505  13.242 -0.1454 -0.1113  0.0690
 3915W        W19989  14.542   3.365   5.393 -0.1413 -0.0700  0.0016
 3916W        W19990  10.656  13.151   0.973  0.0497 -0.2562 -0.1753
 3917W        W19991   0.275   0.053  11.236  0.1649  0.0130  0.2583
 3918W        W19992   4.501  11.637   3.331  0.0406  0.1479  0.0367
 3919W        W19993  16.396  11.270   1.304  0.1685 -0.1870 -0.2612
 3920W        W19994   2.265   9.659   4.504  0.1407  0.3932 -0.3776
 3921W        W19995   0.053   2.028   6.033  0.0435  0.0669 -0.0311
 3922W        W19996   3.750   0.721  15.233  0.3141  0.1096  0.0068
 3923W        W19997  12.793  16.871   0.704  0.0843 -0.0232  0.4384
 3924W        W19998   0.319   0.642   4.974  0.0296  0.1878 -0.0615
 3925W        W19999  11.622   4.275  13.182 -0.0061  0.0997 -0.0818
 3926W        W20000   9.465   7.684   3.155 -0.1342  0.0419 -0.1235
 3927W        W20001   4.838   0.321  13.898 -0.2388  0.0410  0.0538
 3928W        W20002   5.871  16.373  13.983 -0.1234  0.0753  0.1906
 3929W        W20003  11.515   8.850   2.221 -0.4009  0.0681 -0.1830
 3930W        W20004   2.419   0.356   5.402  0.3897 -0.0668 -0.0039
 3931W        W20005  17.411  12.276  14.023  0.1519 -0.0643 -0.0005
 3932W        W20006   4.930   3.315  11.813 -0.0818  0.2958 -0.0917
 3933W        W20007  15.421   7.699   3.946  0.0309 -0.0354  0.1900
 3934W        W20008  15.204   8.149   0.448  0.0448  0.2048 -0.1905
 3935W        W20009   0.874  17.270   2.750 -0.2709  0.0508 -0.2268
 3936W        W20010  10.521  12.657  14.476 -0.0203 -0.2004 -0.0170
 3937W        W20011   2.842   6.468   2.749  0.3081 -0.1269  0.3038
 3938W        W20012  17.087  15.703  14.361  0.1372  0.3553 -0.1371
 3939W        W20013  16.630   6.647  13.193 -0.1895 -0.4077  0.1500
 3940W        W20014  12.766  16.877  14.892 -0.1551  0.0568  0.1464
 3941W        W20015  13.185  14.409  14.308  0.0890  0.0903 -0.3221
 3942W        W20016   0.211   3.374   2.239  0.2623 -0.2679 -0.2746
 3943W        W20017  16.619  10.590  16.025  0.1819  0.0100 -0.1996
 3944W        W20018   8.450   2.098   1.452 -0.2430  0.2158  0.0576
 3945W        W20019  15.589  14.440   1.430  0.2309 -0.0847 -0.2120
 3946W        W20020   1.051  17.856  15.473  0.0267  0.1424 -0.0389
 3947W        W20021   0.162   8.122   3.157  0.0794 -0.1238  0.0184
 3948W        W20022  17.979  17.287  14.473  0.0720 -0.2870  0.1996
 3949W        W20023  16.977   7.179   0.412  0.0545 -0.1671  0.1220
 3950W        W20024   0.332  14.606  16.329  0.0693  0.2208  0.0418
 3951W        W20025  17.410   9.686  11.965 -0.0744 -0.3833 -0.2682
 3952W        W20026   4.739   5.178  15.593 -0.2379 -0.3017 -0.2992
 3953W        W20027   8.512  16.177   4.969 -0.0893  0.0326  0.3138
 3954W        W20028   9.625  10.631  11.254  0.0386  0.1358 -0.2511
 3955W        W20029   7.498  10.447  14.244 -0.0254 -0.0433  0.0033
 3956W        W20030  13.687   7.997  13.850  0.0282  0.1434  0.0076
 3957W        W20031   1.611  12.988   1.693 -0.0420 -0.0221  0.5043
 3958W        W20032  15.794   3.613  15.905  0.1783 -0.2670  0.0078
 3959W        W20033   8.661   7.581   3.458 -0.1926 -0.2872 -0.0072
 3960W        W20034  10.248  17.821   2.887  0.6277 -0.0684  0.1382
 3961W        W20035   1.052  10.374   3.208 -0.0284 -0.0736  0.2266
 3962W        W20036  17.091   3.385  14.694 -0.0720  0.0200  0.0657
 3963W        W20037   9.447   1.308  16.238  0.5089  0.2214 -0.1415
 3964W        W20038  13.970  15.338   4.159  0.0967  0.1293 -0.1826
 3965W        W20039  15.980   2.706   6.429  0.1034 -0.2132  0.2933
 3966W        W20040  12.249   3.527   5.279  0.2160  0.0363  0.2372
 3967W        W20041   3.889   6.614   0.655 -0.1193 -0.1677  0.0909
 3968W        W20042   0.059  11.402   1.092 -0.3018 -0.0290  0.1912
 3969W        W20043   1.922  15.130  11.095 -0.1117  0.1069 -0.4160
 3970W        W20044   7.052  15.882   2.079  0.0718 -0.1519  0.0581
 3971W        W20045  16.810   3.576  12.307  0.1337  0.1048 -0.0457
 3972W        W20046  12.838   6.634   4.626  0.1762 -0.1955 -0.0856
 3973W        W20047   8.356   8.224   0.505  0.0266 -0.2581  0.2422
 3974W        W20048  10.471  13.660  14.640  0.0054  0.0470 -0.4021
 3975W        W20049  12.487   3.161  12.090  0.0113  0.2738  0.2935
 3976W        W20050  10.629  14.574   0.672  0.0745  0.3200  0.1274
 3977W        W20051  15.226  16.918  13.771  0.0340 -0.1398  0.1381
 3978W        W20052  12.494  10.100  12.683 -0.1369 -0.2469 -0.2103
 3979W        W20053   7.029   1.538   2.147 -0.1009 -0.1710 -0.1048
 3980W        W20054   8.336  14.083  13.293 -0.0868 -0.0125 -0.0922
 3981W        W20055  16.823   8.078   1.520 -0.0313  0.0894  0.1439
 3982W        W20056   1.923  11.231  12.717 -0.2732 -0.2264 -0.1008
 3983W        W20057  14.986   2.415  12.362 -0.2528 -0.0649 -0.0386
 3984W        W20058   7.528   9.638  16.427 -0.0705 -0.1600  0.0856
 3985W        W20059   9.289  10.400  13.380 -0.0045  0.1108 -0.1578
 3986W        W20060   3.765   3.218   5.651  0.1660 -0.0137 -0.0926
 3987W        W20061  10.662   9.152   1.406 -0.0976  0.0541  0.2455
 3988W        W20062   9.117  13.038  15.488 -0.0649  0.1755  0.3139
 3989W        W20063  17.732  14.632   2.166 -0.0535 -0.1118  0.0825
 3990W        W20064  11.001   7.748  13.590 -0.0692 -0.0900 -0.5174
 3991W        W20065   2.612  17.659  14.561 -0.1416  0.2964  0.1488
 3992W        W20066   9.466   1.106   2.514 -0.3425  0.2440  0.1547
 3993W        W20067   1.499  13.044   3.464 -0.1711  0.0278  0.0499
 3994W        W20068  15.466  11.146  13.980  0.1448  0.0536  0.0024
 3995W        W20069  18.163   1.402   5.486  0.3978 -0.2209 -0.2622
 3996W        W20070   4.887   2.658   2.418  0.0048  0.2891 -0.2332
 3997W        W20071  14.765   5.207  14.739 -0.2741  0.1537 -0.1390
 3998W        W20072   4.129   1.777  14.153 -0.0975 -0.2508 -0.0740
 3999W        W20073   7.652   8.592  13.671  0.0591 -0.3102  0.1001
 4000W        W20074  16.558   0.468   4.741 -0.1380 -0.2697 -0.3709
 4001W        W20075   2.588  11.032  12.837 -0.3108 -0.2171  0.3310
 4002W        W20076   2.534  11.366  13.718 -0.0944 -0.0462 -0.1745
 4003W        W20077  13.932  16.737  12.946 -0.2989  0.0117  0.1247
 4004W        W20078  17.496  13.713  11.485  0.0350 -0.0365 -0.4278
 4005W        W20079   4.444  11.651  13.203  0.2838  0.4545  0.3408
 4006W        W20080  11.105   1.162   5.376  0.0220 -0.0374  0.2449
 4007W        W20081   6.335   6.356  16.184  0.2743  0.5035  0.0386
 4008W        W20082   1.718   7.936   3.624 -0.0716 -0.1930 -0.0994
 4009W        W20083   5.539  16.750   1.245  0.0630  0.1452  0.1248
 4010W        W20084   8.897   4.723   2.044 -0.1286  0.0833  0.0441
 4011W        W20085  11.880  15.668   2.905 -0.0094  0.2441 -0.4230
 4012W        W20086  15.969  17.707   2.365 -0.1085  0.1608 -0.2508
 4013W        W20087   6.098  13.157   4.959  0.0321 -0.1328  0.0062
 4014W        W20088   4.084  11.460  14.696 -0.2874 -0.1244 -0.0757
 4015W        W20089   4.607  18.247   2.984 -0.1416  0.1383 -0.0135
 4016W        W20090   5.639  17.204  15.302  0.0722  0.0981  0.1692
 4017W        W20091   5.709   3.961   5.706  0.2774 -0.0784  0.0183
 4018W        W20092  17.524  15.642  12.853 -0.2414 -0.1810  0.2359
 4019W        W20093  17.333  13.976   1.896 -0.2231  0.0281  0.0236
 4020W        W20094  16.836  13.525  16.402 -0.0708  0.1262  0.1135
 4021W        W20095  14.374  13.887   0.012  0.1609 -0.2133  0.2817
 4022W        W20096  10.251  13.683  13.604  0.0398  0.2290 -0.4619
 4023W        W20097   4.581   6.222   5.099 -0.0083 -0.2491 -0.2325
 4024W        W20098  10.937  16.351  14.177 -0.0073  0.3846  0.1103
 4025W        W20099   3.820  11.685  11.793 -0.2099 -0.1405 -0.2273
 4026W        W20100   5.634   1.765   2.455 -0.2380  0.0543 -0.1994
 4027W        W20101  12.893   0.699   3.406  0.2238  0.2130  0.0261
 4028W        W20102  11.346  14.116   2.404  0.1969 -0.2323  0.1407
 4029W        W20103  10.003   0.961  15.367 -0.0528  0.2067 -0.1675
 4030W        W20104   4.432   7.032   6.180  0.0071  0.2206 -0.2465
 4031W        W20105   6.553   6.708  11.832 -0.1389  0.0784 -0.0839
 4032W        W20106  15.045   9.338  13.615 -0.1240 -0.4287  0.0952
 4033W        W20107  10.578   7.452   6.238  0.0378 -0.1555 -0.2208
 4034W        W20108  16.810  13.216   5.941 -0.1354 -0.2574  0.1230
 4035W        W20109   1.287   7.292   5.097 -0.3074  0.0813  0.0008
 4036W        W20110   1.226   6.360   1.968  0.1176 -0.0801 -0.1347
 4037W        W20111   6.760   7.079   3.555 -0.0093  0.1540 -0.2106
 4038W        W20112  11.427   9.460  16.135  0.3004  0.0193 -0.0496
 4039W        W20113  17.565   4.646   1.942  0.1747  0.2149 -0.0117
 4040W        W20114   6.563   7.916  13.122 -0.3901 -0.1975  0.0841
 4041W        W20115   4.590   3.486   5.362 -0.2122  0.4551  0.2328
 4042W        W20116   1.380  17.505   3.562 -0.1114 -0.0959 -0.0305
 4043W        W20117   7.572   5.176   0.650  0.0351  0.2389 -0.1226
 4044W        W20118   7.552   1.662  13.176  0.0177 -0.1390 -0.0682
 4045W        W20119  10.298   3.266  14.755  0.1726 -0.0385  0.0430
 4046W        W20120  13.177   5.130  13.194  0.1261  0.1380  0.0138
 4047W        W20121  14.663   8.234  12.877 -0.5213  0.2026  0.0535
 4048W        W20122   5.056   6.492   1.202 -0.3824 -0.1538 -0.2101
 4049W        W20123  12.587  14.567   5.792  0.1641  0.2127  0.0758
 4050W        W20124   6.406  11.667   1.117 -0.1508  0.2938  0.0120
 4051W        W20125  16.922  11.120  11.992 -0.3015  0.1704  0.3883
 4052W        W20126  13.312  11.456  10.596  0.0087  0.0974 -0.0691
 4053W        W20127  16.123  15.703   4.476  0.0471  0.0190  0.0738
 4054W        W20128  15.557  13.867  10.769  0.0665 -0.1628 -0.2747
 4055W        W20129  13.137   4.972  12.165  0.0794 -0.1247 -0.0860
 4056W        W20130   2.547  17.157  11.714 -0.0139 -0.0991 -0.0362
 4057W        W20131  16.806   1.751  11.578 -0.1055  0.0390 -0.1943
 4058W        W20132   9.347  14.206  15.081  0.0531  0.0550 -0.0211
 4059W        W20133   0.181   4.962  12.958 -0.1666  0.1283  0.2128
 4060W        W20134  16.641   7.097  11.031  0.0140  0.0726  0.0325
 4061W        W20135  10.930   6.480  16.490  0.2143  0.1680 -0.2282
 4062W        W20136  16.817  12.423   3.856  0.0039 -0.4178  0.2429
 4063W        W20137   8.870   3.472   2.779 -0.2080  0.1478  0.1583
 4064W        W20138   4.365   3.053   3.825  0.1641  0.2353  0.0515
 4065W        W20139   7.651   8.655   1.636 -0.0089  0.0136  0.2221
 4066W        W20140   3.283  10.925   1.784 -0.0654 -0.2427  0.3795
 4067W        W20141  17.110  14.037  14.898  0.2577  0.0860  0.1572
 4068W        W20142   7.145  14.608  15.773  0.2009 -0.0689  0.0883
 4069W        W20143   2.679   8.026   3.429 -0.2627  0.1853 -0.0716
 4070W        W20144  12.812  15.246  15.513 -0.3042  0.2375 -0.1086
 4071W        W20145   4.991   7.501   2.430  0.1237  0.2374 -0.0424
 4072W        W20146  14.908   5.762   3.585 -0.2452 -0.2018 -0.0584
 4073W        W20147   7.035   1.022   2.181 -0.1776 -0.1844  0.0337
 4074W        W20148  11.874   9.182   2.447 -0.2065  0.1884  0.0754
 4075W        W20149   3.258   0.528   5.518  0.2077 -0.0659 -0.0738
 4076W        W20150  15.191   3.748   4.294 -0.1161 -0.1444 -0.1452
 4077W        W20151   7.997  17.862   4.914 -0.2085 -0.3071  0.1314
 4078W        W20152   3.181  18.118   2.443  0.2517  0.2778  0.2204
 4079W        W20153   8.787  15.838  12.529 -0.2940 -0.5688  0.0823
 4080W        W20154   5.245  14.287  10.717  0.0057  0.0417  0.1638
 4081W        W20155   8.408   5.205  13.221 -0.1364  0.2993 -0.1233
 4082W        W20156  14.732  13.684  14.084 -0.1612 -0.3110  0.0106
 4083W        W20157  11.504  11.262   2.461  0.2088  0.1181  0.0141
 4084W        W20158   2.092  16.280   5.127 -0.2086  0.0299 -0.0887
 4085W        W20159   6.841  11.590   5.622  0.0666 -0.0742  0.1701
 4086W        W20160  13.782   0.383   3.090  0.1134  0.2757  0.0416
 4087W        W20161   7.747  15.009  13.663 -0.0357 -0.0038 -0.2028
 4088W        W20162   5.564  15.779  16.498  0.0516 -0.1845  0.1066
 4089W        W20163  16.182  18.109   5.654 -0.0967 -0.0227  0.1446
 4090W        W20164  18.096  12.040  12.807  0.3472  0.0754 -0.0171
 4091W        W20165   5.020   9.774  10.531 -0.1093  0.1530 -0.2321
 4092W        W20166  17.138  11.514  15.764  0.3672 -0.1137  0.0442
 4093W        W20167   9.404  17.591  16.320 -0.0658  0.1540  0.2245
 4094W        W20168  14.470   2.011  13.714  0.2388  0.0751  0.0145
 4095W        W20169   3.497  11.615  16.034 -0.0271 -0.2340  0.0545
 4096W        W20170   6.654   4.626  15.146  0.0644 -0.1189 -0.0123
 4097W        W20171   6.259   1.849   0.493 -0.3398 -0.1525  0.1689
 4098W        W20172  10.500   4.410   3.898 -0.2007  0.0990 -0.0176
 4099W        W20173   1.470   8.329   4.206 -0.0945  0.0532  0.1761
 4100W        W20174   6.625  14.526  12.144 -0.3137  0.2858  0.2313
 4101W        W20175  14.528   5.290   0.305  0.3531 -0.2097  0.0572
 4102W        W20176   2.324  11.539  11.487 -0.1192 -0.0914 -0.0893
 4103W        W20177   2.496   4.238   3.250  0.0170  0.2192  0.0490
 4104W        W20178   4.555   6.535   5.997  0.0368 -0.2507  0.1875
 4105W        W20179  10.770   2.554  16.257 -0.1383  0.0544 -0.0313
 4106W        W20180  10.113  12.068  14.012  0.1803 -0.0665 -0.2274
 4107W        W20181   2.194  15.454   5.993 -0.2483  0.0073  0.1168
 4108W        W20182  11.840   7.004   6.410 -0.0090  0.3383 -0.3154
 4109W        W20183  14.531  11.361   4.427  0.0618 -0.2497  0.0563
 4110W        W20184  10.187  14.605  14.884 -0.0126 -0.1863 -0.0791
 4111W        W20185   0.757  17.274  14.269 -0.2677 -0.1477 -0.0877
 4112W        W20186  15.092  13.239  15.736 -0.2373  0.1013  0.0356
 4113W        W20187   3.125   0.250   4.613  0.1076 -0.2192 -0.3390
 4114W        W20188   9.469   2.779  16.255  0.1033  0.2095 -0.2798
 4115W        W20189   8.023   3.037  14.580  0.1969 -0.1073  0.0771
 4116W        W20190   6.953   2.085   5.641 -0.2470 -0.0537 -0.1278
 4117W        W20191   7.558   0.033   0.653  0.2245 -0.0219  0.3480
 4118W        W20192  12.705  14.320   3.147  0.1271  0.0672 -0.3110
 4119W        W20193   5.260  16.803  14.468 -0.0561 -0.3428 -0.1310
 4120W        W20194  14.901   2.909  12.861  0.3534  0.0920  0.0943
 4121W        W20195   7.504  15.202  14.105  0.0361  0.1175  0.0434
 4122W        W20196   0.957   5.677   3.742  0.0863 -0.3867 -0.6432
 4123W        W20197   9.401   3.354   5.836 -0.3740  0.0043 -0.0656
 4124W        W20198  13.496   5.885   5.140 -0.0918  0.0962 -0.1960
 4125W        W20199  12.177  16.004  13.127  0.0380  0.0370  0.0766
 4126W        W20200  10.098   2.060   5.333 -0.0495 -0.2820 -0.0292
 4127W        W20201  11.082  11.154   4.595  0.1314  0.0092 -0.0458
 4128W        W20202   5.637   3.938   0.083 -0.1770 -0.1169  0.1752
 4129W        W20203  10.374   2.253   1.758 -0.0061 -0.1992  0.2798
 4130W        W20204  11.066   9.582   1.840  0.1271  0.1980 -0.2136
 4131W        W20205   7.299  13.409  15.590 -0.0688 -0.2311  0.1733
 4132W        W20206   6.019  16.644   0.118  0.0059 -0.0601  0.0157
 4133W        W20207   3.047  17.645  16.287 -0.3601  0.0169 -0.0147
 4134W        W20208   8.571   4.538  15.127  0.0882 -0.2211  0.1549
 4135W        W20209  15.845   5.778   3.338 -0.1603 -0.0647 -0.1683
 4136W        W20210   4.500   5.357   0.304  0.5526  0.1909 -0.0857
 4137W        W20211  10.595   1.321   5.269  0.0236  0.2480  0.2425
 4138W        W20212   6.393   0.059  15.733  0.2253 -0.0965 -0.2189
 4139W        W20213  13.785  10.885   3.307 -0.0856  0.0097 -0.1540
 4140W        W20214   3.103   1.684  15.931 -0.4632  0.1287 -0.4776
 4141W        W20215   3.823   1.782   1.843 -0.1618 -0.0432 -0.3119
 4142W        W20216   8.862   0.183  12.540 -0.1598  0.0295  0.0952
 4143W        W20217  17.866  13.861   0.733 -0.1195  0.2197 -0.0827
 4144W        W20218  10.701  14.837  12.668 -0.1327  0.1098  0.0823
 4145W        W20219   6.035   5.258  11.816  0.2786  0.1525  0.2825
 4146W        W20220   5.570   2.542   0.843 -0.2362 -0.0971  0.0700
 4147W        W20221   2.959  12.736  14.136  0.0652  0.0264 -0.2433
 4148W        W20222  10.097   6.768   2.488  0.1439  0.2081  0.0288
 4149W        W20223   0.948   6.081  13.166  0.1154 -0.0390  0.0347
 4150W        W20224  16.275   8.291   3.745  0.2495 -0.0779  0.2574
 4151W        W20225   6.526  11.165  11.807  0.2219  0.0013 -0.1281
 4152W        W20226  14.822  13.815   0.993 -0.0581 -0.1355  0.0115
 4153W        W20227   3.064  17.460   4.618 -0.2279 -0.1000 -0.0575
 4154W        W20228   9.551   9.091   3.769  0.1444  0.2755  0.2874
 4155W        W20229  10.323   3.056   0.800  0.1780  0.2191  0.5531
 4156W        W20230   0.917   2.751   1.789 -0.1664 -0.2072  0.1305
 4157W        W20231  15.197   7.333  12.227  0.1583 -0.0738  0.0362
 4158W        W20232   5.326   3.589  16.301  0.2670 -0.2378 -0.1277
 4159W        W20233  16.554   6.929  15.242 -0.2998  0.0365 -0.1178
 4160W        W20234  13.863  16.960  15.090 -0.1492 -0.3566  0.3602
 4161W        W20235  18.034   7.893   1.072  0.0985 -0.4460  0.1855
 4162W        W20236   2.430  13.002   2.739 -0.1664 -0.2515 -0.1639
 4163W        W20237  13.095   7.199   2.396  0.1938 -0.3513 -0.0912
 4164W        W20238   1.426  12.359   5.204  0.2901  0.0786  0.0062
 4165W        W20239   3.958   7.022  11.684  0.1530 -0.2878 -0.1483
 4166W        W20240   1.131  14.010  15.273 -0.2699 -0.0083 -0.0128
 4167W        W20241   1.191  14.377  14.232 -0.2474  0.0092 -0.0912
 4168W        W20242   6.611  11.071   0.792  0.2587  0.0065  0.0382
 4169W        W20243   6.430  15.846  12.182 -0.1495 -0.0224 -0.0218
 4170W        W20244  17.592  11.654   5.146 -0.2823 -0.0221  0.2626
 4171W        W20245  12.665   0.816   2.319 -0.1778 -0.4301  0.1440
 4172W        W20246  15.335  13.193   4.364  0.2127  0.2508 -0.0601
 4173W        W20247  15.560  10.222  14.322 -0.0373  0.1151 -0.4354
 4174W        W20248   6.364   8.027  15.591  0.1781  0.1818  0.0874
 4175W        W20249   6.647  13.952  15.243  0.0975  0.2047 -0.0703
 4176W        W20250  11.759   2.300  12.740 -0.1709  0.3433  0.2006
 4177W        W20251  15.416   2.237   4.304  0.0103 -0.0930  0.1299
 4178W        W20252   7.872  17.184   3.409  0.0581  0.1810 -0.0348
 4179W        W20253   1.893  17.499   1.089  0.1554  0.0264  0.2903
 4180W        W20254   0.935   4.514  13.343 -0.1049  0.1055 -0.0211
 4181W        W20255  16.085  15.627  15.169  0.1436 -0.0696 -0.3803
 4182W        W20256  16.756  13.851  14.025  0.2023  0.4249 -0.3399
 4183W        W20257  16.620   0.817  11.716  0.0952  0.1089  0.0797
 4184W        W20258   7.403   1.212  13.372  0.1442 -0.2461  0.0901
 4185W        W20259  12.905   2.328  14.845  0.1107 -0.0996 -0.0308
 4186W        W20260   9.376   0.246   0.191  0.0351 -0.1605 -0.1249
 4187W        W20261   0.835   8.540   3.381 -0.0020 -0.1251  0.1677
 4188W        W20262   6.303   7.501  15.264 -0.1479 -0.1252 -0.0700
 4189W        W20263  18.248   5.271   3.980  0.2458 -0.1570  0.1428
 4190W        W20264   5.283   8.711  12.734 -0.0103  0.1557 -0.1051
 4191W        W20265   9.483  13.119   3.956 -0.2201 -0.5919 -0.0562
 4192W        W20266   2.230  13.363   1.805 -0.0061 -0.3638  0.1015
 4193W        W20267  11.330  11.252   5.503  0.1181  0.1753  0.0589
 4194W        W20268  11.887   7.296   4.820  0.1233  0.3227 -0.2283
 4195W        W20269  15.696   6.090   5.267 -0.0198  0.0152 -0.2690
 4196W        W20270   2.761   7.068  15.563 -0.4692  0.1126  0.1383
 4197W        W20271   9.497  14.475   2.736  0.2804 -0.2688 -0.2772
 4198W        W20272   9.767  16.096   5.859  0.0265 -0.3027  0.4694
 4199W        W20273  16.996  15.029  12.312  0.0046 -0.1310 -0.0322
 4200W        W20274   6.484   9.068  13.210 -0.4695  0.4557  0.0350
 4201W        W20275   7.702   8.856  15.341  0.3880 -0.0593  0.1821
 4202W        W20276  14.608   3.423  15.325  0.4336 -0.1239  0.2543
 4203W        W20277   1.287   3.542   1.497 -0.1177 -0.0971  0.0230
 4204W        W20278   7.273   8.834  10.229  0.0188  0.0055  0.1082
 4205W        W20279   1.125  12.951  15.570 -0.0660  0.1011 -0.0162
 4206W        W20280   9.541  15.659   5.838  0.2222 -0.0708  0.2478
 4207W        W20281   3.297   3.062  15.732  0.1287  0.0043  0.1627
 4208W        W20282  11.777   3.307   5.364  0.1735 -0.1808 -0.0990
 4209W        W20283  17.260  10.922   4.534  0.0939 -0.1446 -0.5121
 4210W        W20284  11.920   6.156   3.803  0.1057  0.2919  0.0143
 4211W        W20285   4.260   8.120   1.338  0.1851 -0.0994 -0.0346
 4212W        W20286  14.795   5.824  13.074 -0.2861  0.3922  0.0286
 4213W        W20287   8.002   0.149  15.089 -0.0216 -0.1451 -0.1687
 4214W        W20288  16.801  17.993   5.835  0.0822 -0.0868  0.0458
 4215W        W20289   8.052   4.524   5.301  0.0635  0.0591 -0.3379
 4216W        W20290  10.208   5.401   1.355 -0.0381  0.0487  0.0525
 4217W        W20291  17.739  13.911   4.806  0.0239 -0.1263 -0.0880
 4218W        W20292   3.675   8.072  12.249  0.4033 -0.2140  0.0996
 4219W        W20293  17.946   5.239  12.115 -0.6272 -0.1093  0.0155
 4220W        W20294   0.057  10.205  12.037  0.0017 -0.3329 -0.4102
 4221W        W20295  15.921  13.261   0.862 -0.1685 -0.2846 -0.0174
 4222W        W20296   6.265   9.415   4.749 -0.0106  0.0002  0.0002
 4223W        W20297  11.596   7.255  13.016  0.2541  0.1112 -0.1192
 4224W        W20298   1.150  14.629   0.397 -0.2837 -0.3968 -0.1312
 4225W        W20299  14.606  13.975  11.543  0.1176 -0.2131 -0.0794
 4226W        W20300  14.831   8.775  12.436  0.2710 -0.0132  0.0744
 4227W        W20301  12.895  11.314   5.403  0.2657 -0.1972  0.1672
 4228W        W20302   6.116  17.921   2.179 -0.1514 -0.1711  0.0737
 4229W        W20303   4.557  17.945  15.565  0.3863 -0.1146 -0.0870
 4230W        W20304  15.208   9.495   1.410  0.1244 -0.0505 -0.0728
 4231W        W20305   5.465  15.844  12.307  0.0342 -0.2129  0.1978
 4232W        W20306   2.405   3.914   2.029  0.0151 -0.0469 -0.1885
 4233W        W20307   7.401   6.281   0.579  0.1121 -0.1046  0.0620
 4234W        W20308  10.647  16.681   1.527 -0.2029  0.6096  0.1060
 4235W        W20309  12.619  10.453  15.652  0.2602 -0.3240 -0.1427
 4236W        W20310   9.996   1.841  12.888 -0.1034 -0.2690  0.0982
 4237W        W20311  14.958  15.214   2.387  0.3534 -0.2913 -0.2977
 4238W        W20312   5.705   0.597  13.740  0.0835 -0.2093 -0.1070
 4239W        W20313   6.374   8.981  15.429  0.3218 -0.0235 -0.0897
 4240W        W20314  12.122  11.359   0.853  0.2123  0.3142  0.1723
 4241W        W20315  16.208   9.328   5.366  0.1014 -0.2634 -0.0320
 4242W        W20316   9.381  12.060  12.328  0.1679 -0.1083  0.0114
 4243W        W20317   5.745   2.750  15.440  0.1282  0.0003  0.1918
 4244W        W20318  18.019  15.453  11.407  0.0309  0.1974 -0.3567
 4245W        W20319  17.870  11.986  13.356 -0.4083 -0.0604  0.2520
 4246W        W20320  13.330  12.889   3.078 -0.0590  0.0375 -0.0161
 4247W        W20321  13.088   5.311  13.747 -0.1342  0.2848  0.0950
 4248W        W20322   9.127  12.208  14.555  0.0845  0.0538  0.1499
 4249W        W20323   6.853   8.129   2.924 -0.0259  0.0089  0.0775
 4250W        W20324  14.755   9.737  11.204  0.1381 -0.1942 -0.2327
 4251W        W20325   1.436   2.177  15.723  0.2811  0.1307  0.1475
 4252W        W20326  10.821  16.848  16.056  0.2168 -0.0341  0.2847
 4253W        W20327  12.873  14.415  11.729  0.0439  0.2190  0.1708
 4254W        W20328  12.615  12.689  13.746 -0.0403  0.1784 -0.0416
 4255W        W20329   9.019  18.174   3.827 -0.1364 -0.0918  0.3060
 4256W        W20330   1.573  10.290   0.333  0.1204  0.1530  0.0380
 4257W        W20331   8.234   0.030   0.784 -0.1259  0.0439  0.2415
 4258W        W20332  14.036   4.097  15.197 -0.2254 -0.0498  0.0070
 4259W        W20333   6.107  15.245   3.261  0.2920 -0.0060 -0.1797
 4260W        W20334   6.770  13.899   2.072  0.1005  0.5432 -0.0608
 4261W        W20335  17.445   9.031   4.451  0.0755 -0.1018  0.2804
 4262W        W20336   4.481   0.282  15.529 -0.1910 -0.3726 -0.0357
 4263W        W20337  16.276   8.489   0.774  0.0423  0.0216 -0.4034
 4264W        W20338   8.093  12.462   4.624 -0.0620 -0.0817  0.2769
 4265W        W20339  16.224  17.973   1.299  0.1843 -0.0006  0.3083
 4266W        W20340   4.391   3.073   4.351  0.3676  0.2527 -0.1431
 4267W        W20341  12.564   3.473  15.877 -0.0345  0.1364  0.0529
 4268W        W20342   8.927   9.672   0.471  0.0409  0.0969 -0.0471
 4269W        W20343   9.985   5.994  15.167  0.0707  0.1788 -0.0921
 4270W        W20344   0.750   2.439  13.298 -0.2712  0.2950 -0.0959
 4271W        W20345   3.763  11.482   1.135  0.2580 -0.0201  0.2227
 4272W        W20346   2.253   5.718  11.408 -0.0911 -0.0059 -0.2179
 4273W        W20347  18.049   9.274   2.121 -0.1556  0.3373  0.0303
 4274W        W20348   2.248  18.047   0.352 -0.3873  0.2136 -0.1142
 4275W        W20349  18.119   0.907   4.828  0.0182  0.2716 -0.0269
 4276W        W20350  11.650  11.184  16.230  0.0086 -0.1106 -0.0520
 4277W        W20351   6.462   3.872  16.211 -0.2911 -0.2798 -0.0563
 4278W        W20352  14.182   2.916  16.340  0.0696  0.0044  0.1286
 4279W        W20353  10.531   5.730  12.009 -0.1205 -0.0538  0.1245
 4280W        W20354   1.126  13.198  12.389  0.2217 -0.0925 -0.4910
 4281W        W20355   1.419   8.342  13.448  0.5340  0.1457  0.2138
 4282W        W20356  12.691   2.936   0.226  0.2912  0.0930  0.0432
 4283W        W20357  14.546  13.775   3.290  0.1501 -0.0441  0.0354
 4284W        W20358   1.281  15.833   5.023  0.1899 -0.0160 -0.0551
 4285W        W20359   0.793  12.712   2.840  0.0025  0.1188  0.2740
 4286W        W20360   9.654   5.016   5.750 -0.1517 -0.1038  0.0356
 4287W        W20361   8.590   9.730  16.152  0.1569 -0.0079 -0.0129
 4288W        W20362   5.066   4.309   4.924  0.0769 -0.1012 -0.2327
 4289W        W20363   1.729  13.685   5.951 -0.0694 -0.1745  0.0272
 4290W        W20364  12.589  16.901   5.530 -0.4258 -0.0932  0.0874
 4291W        W20365   2.780   3.897   4.167  0.1940  0.0521 -0.0444
 4292W        W20366   8.936   9.643   2.931  0.0945  0.0815  0.0207
 4293W        W20367   9.533  18.010   0.399  0.0455  0.1620  0.0065
 4294W        W20368   2.955  13.083   2.467 -0.0103 -0.0931  0.2903
 4295W        W20369   5.219   7.884  16.176  0.0301 -0.0684 -0.0738
 4296W        W20370   0.202   3.280   1.304  0.0403  0.0735 -0.0663
 4297W        W20371   9.120   7.597   1.624 -0.1482 -0.1501  0.0303
 4298W        W20372   2.510   8.245  10.599 -0.3133  0.0620  0.0493
 4299W        W20373  16.465   8.456   1.692 -0.3306  0.0523  0.0838
 4300W        W20374   5.651   3.950   2.210 -0.2002  0.2526  0.2598
 4301W        W20375   6.961   0.491   4.111 -0.0528  0.0644  0.2859
 4302W        W20376  16.298   5.919   5.890  0.2032 -0.1952  0.0201
 4303W        W20377   0.231   2.420  16.125  0.4087  0.1329 -0.2100
 4304W        W20378   4.449  15.030  15.490 -0.2757  0.1513 -0.1393
 4305W        W20379  13.821   6.669   5.540 -0.1706 -0.0606 -0.2194
 4306W        W20380  14.121   4.520   6.416 -0.3302 -0.3858 -0.0136
 4307W        W20381   2.116   3.904  15.350  0.2770 -0.2210 -0.2443
 4308W        W20382   0.539   3.926   4.956 -0.0511  0.2021 -0.0450
 4309W        W20383   4.436   4.716   3.987  0.3129  0.0429  0.2458
 4310W        W20384  12.820  16.349   0.346 -0.0747  0.2261  0.0108
 4311W        W20385   0.874  15.371  13.357  0.2651  0.1793  0.1225
 4312W        W20386  15.367   8.392  12.093  0.0744  0.1888  0.1291
 4313W        W20387   6.845   8.913  14.819 -0.0345  0.0567  0.1794
 4314W        W20388  13.855   8.572   1.813 -0.0575  0.0223  0.0279
 4315W        W20389   6.507  10.765   0.422  0.1875  0.1239  0.1868
 4316W        W20390   2.186   8.258   4.525  0.1365 -0.0896 -0.0127
 4317W        W20391   9.752   3.147   0.777  0.1972 -0.0834  0.3662
 4318W        W20392  15.021  17.482   2.589  0.3771  0.3871  0.2270
 4319W        W20393  14.605  12.123   4.759  0.2785 -0.2578  0.1368
 4320W        W20394  14.885  12.929   4.363  0.1230 -0.2432  0.2051
 4321W        W20395   0.578  16.547   4.148  0.0562  0.1074  0.0919
 4322W        W20396  17.250  14.401   3.208 -0.0675 -0.0355 -0.0671
 4323W        W20397   4.812   7.055  11.448 -0.0516  0.1181 -0.1313
 4324W        W20398  13.447   8.488   0.040 -0.1963 -0.2625 -0.2828
 4325W        W20399   9.827   7.731   3.539  0.1141 -0.0348  0.2011
 4326W        W20400   2.317  15.912  13.489  0.0138  0.0724  0.0626
 4327W        W20401   6.287   1.178   5.114 -0.3926  0.1851 -0.0961
 4328W        W20402   8.708   1.970   0.036 -0.0321 -0.0347 -0.0340
 4329W        W20403   5.367  14.225  13.280  0.2172 -0.3794  0.2595
 4330W        W20404  10.580   0.570  12.824 -0.1561  0.0720 -0.2194
 4331W        W20405   6.487  15.956   5.967  0.2811  0.5871  0.1496
 4332W        W20406  11.920  15.850   4.654 -0.1862  0.2017  0.0101
 4333W        W20407   1.842  13.821   0.482 -0.2597  0.1948 -0.0402
 4334W        W20408  11.799  11.918  16.306 -0.1358 -0.1409  0.1326
 4335W        W20409   1.972   0.375  15.885 -0.2203 -0.1667 -0.0770
 4336W        W20410   8.133  12.575  15.603 -0.0835  0.1401 -0.0314
 4337W        W20411   0.530   7.479   3.995 -0.0483  0.1671  0.0234
 4338W        W20412   0.235  16.045   4.710  0.3569  0.1614  0.0114
 4339W        W20413  10.008  14.829   3.392  0.0781  0.0677 -0.1224
 4340W        W20414  10.959   5.554  12.250 -0.2551 -0.2488  0.0611
 4341W        W20415   1.771  11.226   4.009 -0.5651  0.4643  0.1971
 4342W        W20416   7.688   8.323   3.322 -0.0091  0.1564 -0.1087
 4343W        W20417   0.200   8.417   3.938  0.0899  0.0456 -0.0618
 4344W        W20418   1.302  15.564   1.288 -0.1231  0.0226 -0.0291
 4345W        W20419   8.702  11.334   5.490 -0.1075  0.2137 -0.2699
 4346W        W20420  14.227  10.146   5.790 -0.2816  0.0270  0.2286
 4347W        W20421   8.753  17.550   5.375 -0.2159 -0.2197  0.3039
 4348W        W20422   3.083   9.324  16.045 -0.0466 -0.1499 -0.2005
 4349W        W20423   1.329  16.192  14.618  0.0235 -0.0032  0.1895
 4350W        W20424  17.926  11.338   4.224  0.1356 -0.2182  0.5507
 4351W        W20425   0.403   7.229  12.745 -0.0708 -0.0368 -0.0374
 4352W        W20426  12.111   6.240   0.969 -0.0031 -0.0553  0.2440
 4353W        W20427   1.093   8.891   3.126  0.0623 -0.0096 -0.2148
 4354W        W20428   8.118  12.999   2.932 -0.2558 -0.2031 -0.1930
 4355W        W20429   0.161   6.117  14.641 -0.0553 -0.2753  0.0339
 4356W        W20430  14.824  17.927  10.626 -0.2003  0.2013  0.1246
 4357W        W20431   5.263   7.967   0.378 -0.0952  0.1283 -0.2073
 4358W        W20432   7.468   0.323  16.292 -0.0509 -0.0277 -0.1868
 4359W        W20433   2.990  17.406  14.829 -0.2948  0.1761 -0.0478
 4360W        W20434   3.013  17.216   5.680 -0.1166  0.0105  0.1711
 4361W        W20435  13.411  16.349   3.636  0.2187 -0.4809 -0.1522
 4362W        W20436   7.084  14.522   1.538  0.0827  0.1208  0.0015
 4363W        W20437  13.098   7.298   3.346 -0.2406 -0.1019  0.0952
 4364W        W20438   0.470  12.548   1.851  0.3623 -0.0558  0.0928
 4365W        W20439   0.063   2.631   5.031 -0.0550  0.3622  0.0222
 4366W        W20440   1.910  14.220   3.118  0.0975  0.1689 -0.3763
 4367W        W20441  13.692   6.403   0.266 -0.0932 -0.3928  0.0218
 4368W        W20442  18.017  10.305  12.529 -0.1430  0.0095 -0.0916
 4369W        W20443  14.694  17.538  13.853 -0.1245  0.0991  0.1511
 4370W        W20444  17.690  13.245  13.275  0.1973 -0.0245  0.4996
 4371W        W20445   6.411   7.178   5.475 -0.1239  0.1292 -0.1870
 4372W        W20446   8.506   4.797  11.985  0.0128 -0.1111  0.2560
 4373W        W20447   7.821  18.232   4.165  0.0848  0.1767 -0.1571
 4374W        W20448  17.165   1.524  15.813 -0.2163  0.1540  0.0688
 4375W        W20449   5.905  16.161  13.019  0.4680  0.1289 -0.2248
 4376W        W20450   7.075  10.951   3.713  0.0720  0.3339 -0.1842
 4377W        W20451   2.117  14.752  13.379 -0.3784  0.0112  0.4147
 4378W        W20452   5.525  12.873  13.552  0.0049  0.3093  0.2286
 4379W        W20453   2.575  14.277  11.059  0.3682 -0.1614  0.0903
 4380W        W20454   4.937   5.515   0.563 -0.1557 -0.1531 -0.2644
 4381W        W20455  13.592   2.880  14.560  0.0986  0.2213 -0.0889
 4382W        W20456  17.727   5.658  15.883  0.0351 -0.3369  0.1501
 4383W        W20457   2.938   9.894   2.945  0.2992  0.1501 -0.1014
 4384W        W20458   3.564   7.819  12.631  0.1651  0.0440 -0.3793
 4385W        W20459  14.249  17.420   0.460 -0.4487 -0.1415  0.2157
 4386W        W20460   7.164  14.255   5.830 -0.0351 -0.1183 -0.0641
 4387W        W20461   7.128  13.359   5.635 -0.4791  0.4254  0.1520
 4388W        W20462   7.986  17.529   1.056 -0.1119 -0.3170  0.1336
 4389W        W20463  14.526   2.666   2.030 -0.0224 -0.2170  0.0465
 4390W        W20464  14.233   1.698   3.479 -0.0288 -0.1059 -0.0450
 4391W        W20465   6.544   8.102   4.232  0.2471  0.1113 -0.0740
 4392W        W20466   7.043   3.890   6.231 -0.1514  0.0128 -0.1860
 4393W        W20467   8.453   8.034   2.501 -0.3079 -0.1153  0.1262
 4394W        W20468   3.608  16.797   4.957 -0.2115 -0.2758  0.0138
 4395W        W20469  16.837  14.055   5.397 -0.0886  0.1484  0.2070
 4396W        W20470  10.333   7.336   3.124 -0.0822  0.1884  0.3042
 4397W        W20471  16.478  14.870   3.526  0.1193 -0.0759 -0.0958
 4398W        W20472  17.789   1.825   2.549 -0.0186 -0.0353  0.0741
 4399W        W20473   9.152  13.644   2.796  0.0818 -0.1152 -0.0598
 4400W        W20474   0.670   4.772   5.129 -0.0509  0.0650  0.0623
 4401W        W20475   4.277  14.576   4.177  0.0630  0.3418  0.0346
 4402W        W20476  16.210   8.629  14.727 -0.0595 -0.0775  0.0185
 4403W        W20477  16.011   2.841  14.047 -0.1493 -0.2899 -0.2391
 4404W        W20478  15.811  10.444  13.431  0.1230 -0.4369 -0.2284
 4405W        W20479   3.387  14.640  13.641 -0.0095 -0.1194  0.0823
 4406W        W20480  16.465   2.948   4.968 -0.1343 -0.2134 -0.0792
 4407W        W20481  17.748  17.020  14.081 -0.1526 -0.1055 -0.1788
 4408W        W20482   5.139  14.470  11.166 -0.0763  0.0967 -0.0621
 4409W        W20483  16.969  12.986  11.646 -0.0882  0.0092 -0.0107
 4410W        W20484  16.633   2.022  16.180 -0.0491  0.0168 -0.1164
 4411W        W20485   4.744  11.353   4.605 -0.1362  0.0223 -0.3768
 4412W        W20486   7.702   3.993  14.821 -0.1690 -0.0517  0.2252
 4413W        W20487   5.523   7.549   0.169  0.1302  0.1507 -0.0798
 4414W        W20488   0.003  14.057   5.454  0.0742 -0.0103  0.2384
 4415W        W20489  15.543  14.094  10.349  0.1638 -0.1125  0.1416
 4416W        W20490   5.324  18.074  14.995 -0.0035  0.0561  0.2981
 4417W        W20491   9.757   6.213   1.952 -0.3803  0.3165 -0.0060
 4418W        W20492   8.725  14.233   0.720  0.1829 -0.1190 -0.0461
 4419W        W20493  16.273   3.313   2.189 -0.0745  0.2048  0.0229
 4420W        W20494   1.410  10.701  15.598 -0.0795  0.1933  0.0463
 4421W        W20495   0.903   7.782  15.171 -0.0626  0.0610 -0.1033
 4422W        W20496  15.111   1.856   0.272  0.1207 -0.0925 -0.1055
 4423W        W20497  18.038  17.701  16.047 -0.1523  0.2021 -0.2142
 4424W        W20498   2.130  10.568   4.750  0.1010 -0.1039 -0.0543
 4425W        W20499   5.231   0.068   4.304  0.1699  0.1248  0.2765
 4426W        W20500   4.179  17.529   4.288  0.1753 -0.1125 -0.0883
 4427W        W20501   4.498   3.876   2.580  0.2449  0.1084  0.0924
 4428W        W20502  15.071  10.880  13.824  0.1667  0.2679 -0.1045
 4429W        W20503  12.157   5.654  11.959 -0.2417 -0.1162  0.1589
 4430W        W20504   3.640   4.541   4.515 -0.4211  0.2326 -0.1426
 4431W        W20505   8.391  16.124   1.078  0.0074  0.2098 -0.1747
 4432W        W20506   0.158  17.788   4.010 -0.0002  0.1653 -0.0352
 4433W        W20507   1.597   5.436   1.845  0.2354 -0.0962 -0.4667
 4434W        W20508  14.974   6.293   2.297  0.1348  0.3720  0.0947
 4435W        W20509  18.126   3.545   2.818 -0.2826 -0.0690 -0.0270
 4436W        W20510  13.677   3.061  13.414  0.1057 -0.0930 -0.0094
 4437W        W20511   7.304   4.392   2.757  0.0522 -0.1711 -0.0136
 4438W        W20512  17.330   4.998   4.116 -0.3720 -0.1989  0.0036
 4439W        W20513   6.753   8.585  16.469 -0.0080 -0.0060  0.2859
 4440W        W20514   0.487  18.054   3.259  0.3486  0.4906 -0.0025
 4441W        W20515  15.661   7.913  15.080 -0.1001  0.1689  0.2379
 4442W        W20516  14.778   4.803   5.134  0.0503  0.0177 -0.0435
 4443W        W20517  14.395  15.467   5.197  0.0428  0.0854  0.1286
 4444W        W20518   4.916   3.478   4.897  0.2046  0.1093  0.2477
 4445W        W20519   6.280   5.621   0.504  0.2275  0.1234 -0.4176
 4446W        W20520  12.341   4.788   0.768  0.1281  0.1877 -0.5256
 4447W        W20521  12.980   9.160  14.024 -0.3175 -0.0749 -0.1357
 4448W        W20522   8.355  12.454  13.055  0.1131 -0.2784 -0.0302
 4449W        W20523  10.174   3.496   0.674 -0.0540 -0.2410 -0.4851
 4450W        W20524  10.033  11.527   3.965  0.3270 -0.1526  0.3594
 4451W        W20525  17.373   0.212  16.222  0.1266  0.0417  0.1515
 4452W        W20526   5.674   7.826   1.073 -0.1517  0.0123  0.0281
 4453W        W20527  14.647  10.398   3.082 -0.0583  0.4322 -0.0687
 4454W        W20528  15.863   7.687   5.789 -0.0287  0.1587 -0.2858
 4455W        W20529  13.620  10.408   3.251 -0.4906 -0.2023  0.2714
 4456W        W20530   2.378   2.691  14.647  0.1743 -0.1595  0.3822
 4457W        W20531  12.478   9.819  13.268 -0.4768 -0.1980 -0.0319
 4458W        W20532  12.526  17.436   1.030 -0.0101 -0.1190  0.3607
 4459W        W20533  12.458  12.668   4.037 -0.0767  0.1087  0.1429
 4460W        W20534  14.560  13.296  11.675  0.3517 -0.0489 -0.1034
 4461W        W20535   5.047   7.637  15.399 -0.1465  0.2587 -0.2495
 4462W        W20536  12.486  13.632   4.178  0.2101  0.0426 -0.2836
 4463W        W20537  11.051  17.546   3.622 -0.0843  0.0286  0.1942
 4464W        W20538  16.871  14.381  12.002  0.1255 -0.0634 -0.1963
 4465W        W20539  17.037   7.765   4.735 -0.2746  0.0722  0.3941
 4466W        W20540   0.528   9.263   4.575 -0.1875  0.3309 -0.0397
 4467W        W20541   8.018   3.152   0.019  0.0851 -0.1675  0.2113
 4468W        W20542  14.062  17.673  14.485  0.3961  0.1973 -0.4911
 4469W        W20543  14.592   7.757   4.727 -0.3013 -0.0087 -0.1712
 4470W        W20544  15.816  11.684  11.548 -0.0925 -0.0782  0.1271
 4471W        W20545  14.747  17.226   0.791 -0.2514 -0.1091  0.1425
 4472W        W20546   4.531  11.461   5.372 -0.0088  0.1420 -0.1023
 4473W        W20547  14.901   5.232  11.245 -0.1018  0.0818 -0.3754
 4474W        W20548   7.360  13.597  14.142 -0.1051 -0.0526 -0.1586
 4475W        W20549  14.550   7.665  11.775 -0.1360  0.3467  0.1193
 4476W        W20550   7.578  10.863  13.377  0.1018 -0.1687  0.2502
 4477W        W20551   3.698  15.462  15.882 -0.1625 -0.1338  0.0328
 4478W        W20552   5.216   6.253   3.616 -0.1443 -0.0919  0.0940
 4479W        W20553   2.396  17.473   1.201 -0.0723 -0.1145 -0.2183
 4480W        W20554   6.030   6.331  13.383 -0.1837 -0.0980  0.2486
 4481W        W20555  12.496   5.609   1.414 -0.0676  0.4050  0.1596
 4482W        W20556  17.116  11.028  15.479 -0.2462  0.2520  0.0495
 4483W        W20557  11.225   3.561  14.404 -0.2478  0.1070  0.0377
 4484W        W20558   6.830   2.897   1.932 -0.5210 -0.1585 -0.0538
 4485W        W20559   3.574   7.382  14.263 -0.1913  0.1113  0.2653
 4486W        W20560   7.539   1.747   0.903  0.0087 -0.0107 -0.3773
 4487W        W20561   2.744   9.771  11.283 -0.2668 -0.0638  0.0737
 4488W        W20562   6.371  11.178   4.176 -0.3078  0.0955 -0.3261
 4489W        W20563  13.014   9.585   3.304  0.1851  0.3741 -0.0239
 4490W        W20564   1.440  14.208   1.204  0.1029 -0.0390 -0.0462
 4491W        W20565   6.835   4.270  16.448  0.1553  0.1985 -0.2082
 4492W        W20566   5.180   5.603  12.092 -0.0078  0.2638 -0.2795
 4493W        W20567  12.856   6.386  12.772 -0.0117 -0.4716 -0.0274
 4494W        W20568  13.570  16.274   3.133 -0.0842  0.2120 -0.0077
 4495W        W20569  17.690  14.582   3.248 -0.0814  0.0008  0.0083
 4496W        W20570   6.868  10.925  15.385  0.2943  0.2956  0.3106
 4497W        W20571  12.617   9.648  12.783  0.0467  0.0102 -0.0832
 4498W        W20572  13.628  17.420  15.209 -0.0124 -0.0960  0.1818
 4499W        W20573   8.603  12.200  14.481 -0.2547  0.0458  0.0464
 4500W        W20574  16.338  13.077  10.316  0.1357 -0.0747 -0.2521
 4501W        W20575  16.479  16.335   5.555 -0.0109  0.0796  0.3496
 4502W        W20576   6.000   9.280  11.025  0.0379  0.2727 -0.1699
 4503W        W20577   7.142   9.887  13.842  0.2676  0.0226  0.0405
 4504W        W20578   6.821  10.951  11.440  0.1247 -0.0262  0.2829
 4505W        W20579   7.293   4.165  12.000  0.1477 -0.2986 -0.1046
 4506W        W20580   4.821   0.074   0.702 -0.3058 -0.0669 -0.3337
 4507W        W20581   3.996   0.621  14.415 -0.1388  0.1577 -0.2543
 4508W        W20582  12.667   1.978   4.377  0.1417  0.1519  0.0836
 4509W        W20583   0.909   0.753  15.351 -0.0152 -0.1911  0.1441
 4510W        W20584   7.894   5.305  14.068 -0.1216  0.2065  0.1609
 4511W        W20585  16.558   2.178  12.741  0.1457  0.1966 -0.1640
 4512W        W20586   6.648  17.359   2.146  0.0860 -0.1407 -0.2158
 4513W        W20587   0.309   0.600  14.720  0.0942 -0.1525 -0.2306
 4514W        W20588   6.954   2.578  11.703  0.3038 -0.2016 -0.1297
 4515W        W20589   5.857  12.361   0.427 -0.1686 -0.0261  0.1138
 4516W        W20590   5.945  15.728   3.917  0.2992 -0.1522 -0.2560
 4517W        W20591   9.775  15.738   1.243 -0.3598  0.1364  0.2801
 4518W        W20592  17.815  15.669  15.640 -0.0154  0.1579  0.1123
 4519W        W20593   8.399   9.332   5.569  0.0278  0.1771  0.3383
 4520W        W20594   9.449   2.932   6.296 -0.3274  0.0548 -0.0193
 4521W        W20595   1.154  14.259   1.717 -0.0348  0.0462  0.0630
 4522W        W20596   1.846  15.405   3.225  0.1280 -0.1770  0.2621
 4523W        W20597   1.624  17.921  13.427  0.2418  0.1367  0.2278
 4524W        W20598   6.834   3.610  13.553  0.0728  0.0786  0.0149
 4525W        W20599   2.524  13.491  15.359  0.0887  0.0550  0.2233
 4526W        W20600  14.694   0.662  14.724  0.0442  0.0421  0.2832
 4527W        W20601   9.924   4.557   3.124 -0.0090  0.2201 -0.1905
 4528W        W20602   8.781  14.989  11.412 -0.1433  0.1865  0.1365
 4529W        W20603  11.307  12.594  10.815 -0.3818 -0.0717  0.1082
 4530W        W20604  10.723   6.922   1.698  0.0375 -0.1881 -0.0650
 4531W        W20605   4.712  14.841   0.499 -0.0686 -0.0572  0.1175
 4532W        W20606  13.755  11.727  13.561 -0.1399 -0.0794  0.0691
 4533W        W20607  10.819  17.311  13.254 -0.0201 -0.0447 -0.1882
 4534W        W20608   7.545  11.959  13.277  0.0117  0.0404 -0.3075
 4535W        W20609  16.113   5.023   2.553  0.0476  0.2050  0.0964
 4536W        W20610   0.752   8.906  11.670 -0.0621 -0.0262 -0.0148
 4537W        W20611   0.321  16.455   0.524  0.4235  0.0922 -0.3071
 4538W        W20612  17.680   1.324  15.841  0.2211 -0.2315  0.2441
 4539W        W20613  15.488   1.349  15.076 -0.2205  0.0801  0.0485
 4540W        W20614   2.890   7.910  14.065 -0.0771  0.2731  0.1949
 4541W        W20615   0.338   7.660   2.966 -0.1787 -0.1020 -0.1434
 4542W        W20616   6.146  10.258  11.389 -0.0730  0.0944 -0.1427
 4543W        W20617  12.855   9.511   4.194 -0.0359  0.0478 -0.1220
 4544W        W20618   0.652  16.397   4.916  0.1299 -0.0600  0.1419
 4545W        W20619  14.724   1.090  12.824 -0.2388 -0.1061 -0.1129
 4546W        W20620   8.990   6.030   2.260 -0.2718 -0.2176  0.1628
 4547W        W20621  11.696  17.835   5.132 -0.1302 -0.1203  0.2828
 4548W        W20622  13.904   9.588  15.528 -0.2926  0.0969  0.0581
 4549W        W20623   8.967   3.975  16.363 -0.0040 -0.3186  0.3959
 4550W        W20624  10.504  13.382  15.112 -0.0217  0.0582 -0.0022
 4551W        W20625   3.294   9.295   4.192 -0.0816  0.2636 -0.1461
 4552W        W20626  11.001  11.035  15.378 -0.0129  0.0054 -0.0520
 4553W        W20627   0.874   2.923   0.838 -0.1942 -0.1434  0.2279
 4554W        W20628  15.992  13.361   1.338 -0.2109 -0.1561 -0.0215
 4555W        W20629  15.739  13.314  14.148 -0.0816  0.3149 -0.1207
 4556W        W20630  14.055   4.989   0.426  0.5914  0.0589 -0.2283
 4557W        W20631  15.993  16.597   1.471  0.0197  0.1744 -0.0659
 4558W        W20632   3.099  11.039  11.681  0.3911  0.2560 -0.2993
 4559W        W20633   5.070  11.461  12.254  0.1547 -0.1211 -0.0480
 4560W        W20634  15.468   5.680   3.771  0.0515  0.1752  0.2531
 4561W        W20635  15.513   8.096   1.347 -0.0859  0.0204 -0.0329
 4562W        W20636   1.069   2.060  14.821 -0.2353  0.0409 -0.1332
 4563W        W20637   4.057  12.631  14.085  0.1076  0.1973  0.3383
 4564W        W20638  15.153  17.744  13.385 -0.0509  0.1105 -0.0618
 4565W        W20639  13.741  15.417   0.898  0.0451  0.1006 -0.1711
 4566W        W20640   1.792  16.823   5.088  0.0964 -0.3857  0.2800
 4567W        W20641   3.494   8.237   0.641 -0.3052  0.1105  0.0071
 4568W        W20642  12.085  17.961   2.704  0.1186  0.1354 -0.0146
 4569W        W20643  12.706   6.387   5.474 -0.2311 -0.1595 -0.1916
 4570W        W20644   1.732   1.468   5.011  0.3587 -0.1236 -0.1751
 4571W        W20645   6.305  15.332   1.932 -0.2001 -0.1365 -0.0826
 4572W        W20646   1.355   4.184   3.765 -0.5517  0.6609 -0.0053
 4573W        W20647  11.659   4.511  11.709  0.1106 -0.1687  0.0940
 4574W        W20648  16.624   0.834  12.211 -0.2255 -0.1380 -0.0626
 4575W        W20649   5.658   3.658   3.615 -0.0056 -0.1000  0.0705
 4576W        W20650  14.686   4.845   1.439  0.0503  0.1536 -0.0022
 4577W        W20651   6.066  16.822   4.505  0.0005 -0.2480  0.1603
 4578W        W20652  11.401  14.144  15.582 -0.1515 -0.1588  0.0164
 4579W        W20653  13.354  14.683  13.109  0.1878  0.1268 -0.2076
 4580W        W20654   5.984   3.770  13.737 -0.1877 -0.1164  0.0743
 4581W        W20655   3.457   2.122   3.428  0.0205 -0.0253 -0.0695
 4582W        W20656  17.380   4.771  15.492  0.1166 -0.1429  0.0138
 4583W        W20657   9.380  14.711   5.749  0.1852  0.0425 -0.0215
 4584W        W20658  12.165   3.152  14.481 -0.1094  0.4199 -0.2175
 4585W        W20659  17.851   7.586   5.117  0.3924  0.1734  0.0052
 4586W        W20660   0.019  14.150   3.706 -0.1078 -0.3811  0.1046
 4587W        W20661  17.587  16.233   5.544 -0.0517  0.0125  0.0917
 4588W        W20662  16.050  11.645   1.861  0.1575  0.0937 -0.2172
 4589W        W20663  15.584  10.166  15.882 -0.3031  0.1479  0.1920
 4590W        W20664  16.637   6.314   0.015  0.0829 -0.2800 -0.0784
 4591W        W20665  12.140   5.617  14.294  0.1736  0.0464  0.0786
 4592W        W20666  11.568  16.625  13.492  0.1559  0.1085  0.0346
 4593W        W20667   8.974   8.949  14.686  0.2372 -0.2361  0.0350
 4594W        W20668  16.248  11.441  16.411  0.4070  0.1256  0.0559
 4595W        W20669  14.793  14.957   0.008  0.2181  0.0073 -0.2153
 4596W        W20670   0.440   2.736   4.069 -0.2961 -0.1979  0.0741
 4597W        W20671   0.607  13.712  11.653  0.0713 -0.1805 -0.1073
 4598W        W20672   7.541  15.328   1.151  0.3696  0.0906  0.0191
 4599W        W20673   6.623   3.919  11.229 -0.0153 -0.2476 -0.0967
 4600W        W20674  14.557   1.818  15.479 -0.1673  0.2045 -0.1767
 4601W        W20675  14.698  17.992   1.909 -0.1077  0.1655 -0.1717
 4602W        W20676  12.219  10.353  16.442  0.1572 -0.0637  0.2881
 4603W        W20677   3.187   5.409  14.467  0.1250 -0.1383 -0.0594
 4604W        W20678   1.913   7.757   9.684 -0.0243 -0.0004  0.0950
 4605W        W20679   2.571   0.523   2.198  0.0555 -0.2958  0.1423
 4606W        W20680   7.094   7.361   5.165 -0.0535 -0.1654  0.0160
 4607W        W20681  13.487  16.074  14.538  0.0735  0.0251 -0.0534
 4608W        W20682  14.452  14.940   2.630  0.2581 -0.0074 -0.2816
 4609W        W20683  12.137  14.849   0.180 -0.1647  0.0556  0.2186
 4610W        W20684   7.773   0.315   3.783 -0.2184 -0.2805  0.1339
 4611W        W20685  16.464  17.588   5.805  0.1744  0.0781  0.3648
 4612W        W20686  16.721   3.273  14.352 -0.0949  0.0534 -0.1542
 4613W        W20687   6.288  10.189   5.331 -0.1116  0.1021 -0.2016
 4614W        W20688  13.448   4.304   0.221 -0.1454 -0.0172 -0.0533
 4615W        W20689  11.307   0.123   3.500 -0.2659  0.0730  0.2731
 4616W        W20690   2.367   6.047  12.724  0.2869  0.2973  0.0912
 4617W        W20691  12.614  13.347   6.167  0.1340 -0.1593 -0.0231
 4618W        W20692  10.495   9.834   2.300  0.1829  0.0208 -0.1434
 4619W        W20693  14.063   1.439  13.117  0.0860  0.0167  0.3308
 4620W        W20694   0.027   1.671  11.847  0.0444 -0.0718 -0.1784
 4621W        W20695   6.675  15.292  15.149 -0.2699 -0.1655  0.1854
 4622W        W20696  13.694  11.873  10.447 -0.1646 -0.0734 -0.2645
 4623W        W20697   7.813  11.559   2.389 -0.1360  0.0815 -0.0347
 4624W        W20698  17.450   9.466  11.504  0.0170  0.3164  0.1138
 4625W        W20699   9.861  10.138   0.837  0.0683 -0.0601 -0.1503
 4626W        W20700   4.215  14.522   3.055 -0.2593  0.0073 -0.1597
 4627W        W20701   6.523   4.931  13.441  0.0484  0.3370 -0.0318
 4628W        W20702  14.712  16.224   2.746  0.0556 -0.0218  0.2418
 4629W        W20703   2.641   6.293  10.656  0.2032  0.0691  0.1471
 4630W        W20704  13.506  16.839   3.451  0.1426  0.1614  0.2342
 4631W        W20705   4.279   7.873   0.623 -0.1983  0.0542 -0.1833
 4632W        W20706   9.725   8.803  13.762  0.0284  0.1969  0.0538
 4633W        W20707  17.873   8.726   0.828  0.0110  0.1633 -0.3815
 4634W        W20708   1.588   7.757   1.176 -0.0241 -0.1400  0.4361
 4635W        W20709   9.692   9.700   0.979 -0.1164  0.1591  0.1126
 4636W        W20710  14.442   1.650  14.641 -0.2249 -0.1398  0.1260
 4637W        W20711   9.344   9.316   3.243 -0.3162  0.0784  0.3943
 4638W        W20712   3.493  17.191   0.322 -0.0421  0.1347 -0.0920
 4639W        W20713  14.925  12.450   0.407 -0.1332  0.0723  0.3700
 4640W        W20714  13.444  17.884  15.790  0.0519 -0.2361  0.1533
 4641W        W20715   3.594  12.657  13.748  0.3869  0.0765 -0.1629
 4642W        W20716  10.987  11.522   0.386  0.0027  0.1678  0.1096
 4643W        W20717  16.807   2.936   0.679  0.1153  0.0221  0.0357
 4644W        W20718  16.987   2.298   4.830  0.1403  0.3784  0.1177
 4645W        W20719   3.894   5.773   3.874 -0.0165  0.0556 -0.0925
 4646W        W20720  15.597  14.406   0.669 -0.1956  0.1437  0.0673
 4647W        W20721   7.213  15.477  16.337 -0.2612  0.0162 -0.1879
 4648W        W20722   4.461   6.533  10.665 -0.3548 -0.0846 -0.2311
 4649W        W20723  17.564   5.886  13.236  0.2865  0.0893 -0.3392
 4650W        W20724   1.805   1.737   2.666 -0.0799  0.0184  0.1954
 4651W        W20725  16.120   8.154  13.669 -0.0209  0.0501 -0.4390
 4652W        W20726   1.079   7.753   1.090  0.1143  0.0678  0.1870
 4653W        W20727  14.777  13.297  15.344 -0.1839 -0.0853 -0.0316
 4654W        W20728  10.542   7.358   4.063  0.1752 -0.2139 -0.0286
 4655W        W20729   3.203  16.426   5.623  0.1386 -0.1797 -0.1678
 4656W        W20730  17.156  12.635  15.041 -0.3530  0.0278 -0.0080
 4657W        W20731  18.182  17.118   3.133  0.0050 -0.0294  0.2093
 4658W        W20732  11.214  10.463   2.227 -0.0465 -0.0145  0.0415
 4659W        W20733  14.305  14.397   1.626 -0.0687 -0.1636  0.0123
 4660W        W20734   0.416   2.410   0.077 -0.0176 -0.0275 -0.0748
 4661W        W20735   5.943   5.248  14.872 -0.1373  0.2087 -0.0133
 4662W        W20736   8.243   7.663   3.747 -0.2209 -0.0843 -0.1688
 4663W        W20737  12.328  13.194   0.099 -0.0804  0.0302  0.1559
 4664W        W20738  18.235  17.003  14.063  0.1654 -0.3233  0.0993
 4665W        W20739   0.418  10.478  13.257 -0.0370 -0.2640  0.1306
 4666W        W20740  10.988   8.537   4.573 -0.0780  0.1283 -0.2064
 4667W        W20741   4.143  17.013   2.587  0.1604  0.0067  0.0742
 4668W        W20742  17.230   1.052  16.064  0.2822  0.1693 -0.2293
 4669W        W20743   0.901  16.780  15.141  0.1675  0.0824 -0.0306
 4670W        W20744  15.183   0.152  16.122  0.1221  0.3161  0.0774
 4671W        W20745  14.988  17.849  14.608 -0.2233 -0.1898 -0.1056
 4672W        W20746   7.173  11.233  13.256  0.1236  0.1182 -0.2848
 4673W        W20747  14.736  13.069   6.320 -0.1100 -0.0846  0.1436
 4674W        W20748   8.071   9.656   5.455 -0.0467 -0.0948  0.0734
 4675W        W20749   6.356   1.553  13.116  0.0820 -0.1506  0.3475
 4676W        W20750   8.283   5.932   0.895 -0.1517  0.1275  0.2273
 4677W        W20751   7.517   4.905   4.440 -0.1010 -0.1253 -0.0013
 4678W        W20752   7.591   3.141   0.256 -0.0386 -0.0828 -0.0938
 4679W        W20753  13.829   0.983  15.496  0.1865  0.0799 -0.3414
 4680W        W20754   4.990  17.700   1.753 -0.0365 -0.1698 -0.0867
 4681W        W20755   1.773   0.934   4.885  0.1530  0.2718 -0.1968
 4682W        W20756   7.825  13.628  14.395  0.0087 -0.2571 -0.1456
 4683W        W20757   2.707  13.256  13.673  0.0383 -0.2865 -0.0218
 4684W        W20758   7.308  11.408   4.622 -0.1377 -0.0394  0.0450
 4685W        W20759   9.644   5.697  14.385 -0.3083  0.1963  0.0117
 4686W        W20760   1.704  16.500  12.570  0.4930 -0.0183  0.1586
 4687W        W20761   0.608  12.987   1.099  0.4649  0.0788 -0.1619
 4688W        W20762   1.641   7.685   0.643  0.1123  0.1991  0.2002
 4689W        W20763   6.297   7.205   2.241  0.4170  0.1547  0.1341
 4690W        W20764  12.907  18.005  15.935 -0.1300  0.2807  0.1548
 4691W        W20765   4.944   0.301   2.350 -0.1775 -0.0705 -0.0202
 4692W        W20766  16.113   7.992   0.942 -0.1820  0.0719  0.0694
 4693W        W20767   8.275  15.580  11.652 -0.0663 -0.1130 -0.0195
 4694W        W20768   9.111   0.550   3.771 -0.2313 -0.1673  0.0953
 4695W        W20769  17.501  17.148  15.778 -0.0498  0.0880 -0.1718
 4696W        W20770   6.987  10.508  15.846 -0.1756 -0.1412  0.1756
 4697W        W20771  15.094  12.152   3.887  0.0914 -0.5986  0.0854
 4698W        W20772  10.095  14.636   6.271  0.1357 -0.0261  0.0071
 4699W        W20773   2.992   7.505  14.349  0.0911 -0.0247  0.3831
 4700W        W20774  10.189  10.540   0.845 -0.3798  0.0415 -0.1217
 4701W        W20775   3.163   3.947  14.173  0.0032  0.1487 -0.0224
 4702W        W20776  10.052  16.394  13.320 -0.0767  0.3947 -0.2215
 4703W        W20777   7.960  15.559   2.431 -0.2483  0.0133 -0.0963
 4704W        W20778  17.004  12.204  13.732 -0.0563 -0.2495  0.0098
 4705W        W20779   6.953  11.785   2.465 -0.2353 -0.1831 -0.0951
 4706W        W20780  14.747  12.694  16.391 -0.1366  0.0232  0.1087
 4707W        W20781   0.240   0.372  14.310  0.0734  0.0702  0.0349
 4708W        W20782  13.946   3.185   2.521 -0.0820  0.1261 -0.0950
 4709W        W20783   1.981   4.752  10.620 -0.0750 -0.1112 -0.0300
 4710W        W20784  15.136   6.070   2.761 -0.0106  0.0953  0.0618
 4711W        W20785   2.755  15.888  11.113  0.0379 -0.0910  0.2234
 4712W        W20786   0.009  15.233   5.020  0.1312 -0.1548 -0.0303
 4713W        W20787   1.300  15.246  12.330 -0.1495  0.0326  0.2105
 4714W        W20788   4.443  14.779   5.781  0.1007 -0.2379  0.0005
 4715W        W20789   5.505   3.498   0.937  0.2566 -0.0811  0.2625
 4716W        W20790  13.561  10.400   1.968 -0.0821 -0.0164 -0.2469
 4717W        W20791  14.976  13.047  11.469  0.3902  0.2284  0.0498
 4718W        W20792   3.539  11.941   0.939 -0.3289  0.1272 -0.2205
 4719W        W20793   0.642  11.576  11.575 -0.3044  0.2289 -0.0814
 4720W        W20794  13.553  11.051   4.146 -0.2106  0.1646  0.3416
 4721W        W20795  14.714   0.911   4.145 -0.0509  0.1700  0.0513
 4722W        W20796  14.309  12.804  14.882  0.2665  0.0809 -0.1220
 4723W        W20797  10.470  16.489  15.322  0.3631 -0.1538 -0.3412
 4724W        W20798   8.544   2.150  13.947  0.0159 -0.2659  0.0029
 4725W        W20799   6.916   2.048  16.264  0.2032 -0.2106 -0.2486
 4726W        W20800   8.778   6.350  12.054  0.1492 -0.0786  0.0459
 4727W        W20801  11.771   8.313   3.883  0.3408 -0.2039 -0.0581
 4728W        W20802   6.216   7.946  16.171 -0.0991  0.1084 -0.0201
 4729W        W20803  11.488  15.020  12.318 -0.2839  0.0661  0.2029
 4730W        W20804   2.487   0.268  11.755 -0.0492 -0.3127  0.0728
 4731W        W20805   3.640   0.288   3.246 -0.1201 -0.1535 -0.2254
 4732W        W20806   2.178   7.276   1.957 -0.0572 -0.1753 -0.0140
 4733W        W20807   5.567  10.233   0.284 -0.0490  0.0969  0.2816
 4734W        W20808   3.203   6.806  11.248 -0.4389  0.1394 -0.1854
 4735W        W20809  13.795  12.067   5.979 -0.0504 -0.0848  0.1587
 4736W        W20810  14.898   1.896   1.645 -0.0584 -0.1035  0.3021
 4737W        W20811  12.052  15.463  13.004 -0.1726 -0.0803  0.3596
 4738W        W20812   5.964  17.224   4.746  0.1383  0.1973 -0.6159
 4739W        W20813  12.605  10.810   5.649 -0.0429  0.1372 -0.1593
 4740W        W20814  17.565  10.339  11.377 -0.3823 -0.1498 -0.1884
 4741W        W20815   8.595   6.877  11.385 -0.3248  0.4039  0.2667
 4742W        W20816  14.245   9.788   4.241  0.0148 -0.1253  0.3589
 4743W        W20817  18.133   6.537  13.442  0.1580 -0.1948 -0.4248
 4744W        W20818   4.774   2.662  14.336 -0.0874  0.0139  0.1224
 4745W        W20819  11.794   3.560  15.057 -0.0441  0.1426  0.1337
 4746W        W20820  16.531  17.369  13.671  0.0829  0.0918  0.1129
 4747W        W20821  11.962   8.409  13.376  0.0458  0.1724  0.1496
 4748W        W20822   0.170  17.174   3.553  0.0025  0.1904  0.0986
 4749W        W20823  17.988  16.103  15.915 -0.0472 -0.0558  0.0101
 4750W        W20824   9.499   4.218   0.175  0.2887 -0.0854  0.1323
 4751W        W20825   2.437   9.812  12.636  0.0682  0.5254  0.3506
 4752W        W20826   1.165  14.778  15.898  0.3998 -0.1649 -0.2083
 4753W        W20827  10.454   3.069   2.854 -0.0061 -0.2597 -0.1855
 4754W        W20828   5.315  17.834   0.438 -0.2525  0.0261  0.1753
 4755W        W20829   0.731   3.496   0.726  0.1519 -0.3001  0.1192
 4756W        W20830   2.056   3.488  15.092 -0.1053 -0.2414 -0.0471
 4757W        W20831   3.362  15.116  15.496  0.4389 -0.1615  0.0831
 4758W        W20832   8.650  17.209  11.723 -0.1820 -0.2137  0.1999
 4759W        W20833  15.994  15.206   1.578 -0.1121  0.0683  0.2311
 4760W        W20834  13.498  10.753   4.702 -0.0426  0.2823 -0.1499
 4761W        W20835  11.144   8.562  14.216 -0.0917  0.1863  0.1112
 4762W        W20836   2.519   9.952   1.296 -0.2892 -0.2972 -0.2373
 4763W        W20837  13.558   4.960  11.907 -0.0030 -0.2395  0.5458
 4764W        W20838  10.222  16.737   5.102 -0.0665  0.0831 -0.0363
 4765W        W20839   5.952   8.876  14.583  0.1375 -0.1756  0.2667
 4766W        W20840   6.719  11.121   1.340  0.2766  0.1367 -0.0239
 4767W        W20841  13.630  16.478  14.822  0.1115 -0.2475  0.1192
 4768W        W20842   0.750  12.078  14.452 -0.0549 -0.1569  0.0084
 4769W        W20843  12.933  15.127   4.164 -0.1893  0.0863 -0.0817
 4770W        W20844  15.599  16.210   1.298 -0.0572  0.2232  0.0037
 4771W        W20845   3.896   4.610  13.225  0.0559  0.0333  0.1115
 4772W        W20846  16.023  16.611   3.927 -0.1228  0.0770  0.1037
 4773W        W20847  12.005  12.675  12.420 -0.1350 -0.1465  0.1796
 4774W        W20848  12.348  12.218  13.611  0.4598  0.1293  0.3107
 4775W        W20849  12.414  17.320   5.564  0.2657 -0.2413  0.2447
 4776W        W20850   8.970  14.855   2.686  0.1595  0.1979 -0.1554
 4777W        W20851   8.404  13.745  15.661 -0.0330  0.2588 -0.3720
 4778W        W20852  10.804  12.652   4.570 -0.0862 -0.0069 -0.2035
 4779W        W20853  15.987  16.146   4.765  0.0710  0.1301 -0.0681
 4780W        W20854  18.106  16.007  12.583  0.1280 -0.0489 -0.0936
 4781W        W20855  14.902  16.502  16.029  0.0125 -0.0500  0.0634
 4782W        W20856   1.735  17.282  11.422 -0.1644  0.2501  0.0103
 4783W        W20857  12.232  18.036  12.440 -0.3615  0.3838 -0.0225
 4784W        W20858  15.536  16.651   2.470 -0.0907  0.3286  0.1101
 4785W        W20859   8.416   2.034   2.725 -0.1818  0.1072  0.0005
 4786W        W20860   9.422   1.015   3.873  0.1841 -0.0221  0.0507
 4787W        W20861   6.519  17.319  11.901 -0.1672  0.1012  0.1988
 4788W        W20862  15.371  16.231  15.037  0.0323  0.0101 -0.1826
 4789W        W20863   1.287   6.866   1.020  0.1000  0.0735  0.1321
 4790W        W20864  10.731   3.324   0.927 -0.1235  0.0555  0.0512
 4791W        W20865   2.479  17.477   2.763 -0.1290  0.1135 -0.1699
 4792W        W20866  12.587  10.427  13.089 -0.3853 -0.0979 -0.1841
 4793W        W20867  10.930   5.370  16.289 -0.2514 -0.1888 -0.2804
 4794W        W20868   2.157   1.900  15.825 -0.0860 -0.0150 -0.1773
 4795W        W20869  15.496  16.183  11.384 -0.0020  0.0657  0.1963
 4796W        W20870   0.417   9.705   0.704 -0.0725  0.0209 -0.1945
 4797W        W20871   9.859  12.313  15.211  0.1680 -0.0997 -0.0261
 4798W        W20872   7.488  14.162   2.737 -0.2802 -0.1711 -0.0985
 4799W        W20873  10.287   4.101   2.318 -0.1737 -0.2385  0.1441
 4800W        W20874  10.499   0.853  11.755  0.1423  0.2422  0.0986
 4801W        W20875   8.794  11.842  15.308 -0.2854 -0.1242  0.1646
 4802W        W20876   6.258   1.421   5.561 -0.2364 -0.0226  0.2375
 4803W        W20877  10.715   5.602   5.956  0.0235  0.2595  0.1774
 4804W        W20878  15.108   5.647  12.016  0.2085 -0.0503 -0.1166
 4805W        W20879   1.550   9.350   5.816  0.0076 -0.0915 -0.0209
 4806W        W20880  11.429   1.137  16.231 -0.0205 -0.2959 -0.1449
 4807W        W20881   8.353  10.103  13.457 -0.2302  0.2103  0.0799
 4808W        W20882  17.911   6.011  12.872 -0.3318  0.3133  0.0783
 4809W        W20883   9.041  11.246  14.969  0.0924  0.2589  0.0130
 4810W        W20884  17.266  10.592  14.847 -0.1552  0.0437  0.1982
 4811W        W20885  16.281  10.137  14.925  0.2065 -0.1209 -0.2800
 4812W        W20886   7.126   3.904  11.142 -0.2118 -0.3942  0.0102
 4813W        W20887   5.205  13.886   4.742  0.4309  0.0561 -0.1431
 4814W        W20888  18.082   7.128   0.387 -0.3734  0.3843 -0.2659
 4815W        W20889   8.896   6.978  12.920  0.2419  0.0156 -0.1087
 4816W        W20890   4.817  13.804  12.662 -0.0935 -0.2526 -0.0476
 4817W        W20891  13.835  13.376  13.238  0.2330 -0.1388 -0.1552
 4818W        W20892   8.340  15.002  12.860 -0.3460  0.1229  0.1515
 4819W        W20893   4.593  12.410  12.624  0.3088  0.2004 -0.3064
 4820W        W20894   2.947   7.915   4.913 -0.1547 -0.1081 -0.0044
 4821W        W20895   1.548   4.455  16.271 -0.1995 -0.0114  0.2759
 4822W        W20896   7.516  15.934   2.896  0.0411 -0.1094 -0.1848
 4823W        W20897   0.485  14.201  16.023  0.1097 -0.1639 -0.1806
 4824W        W20898   1.903   7.987   4.865 -0.1732  0.0594  0.0123
 4825W        W20899   7.881  16.773   0.482  0.2688  0.1678 -0.0501
 4826W        W20900  15.496   9.265   3.772  0.3588  0.1289  0.0462
 4827W        W20901   7.451   4.038   2.425 -0.3206  0.2321  0.2439
 4828W        W20902  17.125   0.625   0.605 -0.1492 -0.1418  0.1786
 4829W        W20903   3.360  11.241   1.340  0.4820  0.0878  0.1068
 4830W        W20904   6.658   9.063  14.224 -0.0610  0.0108  0.0059
 4831W        W20905   3.204  15.099   4.791  0.3146  0.1958 -0.1106
 4832W        W20906   8.295  16.824   1.300 -0.1639 -0.3365  0.1362
 4833W        W20907   0.963   4.309   0.703 -0.4259  0.3373  0.3444
 4834W        W20908  14.251  12.422  12.329 -0.1365  0.1322 -0.0405
 4835W        W20909   3.954   0.323   5.223 -0.1311  0.1588 -0.0963
 4836W        W20910   6.884   7.858  12.339  0.1221 -0.1738 -0.0992
 4837W        W20911   0.541   6.464  15.530  0.1798  0.1283 -0.1702
 4838W        W20912   1.334  13.840  14.290  0.1680 -0.3538 -0.0540
 4839W        W20913  12.969  15.879   0.701 -0.3085 -0.0551  0.1881
 4840W        W20914  12.565   9.624   2.332 -0.0080 -0.0700  0.2187
 4841W        W20915   0.567  18.024   5.341  0.1747 -0.2504 -0.1404
 4842W        W20916  11.533  11.875  15.593 -0.2901 -0.1960  0.1638
 4843W        W20917  11.097   3.457   0.572 -0.0701  0.0134  0.3095
 4844W        W20918   4.330   4.747   3.450 -0.0236 -0.1131 -0.0301
 4845W        W20919   1.153   1.501  16.053  0.0231  0.0523  0.0190
 4846W        W20920   3.809  16.060  13.298  0.1721 -0.0769 -0.2844
 4847W        W20921   5.482   5.975  14.991  0.0500 -0.3566 -0.2463
 4848W        W20922   7.009   1.657   0.055  0.1647  0.1449 -0.4235
 4849W        W20923  17.901   3.387  11.544  0.1760 -0.1891 -0.1464
 4850W        W20924   9.860   7.607  12.413 -0.0046 -0.0305  0.0069
 4851W        W20925  10.186  15.991   0.028  0.1986  0.0406  0.4511
 4852W        W20926  13.193  14.773  12.390  0.0121 -0.0560  0.2034
 4853W        W20927   8.047  17.864  16.248  0.3136  0.1114  0.3390
 4854W        W20928  16.671   0.707  15.955 -0.4155  0.1876 -0.0693
 4855W        W20929   8.748   8.614   1.123  0.1009 -0.1188  0.2959
 4856W        W20930  17.278   4.596  11.910  0.3255 -0.0340  0.1167
 4857W        W20931  11.452   4.791  15.636  0.0797 -0.2200  0.2667
 4858W        W20932  14.453   3.009   3.593 -0.0493  0.1063 -0.1859
 4859W        W20933   0.941   0.865   1.547 -0.0018  0.1424  0.5057
 4860W        W20934   7.416  10.054   2.642  0.4694  0.0070 -0.1380
 4861W        W20935  16.200   1.978   4.321 -0.0812  0.0919  0.3502
 4862W        W20936  17.907   4.443   2.325 -0.1615  0.0372  0.0466
 4863W        W20937   9.563  10.240   2.395  0.0428 -0.0163 -0.1702
 4864W        W20938   4.449   4.945   2.110 -0.0897 -0.0241  0.3504
 4865W        W20939  15.994  11.880  13.612 -0.0481 -0.0176  0.1198
 4866W        W20940  16.794   5.454   1.046 -0.0024  0.4025 -0.1280
 4867W        W20941   1.579   8.132  14.175 -0.0860  0.0420 -0.0132
 4868W        W20942  17.117   5.625  10.825  0.0596 -0.1061 -0.2572
 4869W        W20943   3.177  10.558  12.573  0.3218 -0.0669 -0.0893
 4870W        W20944  10.745  10.234   0.959 -0.1384 -0.0955  0.0724
 4871W        W20945  11.027  16.251  11.561 -0.1719 -0.0410  0.1372
 4872W        W20946   6.241   7.799   5.113 -0.0722 -0.2470 -0.0877
 4873W        W20947  12.781   6.901   3.374  0.0125 -0.2082  0.1593
 4874W        W20948   3.524  17.589  12.482  0.0657 -0.1546 -0.0801
 4875W        W20949  16.420  12.569   4.224 -0.0572  0.0078  0.1006
 4876W        W20950  12.164   4.025  14.964  0.1289 -0.0557 -0.0129
 4877W        W20951   3.266   5.638  13.231  0.1113 -0.1247 -0.4313
 4878W        W20952  13.229   9.217  14.521 -0.0401 -0.2069 -0.0971
 4879W        W20953   8.868   1.936   1.614 -0.3014 -0.1288 -0.0778
 4880W        W20954   0.705   6.370   3.243 -0.1355  0.0785  0.2804
 4881W        W20955   0.899  14.727   0.862 -0.0650  0.1063  0.0622
 4882W        W20956  13.457  12.970   1.093  0.1069  0.0609  0.2035
 4883W        W20957   0.473   1.137  12.931  0.0907 -0.0485 -0.1399
 4884W        W20958  13.574   6.879  15.394 -0.2353  0.1171  0.0472
 4885W        W20959   5.116  17.093   1.286  0.1092 -0.2600 -0.1963
 4886W        W20960   3.104   7.385   2.575  0.1810  0.0685  0.1764
 4887W        W20961   5.301  17.547  12.490  0.1234  0.2561 -0.0979
 4888W        W20962   6.466  17.365   3.867  0.2969 -0.0249  0.2225
 4889W        W20963   2.367   6.700   0.540  0.1215 -0.0606 -0.0888
 4890W        W20964   3.507  16.459   2.428 -0.2460  0.3517 -0.0277
 4891W        W20965   5.854  13.832  12.154 -0.1114 -0.3198 -0.3062
 4892W        W20966  17.539  11.727  12.093  0.1700  0.2360 -0.2449
 4893W        W20967  11.509   9.577   3.018 -0.2479 -0.2613  0.0957
 4894W        W20968   7.987   2.813   4.252  0.0892 -0.1817 -0.4013
 4895W        W20969   3.194   8.113  11.895 -0.3494 -0.0153  0.0204
 4896W        W20970   0.480  15.315  12.189  0.0651 -0.0639  0.2886
 4897W        W20971  18.033   6.958  14.322  0.0444 -0.2877 -0.5362
 4898W        W20972  10.224   3.434   1.199  0.1430  0.2368  0.0996
 4899W        W20973  16.641   6.962   3.230 -0.0672 -0.1099  0.1566
 4900W        W20974   7.230   3.779  14.614  0.3639  0.1575  0.2113
 4901W        W20975   5.511   8.037  11.008 -0.0640  0.3692  0.0875
 4902W        W20976   2.623  15.054  13.360 -0.0406  0.0778 -0.0511
 4903W        W20977   2.779   5.153   5.540  0.0971 -0.1606  0.1806
 4904W        W20978   3.648   5.053  15.688 -0.0610 -0.0977 -0.0940
 4905W        W20979  13.710   8.649   0.427 -0.3420  0.0706 -0.1700
 4906W        W20980   6.189  18.219  15.172 -0.0132 -0.1640  0.0220
 4907W        W20981  14.167  16.196  13.512  0.1400 -0.0629 -0.0706
 4908W        W20982  10.355  17.024  13.455  0.0428  0.0171  0.0893
 4909W        W20983   1.912   5.092   1.337  0.1875 -0.1103  0.0402
 4910W        W20984  12.897   8.565  12.352  0.0629  0.1509  0.0340
 4911W        W20985  14.830   8.552   4.272  0.2387 -0.0389 -0.3939
 4912W        W20986   6.108   2.497  15.717  0.1539 -0.1207 -0.0876
 4913W        W20987  10.959   0.524   2.198  0.0160 -0.1057  0.1769
 4914W        W20988   9.936  17.855   4.392  0.0003  0.1970 -0.2156
 4915W        W20989   3.513   7.083  14.994 -0.1643  0.2723 -0.2147
 4916W        W20990  11.342  11.960   0.892 -0.2050 -0.1435  0.1349
 4917W        W20991   8.168   9.758   4.752 -0.1043  0.0357 -0.0179
 4918W        W20992   7.990   8.839   5.202  0.4772  0.0969 -0.0751
 4919W        W20993   2.911   6.738  13.287  0.1240 -0.0094  0.0710
 4920W        W20994   4.149  14.404  14.667 -0.1053 -0.1373  0.3699
 4921W        W20995  13.454   5.329   1.897 -0.1005 -0.1843 -0.0552
 4922W        W20996  11.570   8.388   0.426  0.0360 -0.1907 -0.2470
 4923W        W20997   1.354   0.739  11.022 -0.2600 -0.1880  0.0331
 4924W        W20998  15.231   3.057   1.361  0.0624  0.0611  0.0936
 4925W        W20999   5.017  11.226  14.513  0.2002 -0.0868  0.1487
 4926W        W21000   6.879  14.742   4.304 -0.1681 -0.1578  0.0511
 4927W        W21001  14.203   8.160  12.027  0.1865 -0.0824  0.1914
 4928W        W21002  17.476  17.258   0.119 -0.0488 -0.2236  0.1061
 4929W        W21003   6.725   8.449  10.915 -0.3279 -0.1997 -0.0943
 4930W        W21004   7.197  11.509  10.373  0.3181 -0.1317  0.0127
 4931W        W21005   9.234   9.242   0.514 -0.0943 -0.0788 -0.2357
 4932W        W21006  17.742   7.263  13.304 -0.0040  0.1915 -0.2533
 4933W        W21007  13.590  14.540  15.290 -0.2287 -0.1076  0.0085
 4934W        W21008  17.442  10.763  13.060 -0.0619 -0.0903 -0.0197
 4935W        W21009  10.681   7.704   2.380  0.0856 -0.0968 -0.3112
 4936W        W21010   5.751   6.561  12.938 -0.2511 -0.3147 -0.1779
 4937W        W21011  14.428   7.762   2.320  0.0509 -0.0720 -0.1199
 4938W        W21012   6.017  11.943  12.096  0.1663 -0.1402 -0.5819
 4939W        W21013   4.899  16.375  15.888  0.2456 -0.4243 -0.3948
 4940W        W21014   1.096  13.089  14.742 -0.0815  0.0002 -0.1073
 4941W        W21015   8.763   3.962  12.955 -0.2348 -0.1936  0.3402
 4942W        W21016   4.875  17.984   0.217 -0.5580  0.1449 -0.0758
 4943W        W21017   9.533   4.491  13.929 -0.1095  0.2216  0.1602
 4944W        W21018  16.626  12.839  15.041 -0.0163 -0.0466  0.4090
 4945W        W21019  13.762  16.500  11.350  0.1840  0.0420 -0.0733
 4946W        W21020   7.546  15.690  15.347  0.0880 -0.0612 -0.0880
 4947W        W21021  14.556  10.224   0.737 -0.2986 -0.0693  0.0911
 4948W        W21022   7.338   5.220  15.639  0.0645 -0.1955  0.1625
 4949W        W21023  12.128  17.246   3.592 -0.1391 -0.5288  0.2439
 4950W        W21024  14.222   8.194   2.484  0.0491 -0.1213 -0.1403
 4951W        W21025  10.896   9.514   2.334 -0.0066 -0.2921  0.1810
 4952W        W21026  10.791  12.245   2.675 -0.0400 -0.0498 -0.5205
 4953W        W21027  12.274   5.037   5.891 -0.0834  0.0535  0.0848
 4954W        W21028  16.314  12.522   3.651 -0.1538  0.0728 -0.0570
 4955W        W21029   4.224   4.635   1.570 -0.2028 -0.0521  0.1305
 4956W        W21030   9.300   3.082   1.096 -0.1297 -0.0771  0.0891
 4957W        W21031   7.387   3.062   2.791 -0.1694  0.2430  0.0961
 4958W        W21032  15.153   6.465  12.830 -0.6469  0.3146 -0.2235
 4959W        W21033  15.389  14.336   5.884 -0.1877 -0.2277  0.0388
 4960W        W21034  15.262   1.525   4.425 -0.1463 -0.0805 -0.0611
 4961W        W21035  14.740   7.599   2.805 -0.0621  0.2188  0.2045
 4962W        W21036  12.585  14.080  13.362  0.0658  0.1581 -0.2084
 4963W        W21037  15.558   2.236   0.856  0.1800 -0.1015 -0.2120
 4964W        W21038   2.364   9.719   0.356  0.1106 -0.1186 -0.0936
 4965W        W21039  16.728  17.935  15.706  0.1971  0.0689 -0.0972
 4966W        W21040   0.086  17.394  11.287  0.1226  0.0123  0.1737
 4967W        W21041   9.457  16.526   1.748 -0.3764  0.2077 -0.0522
 4968W        W21042   9.996   6.493  15.368  0.0817  0.1151  0.3226
 4969W        W21043   7.314  11.732  11.406  0.2030 -0.0571 -0.0009
 4970W        W21044  12.656   5.789  16.334  0.1789  0.1476  0.0815
 4971W        W21045  14.936  17.333  12.105 -0.1988 -0.2044  0.1521
 4972W        W21046   5.727   9.323  16.388  0.0234 -0.1766  0.0745
 4973W        W21047  17.952  16.380   1.809 -0.0625 -0.1627 -0.1699
 4974W        W21048  17.999   5.128  14.397 -0.1087 -0.3399 -0.1568
 4975W        W21049  10.842   0.203  15.922 -0.2537 -0.3012 -0.0901
 4976W        W21050   9.756  17.553  14.782 -0.0448 -0.2255  0.2374
 4977W        W21051   9.799   2.459   2.612 -0.1045  0.0433 -0.1902
 4978W        W21052  14.788  12.521  14.763 -0.1552 -0.0568 -0.1623
 4979W        W21053   6.747  14.789   1.306  0.1633  0.1988 -0.2899
 4980W        W21054  15.182  18.226   1.023  0.0770 -0.0785  0.3355
 4981W        W21055  10.386   9.512   3.694 -0.0725 -0.1677 -0.0449
 4982W        W21056  10.848   0.620  12.365  0.0332 -0.1199  0.1708
 4983W        W21057   7.843   3.868  13.887 -0.1395 -0.1987  0.2955
 4984W        W21058   8.988   9.742   4.092 -0.0428 -0.0591 -0.1854
 4985W        W21059   9.616   0.839   6.600 -0.1800 -0.0084 -0.2608
 4986W        W21060   3.354   3.170  11.938  0.1870  0.0650  0.2208
 4987W        W21061   8.045  16.422  14.106  0.0918  0.1325 -0.0062
 4988W        W21062   4.668   4.795  14.127 -0.1523  0.0761 -0.1449
 4989W        W21063   6.321   2.740  13.838  0.0632 -0.1362  0.1076
 4990W        W21064  15.901   2.615   2.992 -0.0834 -0.4371  0.0203
 4991W        W21065   8.273   0.505   3.433 -0.2079  0.2045  0.0666
 4992W        W21066   0.860   7.574   4.986 -0.0212  0.0430 -0.0074
 4993W        W21067  11.909  15.189   5.347  0.0726  0.0534 -0.0058
 4994W        W21068   7.974  13.416  14.828 -0.3536 -0.2648  0.1937
 4995W        W21069   1.913   1.452  14.745 -0.0877  0.0610  0.0513
 4996W        W21070   7.320  17.232   4.836  0.3557  0.0941  0.1456
 4997W        W21071   9.766   3.424   4.495 -0.1729 -0.0664 -0.3496
 4998W        W21072   2.824   9.995  12.307  0.1552  0.0237  0.0603
 4999W        W21073   0.914   4.889   4.391 -0.2881 -0.2016 -0.1051
 5000W        W21074   3.996   6.246   0.063 -0.3870  0.0794 -0.0723
 5001W        W21075  14.400   6.737  14.406 -0.2512  0.0701 -0.3153
 5002W        W21076   9.720  11.172   4.664  0.1927 -0.3166  0.0701
 5003W        W21077  12.609  12.460   0.897 -0.1445 -0.1005 -0.1884
 5004W        W21078   8.320   1.684  11.842 -0.2230 -0.2449  0.0733
 5005W        W21079  17.765   6.596   6.356 -0.2661 -0.1300  0.1876
 5006W        W21080   3.475  10.021   0.779 -0.0018 -0.0647  0.1574
 5007W        W21081  12.227   8.985   4.822 -0.1778 -0.2805  0.1636
 5008W        W21082  10.489   3.337   5.163  0.1715  0.1122  0.1043
 5009W        W21083  13.947   5.243  12.177 -0.1476 -0.1800  0.0964
 5010W        W21084  15.238  16.127  13.111 -0.1095 -0.0776  0.0075
 5011W        W21085  13.086   8.108   0.994 -0.0284  0.1149 -0.4511
 5012W        W21086  10.815   8.590   4.062  0.1930  0.0681 -0.2517
 5013W        W21087   6.514   9.611  11.984 -0.0374 -0.0539 -0.0761
 5014W        W21088   4.349   1.267  12.623  0.1065 -0.1513  0.2051
 5015W        W21089  11.910  15.592   1.318 -0.0222 -0.0839 -0.2484
 5016W        W21090   2.524  12.872  16.079 -0.2220 -0.1084 -0.2906
 5017W        W21091   5.234   0.608  14.728  0.2274 -0.1479 -0.2477
 5018W        W21092  16.275  10.071  14.089 -0.1925 -0.3342  0.0463
 5019W        W21093  17.290   5.628  11.418 -0.0137 -0.1893 -0.0524
 5020W        W21094   7.770   9.420   2.453 -0.1151  0.1169 -0.1518
 5021W        W21095   5.186   6.439  11.905 -0.1026  0.3762  0.4142
 5022W        W21096   4.791  10.082  13.983  0.0232 -0.2952 -0.0607
 5023W        W21097   3.460  10.654  13.001  0.1535 -0.1120  0.2361
 5024W        W21098   2.842   6.734   0.759 -0.3839 -0.1022 -0.0695
 5025W        W21099   2.476   3.268  15.274 -0.2289 -0.1768  0.2040
 5026W        W21100  14.628  14.545  16.185  0.0171  0.1949  0.1444
 5027W        W21101  12.009  12.851   2.938 -0.1211 -0.0030  0.0334
 5028W        W21102  17.683  18.179   6.327 -0.0198  0.0252  0.1331
 5029W        W21103   3.058  14.250   2.079  0.2057  0.0109 -0.1079
 5030W        W21104  15.304   9.814  12.064 -0.1159 -0.2823  0.1566
 5031W        W21105   0.958   9.390   2.777  0.0385 -0.0348  0.0294
 5032W        W21106   1.554   3.662  15.145 -0.0061  0.2386 -0.6216
 5033W        W21107  15.155  10.386   1.639  0.0813  0.2094  0.2892
 5034W        W21108  14.284   1.821  15.054  0.2192 -0.3269  0.0319
 5035W        W21109   2.962   7.866   2.598 -0.2815 -0.1908  0.0151
 5036W        W21110  13.383   4.217   3.433 -0.2097 -0.1701 -0.2120
 5037W        W21111  14.543  10.137   2.200  0.3377 -0.2687 -0.1044
 5038W        W21112   4.554   4.403  12.391  0.0339  0.3031 -0.1817
 5039W        W21113  14.463  13.030  15.900 -0.1282 -0.0774 -0.2032
 5040W        W21114   7.621   4.310  12.715 -0.2183 -0.0911  0.3072
 5041W        W21115  13.992  12.494   3.271  0.0843 -0.0788  0.1147
 5042W        W21116   5.395   9.836  11.414  0.0151  0.0748  0.3238
 5043W        W21117  17.551   8.130   0.283 -0.1364 -0.3809 -0.0136
 5044W        W21118  15.772  10.791  14.156  0.1417 -0.0594 -0.1034
 5045W        W21119  11.492   8.617   1.786 -0.4108  0.1527 -0.0977
 5046W        W21120  17.219  10.466   5.765 -0.1894 -0.1813  0.2476
 5047W        W21121   2.500  15.622  12.698  0.1362 -0.2731  0.2417
 5048W        W21122   0.255  14.602   3.764  0.2018 -0.0064 -0.0155
 5049W        W21123   6.063   0.421   4.059  0.0437  0.0930 -0.0171
 5050W        W21124  16.838   4.110  14.530 -0.2940 -0.3194  0.0536
 5051W        W21125   0.440   0.934   1.717 -0.3959 -0.0702  0.0250
 5052W        W21126   7.311   9.296   4.089 -0.0705  0.0048 -0.0807
 5053W        W21127  11.049   3.145   4.607 -0.0633 -0.0383 -0.0955
 5054W        W21128  12.407   9.410  15.852  0.0510 -0.1337  0.2561
 5055W        W21129   4.636   4.980  14.668 -0.0628 -0.1079  0.1430
 5056W        W21130   1.024   8.306  13.013 -0.3450 -0.3372  0.3617
 5057W        W21131   4.781  13.584   3.263  0.0280 -0.0585 -0.2607
 5058W        W21132   3.366   2.948   0.748 -0.1798  0.1495  0.1255
 5059W        W21133   7.877   6.856   3.395  0.1759 -0.2193  0.2460
 5060W        W21134  15.553  10.919  16.423  0.4620  0.1098  0.1324
 5061W        W21135   2.579  16.095   1.752  0.0265  0.0110  0.1674
 5062W        W21136  17.804  13.480  16.148 -0.0367 -0.2384  0.0136
 5063W        W21137   0.109   6.603   2.667  0.1728  0.0972 -0.2863
 5064W        W21138   0.156  11.858   3.696 -0.2089 -0.1290  0.2003
 5065W        W21139  10.576  15.515  14.706  0.1944  0.0975  0.1011
 5066W        W21140   6.818  15.185   0.498 -0.0304 -0.1742 -0.0728
 5067W        W21141   2.203   4.773   0.306 -0.1823  0.2878 -0.2124
 5068W        W21142   2.026  16.935  12.598  0.0397  0.4055 -0.0375
 5069W        W21143  16.043   3.550  16.338 -0.0250 -0.2851  0.0274
 5070W        W21144   2.326   0.346  15.229 -0.1023  0.1098  0.0072
 5071W        W21145   9.530   0.046   5.597  0.4132 -0.1191 -0.1843
 5072W        W21146   2.991   2.912   1.161  0.1070  0.0953 -0.1649
 5073W        W21147  13.669  17.113   1.182 -0.2005  0.2087 -0.1907
 5074W        W21148   8.891   9.768   3.602  0.1056 -0.3593 -0.1320
 5075W        W21149  11.591   2.976  11.901 -0.1804  0.0438  0.2183
 5076W        W21150  14.373   3.225  13.459 -0.0448 -0.0199 -0.0504
 5077W        W21151   5.757  12.500   2.623  0.0130  0.0800  0.2940
 5078W        W21152   0.891   9.188  16.341 -0.0486 -0.1503 -0.3723
 5079W        W21153  10.011  13.628   3.508  0.0297  0.2988 -0.5686
 5080W        W21154  10.146  16.701  12.955  0.0845  0.1594 -0.0301
 5081W        W21155   5.553   6.574   5.207  0.3185  0.2407  0.3924
 5082W        W21156  11.689  17.496   5.486  0.1631 -0.2633 -0.3240
 5083W        W21157   1.211  10.764   2.843 -0.1146 -0.0703  0.0830
 5084W        W21158  11.469  15.962  13.384  0.0036  0.0210 -0.1696
 5085W        W21159  14.704   9.502   5.521 -0.6154  0.0753 -0.0513
 5086W        W21160  12.612   0.436  13.244 -0.1661 -0.0310  0.0981
 5087W        W21161  17.045  13.305  15.665  0.0270  0.1699  0.1845
 5088W        W21162   8.605  11.419  15.159  0.0083  0.0575 -0.1358
 5089W        W21163  12.629   5.166   0.605 -0.1041 -0.2304 -0.4501
 5090W        W21164   6.866   3.005   5.962 -0.0025  0.2980 -0.0729
 5091W        W21165  16.063   3.636   3.859 -0.1900 -0.1286  0.1274
 5092W        W21166   7.218  12.350  13.153 -0.1547 -0.2241  0.0887
 5093W        W21167   4.768  12.113  15.660 -0.1307  0.1902  0.1211
 5094W        W21168   5.035  17.871  15.717  0.3371 -0.2047 -0.1795
 5095W        W21169  12.573  16.959   1.130 -0.1794 -0.1212  0.1039
 5096W        W21170   4.976   9.823   4.717 -0.4081  0.0645  0.1260
 5097W        W21171   7.253   0.355   5.826  0.0668  0.0305  0.0364
 5098W        W21172  16.227   9.329  16.365 -0.1276 -0.3004  0.0987
 5099W        W21173   0.537   9.458   0.026 -0.1675  0.0708 -0.0327
 5100W        W21174  15.864  14.498  16.053  0.0925  0.0020  0.0808
 5101W        W21175   2.968  16.547   0.646 -0.0291 -0.2911 -0.1138
 5102W        W21176   6.841  18.120  15.863 -0.2379  0.1166  0.0687
 5103W        W21177  12.442   2.274  13.937  0.1781  0.0863  0.3168
 5104W        W21178  14.798  10.822   1.546 -0.0619 -0.4710  0.0397
 5105W        W21179  18.021   6.751  15.715 -0.3562  0.0815  0.0754
 5106W        W21180   6.549   0.987   0.632 -0.1129 -0.2764 -0.1533
 5107W        W21181   5.184   8.944  14.963  0.0331  0.0089 -0.1233
 5108W        W21182  15.053   8.297   2.661 -0.1384  0.2383  0.0092
 5109W        W21183   8.913   1.301  13.995 -0.1381 -0.1038  0.0881
 5110W        W21184   9.965   5.320   2.766  0.2310 -0.3232 -0.3680
 5111W        W21185   1.400  14.368  11.610 -0.0825 -0.1831 -0.2588
 5112W        W21186   8.351  12.450  16.000 -0.3576 -0.1507  0.1033
 5113W        W21187   4.533   5.647  16.390  0.2848 -0.0318  0.4414
 5114W        W21188  10.040  12.576  12.986 -0.3348  0.4266  0.0887
 5115W        W21189  14.093  10.432  12.305  0.2169  0.0373  0.4604
 5116W        W21190  10.978  12.867   4.117  0.1246 -0.1399 -0.0218
 5117W        W21191  16.709  17.108   1.949 -0.0478 -0.2265 -0.0620
 5118W        W21192  11.131   7.179  13.391  0.1651 -0.1908 -0.3080
 5119W        W21193  10.856   6.198  12.122 -0.0854  0.0950  0.0195
 5120W        W21194   8.347   1.386   5.140  0.1608 -0.0720  0.2852
 5121W        W21195   4.883  15.576  13.172  0.3387  0.0004 -0.0167
 5122W        W21196   9.427   8.073   2.316  0.0518 -0.2602 -0.0892
 5123W        W21197   2.930   7.733   3.776 -0.1025 -0.0037 -0.2602
 5124W        W21198   3.399   4.218  15.961 -0.0929 -0.0155  0.0699
 5125W        W21199   4.470   8.741   3.840  0.0552  0.2097 -0.4137
 5126W        W21200   0.693  14.127  14.832 -0.2216  0.2049 -0.2578
 5127W        W21201   8.114   8.035  14.276  0.1016  0.0019 -0.1363
 5128W        W21202  13.142   1.062  14.641 -0.3192 -0.0794 -0.4768
 5129W        W21203   9.196  10.605   0.246 -0.1879 -0.0875  0.0955
 5130W        W21204  11.709  15.324   2.034  0.0961  0.0279  0.0955
 5131W        W21205  10.524   2.816  15.630  0.2624 -0.0208 -0.3147
 5132W        W21206  11.061  15.446   4.831  0.2728 -0.1801 -0.0543
 5133W        W21207   5.005   3.717   2.607 -0.0216  0.0984 -0.1809
 5134W        W21208  13.003   2.926   2.139  0.0609  0.2371 -0.0409
 5135W        W21209   0.447   5.493   3.652  0.1962  0.0353  0.0685
 5136W        W21210  11.664   2.707   1.667 -0.0971 -0.0609 -0.1371
 5137W        W21211  12.713  17.106   3.691  0.2123  0.1508 -0.0282
 5138W        W21212   1.492  13.405  14.415  0.0094 -0.2602 -0.0973
 5139W        W21213  12.408   7.552  14.654 -0.3568  0.0952  0.1850
 5140W        W21214   6.655  13.472   5.655  0.1753 -0.3534 -0.0131
 5141W        W21215   7.567  16.207  16.011 -0.1778  0.1292  0.0287
 5142W        W21216   8.424  16.091   3.066 -0.1843  0.4260  0.0293
 5143W        W21217   5.609  16.354  12.194  0.0010  0.1318  0.0928
 5144W        W21218   9.100  10.818   4.439 -0.1533 -0.1811  0.0765
 5145W        W21219  15.685  12.499  14.191  0.1239 -0.0453 -0.1797
 5146W        W21220   2.571   3.316   0.371 -0.1670 -0.2981  0.2106
 5147W        W21221   8.091   0.529   5.316  0.1090  0.2040 -0.0224
 5148W        W21222  17.175   0.895  11.857 -0.2942  0.5101  0.1350
 5149W        W21223  17.211  14.164  11.733  0.3614 -0.1848  0.3040
 5150W        W21224  14.208   0.397   1.282  0.0949 -0.1173  0.0088
 5151W        W21225  13.910   9.880   2.036  0.0241  0.0319  0.0014
 5152W        W21226  16.445   3.157  12.599  0.1873 -0.1228  0.0625
 5153W        W21227  13.297  17.335  14.274 -0.1603  0.1477 -0.1755
 5154W        W21228  15.104   1.990   2.242 -0.0115 -0.2131  0.0836
 5155W        W21229   7.370  12.164   2.368  0.3969 -0.2824  0.0502
 5156W        W21230  11.737  16.012  16.280  0.2174 -0.0235  0.1413
 5157W        W21231  13.869  13.000  16.218 -0.0880  0.2403 -0.3727
 5158W        W21232   3.202  12.425  12.540 -0.1745 -0.0226 -0.2447
 5159W        W21233  18.140   3.610  13.817  0.2493  0.0268 -0.2110
 5160W        W21234   5.204   2.490  14.037  0.2197 -0.1808 -0.0903
 5161W        W21235  10.462  10.327   2.161 -0.0631  0.2510 -0.1760
 5162W        W21236  14.347   1.426  12.658 -0.1385 -0.2025  0.1539
 5163W        W21237   8.462   2.928  15.564  0.0646 -0.2033  0.1509
 5164W        W21238  16.869   7.872  14.969  0.1098 -0.3286 -0.3633
 5165W        W21239   6.108  13.483   3.550  0.3203  0.1190 -0.3053
 5166W        W21240   3.020   5.400  12.323 -0.2525  0.0681 -0.0707
 5167W        W21241   5.609  13.836  13.537 -0.3324  0.0636 -0.0948
 5168W        W21242  16.546   7.596  11.316  0.0053 -0.1880 -0.0727
 5169W        W21243  12.766   9.411  13.547  0.0087  0.1191 -0.0772
 5170W        W21244   6.297  12.243  16.049  0.0365  0.0180 -0.0770
 5171W        W21245   3.627   4.375   2.299 -0.3669 -0.1265 -0.0335
 5172W        W21246  13.093  13.168  12.925  0.2991 -0.0552  0.1493
 5173W        W21247  15.449   9.172   4.519 -0.1738 -0.1212  0.3459
 5174W        W21248   4.177  17.595   1.287 -0.1495 -0.2416  0.0449
 5175W        W21249   7.770  14.802   3.429 -0.0290 -0.2869 -0.0464
 5176W        W21250   8.594  15.114   3.009  0.3455 -0.2398  0.1638
 5177W        W21251   5.814  16.701   3.878 -0.0488 -0.0101  0.1728
 5178W        W21252  16.175  16.787   5.377  0.0186  0.1280 -0.0261
 5179W        W21253  15.830  17.649   3.762 -0.1298 -0.2770 -0.0001
 5180W        W21254   3.312  14.013  14.743 -0.3013  0.0264 -0.0047
 5181W        W21255   3.138   4.082   3.840  0.1681  0.1183 -0.0587
 5182W        W21256  15.332   2.945   5.160  0.3579  0.0521  0.1465
 5183W        W21257  16.252  13.910  12.363 -0.0084  0.3678  0.2459
 5184W        W21258   3.505  10.218  14.247  0.0282  0.1514  0.0247
 5185W        W21259   7.521   4.336  15.131 -0.2701 -0.0303 -0.0809
 5186W        W21260  12.437   1.932   3.626  0.3223 -0.1237  0.2227
 5187W        W21261   8.040  14.399  14.351  0.1777  0.1954  0.3515
 5188W        W21262  17.643   4.336  14.136  0.1419 -0.0174 -0.0349
 5189W        W21263  14.876  10.885   3.822  0.1866 -0.0707 -0.0777
 5190W        W21264   1.229  10.230  14.540  0.1152 -0.1034  0.1389
 5191W        W21265   2.455  15.123   1.930 -0.0456  0.3937 -0.1813
 5192W        W21266  16.000   5.082   0.563  0.1352  0.1276  0.3316
 5193W        W21267   9.031   7.780   3.739 -0.0700 -0.2756  0.1528
 5194W        W21268   9.342  12.619   2.157  0.2368  0.3180 -0.6613
 5195W        W21269  14.481   2.713   6.400 -0.1708 -0.2422 -0.0700
 5196W        W21270  10.032  17.566  10.623 -0.3920  0.0613  0.2783
 5197W        W21271   7.502   6.012   3.627 -0.0254 -0.1917  0.0760
 5198W        W21272  11.733   3.966   4.593  0.0152  0.1643  0.2369
 5199W        W21273   7.364   1.230   1.645  0.0342 -0.1974 -0.4651
 5200W        W21274  14.624  15.943  11.867 -0.1384 -0.0618 -0.1980
 5201W        W21275   9.187   8.972  15.694  0.2617  0.1860 -0.1145
 5202W        W21276   6.685   7.956   0.333 -0.1632  0.0182  0.1563
 5203W        W21277  15.753   1.596   2.956  0.0255 -0.0945 -0.0101
 5204W        W21278  14.978   9.145  12.740  0.2855 -0.2101 -0.0894
 5205W        W21279  12.381   5.021  14.900 -0.0560 -0.3397  0.0945
 5206W        W21280  15.080   4.849   6.402 -0.3002  0.0606 -0.0539
 5207W        W21281   1.472  16.083   2.962  0.2974 -0.2804 -0.0222
 5208W        W21282  11.700  12.824   0.556 -0.0396 -0.2212 -0.0437
 5209W        W21283   2.953   1.975  16.406 -0.1493  0.2249  0.1334
 5210W        W21284  13.069   8.329   2.892 -0.2058 -0.2107  0.0765
 5211W        W21285   8.711   7.479  13.241  0.0401 -0.3363  0.0292
 5212W        W21286   0.206   0.678   2.895 -0.2433 -0.0848 -0.1142
 5213W        W21287   2.609  10.565  11.659  0.1577 -0.1021  0.1298
 5214W        W21288  17.881   4.346   0.855  0.2422  0.1502  0.1499
 5215W        W21289  13.591   5.977   2.537 -0.1019 -0.1583  0.1348
 5216W        W21290   9.774   4.554   0.437 -0.0465  0.0358  0.3173
 5217W        W21291   0.208   9.405   6.086 -0.1665  0.0602 -0.3429
 5218W        W21292   9.253  16.173  11.374  0.2338  0.2209 -0.0135
 5219W        W21293  12.854   5.120   5.880 -0.0278  0.0838  0.0605
 5220W        W21294  16.088   1.469   1.943  0.1066  0.0526  0.1806
 5221W        W21295   9.445  10.979   5.881 -0.0054 -0.0746  0.4264
 5222W        W21296   7.870   8.181   1.874  0.3136  0.0563 -0.1422
 5223W        W21297   6.132   4.410  14.295 -0.1841 -0.2650 -0.1553
 5224W        W21298  13.790  18.115  13.281  0.0370 -0.1369 -0.0840
 5225W        W21299  17.757  11.461  15.506  0.0637  0.2001 -0.1396
 5226W        W21300   7.923   0.937   0.883 -0.1541 -0.0265 -0.0171
 5227W        W21301  17.931  13.677   3.558 -0.0801  0.2927  0.2214
 5228W        W21302   4.818   3.082   4.109 -0.3113  0.2451  0.1654
 5229W        W21303  12.467  13.172  13.071  0.2118 -0.2770 -0.3822
 5230W        W21304   5.905   0.019   5.637  0.1616  0.1317 -0.1820
 5231W        W21305   3.385   7.185   1.125 -0.1500  0.1590  0.0128
 5232W        W21306  13.694   2.856   2.842 -0.1065  0.0588  0.2872
 5233W        W21307   9.128  12.613   5.096  0.1759 -0.0968 -0.1032
 5234W        W21308  15.007  10.643  13.072  0.1716  0.1060 -0.1388
 5235W        W21309   6.417   3.322   3.905  0.0665 -0.1906  0.0854
 5236W        W21310   8.988  11.358  13.993 -0.0355 -0.0993  0.2408
 5237W        W21311   4.732   5.176  13.656 -0.2709 -0.2996 -0.2385
 5238W        W21312  15.641   7.781   4.403  0.1545 -0.0749 -0.1409
 5239W        W21313   1.517  15.599   1.846 -0.0541 -0.1041 -0.0788
 5240W        W21314  15.584   6.116  12.167  0.0831 -0.1079 -0.4708
 5241W        W21315   7.235   1.712  13.915  0.0785 -0.2067 -0.2907
 5242W        W21316   8.061   9.772  14.927  0.1215 -0.1519  0.2060
 5243W        W21317   4.334  15.880  14.316 -0.0511  0.3470  0.0719
 5244W        W21318  11.823  10.856  15.172 -0.2028 -0.0155 -0.1132
 5245W        W21319  18.042  11.504   0.232  0.1666 -0.3478  0.2436
 5246W        W21320   7.749  11.517   0.299 -0.2114  0.0886  0.1615
 5247W        W21321  10.368   8.746   4.994 -0.2305  0.1144 -0.1918
 5248W        W21322   7.957  17.368  13.084 -0.2386 -0.0267  0.2919
 5249W        W21323   9.719   0.921   1.415 -0.1128  0.0659 -0.0560
 5250W        W21324   5.461  13.774  11.852 -0.4933 -0.1022  0.1324
 5251W        W21325  12.208   1.487  16.187  0.1582 -0.0637  0.1933
 5252W        W21326   7.106  16.909   2.256  0.0614 -0.0107  0.1173
 5253W        W21327  14.914  10.350   4.625  0.1921 -0.1112 -0.2523
 5254W        W21328  15.767  10.547  12.454  0.1467  0.1505 -0.0263
 5255W        W21329  11.668  12.444   1.629  0.1609  0.0994  0.4196
 5256W        W21330   0.835   1.883  16.223  0.0743 -0.0220 -0.3290
 5257W        W21331   6.908  12.334  10.953  0.1233  0.0308 -0.1508
 5258W        W21332   8.349   2.754  16.387 -0.0670  0.0583  0.3624
 5259W        W21333  18.037  17.972   0.323 -0.0953 -0.1697 -0.0152
 5260W        W21334  11.917   3.022  14.874  0.1071 -0.1855 -0.0402
 5261W        W21335  13.328   1.354   1.457 -0.1410  0.0022  0.1072
 5262W        W21336   9.696   4.913  15.132  0.1605 -0.3511  0.1417
 5263W        W21337   2.135   4.230   0.613  0.2682 -0.1408  0.3091
 5264W        W21338  10.599   7.152  13.504  0.0914 -0.3901  0.1494
 5265W        W21339   0.350   6.210   4.362  0.0522  0.3497 -0.1140
 5266W        W21340   3.657  16.977   1.556 -0.0780  0.0030 -0.0687
 5267W        W21341  16.359   5.992   0.306  0.0825  0.3184 -0.0355
 5268W        W21342  10.297  13.365   4.366 -0.5423  0.0491 -0.4319
 5269W        W21343   4.933  14.127   1.231  0.2156 -0.2939 -0.2543
 5270W        W21344  17.680   9.678  14.086  0.0581  0.1527 -0.1086
 5271W        W21345   5.391   4.221  12.569 -0.6754 -0.2753 -0.0050
 5272W        W21346  10.382  13.476   0.015  0.2146  0.0327  0.0721
 5273W        W21347   1.012  14.447  11.307  0.0630 -0.0161  0.3556
 5274W        W21348  15.903  14.353   5.005 -0.0638  0.0862  0.2367
 5275W        W21349   2.950  13.450  12.686 -0.1211 -0.1229 -0.2094
 5276W        W21350  17.465   4.543   4.254  0.2884 -0.0154  0.2904
 5277W        W21351  13.948   7.927   0.650 -0.0214  0.0208 -0.2779
 5278W        W21352  16.827  11.749   1.340  0.1986  0.0581 -0.2645
 5279W        W21353   5.195  14.999  15.731 -0.0425  0.2064 -0.2535
 5280W        W21354  15.058  14.677  14.256 -0.0287 -0.2452  0.1927
 5281W        W21355   0.281   0.254  13.516  0.4668 -0.3739  0.1762
 5282W        W21356   0.642   2.566   2.287 -0.2840 -0.0186  0.1277
 5283W        W21357   1.434  12.233   4.041 -0.0662 -0.0023 -0.3461
 5284W        W21358   5.177  15.818   1.391  0.1227  0.0110 -0.0624
 5285W        W21359  10.858   6.131   1.200  0.1144  0.2271  0.0952
 5286W        W21360  17.161   6.643  13.832 -0.0344 -0.2504 -0.0382
 5287W        W21361  16.613  17.132   5.618  0.1322  0.0031  0.0812
 5288W        W21362  14.883   9.085   2.993  0.1719 -0.1754 -0.1243
 5289W        W21363   4.559   3.705  12.000 -0.2013 -0.0467  0.0396
 5290W        W21364  13.856  15.384  12.968 -0.1575 -0.2891 -0.2068
 5291W        W21365  18.134  13.226   2.788 -0.0594  0.0172 -0.0114
 5292W        W21366  15.022  16.575   1.430  0.0892 -0.3192  0.0352
 5293W        W21367  18.098   4.486  14.892  0.1181  0.0894  0.1358
 5294W        W21368  13.606   4.011   2.707 -0.0863 -0.0810 -0.0485
 5295W        W21369   8.019   6.565   5.414  0.1370  0.1061 -0.1044
 5296W        W21370  11.369  14.577   4.267  0.0361 -0.1091  0.1544
 5297W        W21371  16.618   4.898   2.576 -0.3495  0.2755 -0.1377
 5298W        W21372   5.114   2.311  15.998  0.1436 -0.1056 -0.0781
 5299W        W21373   6.068   2.079   2.412 -0.1405  0.1578 -0.0700
 5300W        W21374   1.414  11.570   1.623 -0.0061  0.0763  0.2197
 5301W        W21375  10.572   5.708  13.972  0.1205  0.1533 -0.2687
 5302W        W21376   6.638  12.573   3.498 -0.1889  0.0619  0.0961
 5303W        W21377  14.024   5.026  11.713  0.1634 -0.1537  0.0717
 5304W        W21378   0.584  15.049  12.988 -0.0711 -0.0502  0.1914
 5305W        W21379   8.368   7.963  11.088 -0.0058  0.1303 -0.1285
 5306W        W21380  11.806  12.102  14.503 -0.1539 -0.0902 -0.0045
 5307W        W21381  15.241  15.174   5.394  0.0794 -0.0608 -0.1352
 5308W        W21382   4.911   4.982   0.326  0.2238 -0.0239  0.2174
 5309W        W21383   9.530   2.028  12.969 -0.1981 -0.0497 -0.0472
 5310W        W21384   9.200  12.390   3.391  0.0075 -0.1058 -0.2366
 5311W        W21385  15.493  10.458   1.955  0.3115 -0.0646 -0.0673
 5312W        W21386   7.984   2.187  15.222  0.1161  0.0736 -0.1794
 5313W        W21387   8.007  14.522   0.311  0.0771  0.1878 -0.0671
 5314W        W21388  16.380   0.293   3.719 -0.1772  0.0729 -0.1116
 5315W        W21389  12.266   2.189   1.826 -0.0340 -0.0042 -0.1150
 5316W        W21390  13.613   2.420   5.378  0.0370  0.0290  0.0904
 5317W        W21391  16.010   5.216   1.036  0.1012 -0.4726  0.4192
 5318W        W21392   7.225   4.287   0.307 -0.3120  0.0438  0.0530
 5319W        W21393   5.633   1.970  15.113 -0.1788 -0.0541 -0.2418
 5320W        W21394  11.980   3.705   0.109  0.1064 -0.1169 -0.0348
 5321W        W21395  13.402  15.736  12.786 -0.1132  0.1494 -0.0452
 5322W        W21396   5.250  15.760  13.887  0.1661  0.0010  0.1942
 5323W        W21397  18.189  15.554   4.634 -0.1054  0.4925 -0.0396
 5324W        W21398   3.269   5.245  11.475  0.1303 -0.0361 -0.0958
 5325W        W21399   6.569  15.904   2.273 -0.2017 -0.3518 -0.0069
 5326W        W21400  13.679   2.208   3.720 -0.1113  0.1952 -0.0263
 5327W        W21401  14.383  11.580  14.758  0.0066 -0.2556  0.0366
 5328W        W21402   7.030  12.988   2.729  0.0536  0.1140 -0.1581
 5329W        W21403   7.917  15.890  11.996  0.4105  0.2734 -0.3244
 5330W        W21404   9.920   1.819   4.298 -0.4643 -0.0737 -0.3776
 5331W        W21405   5.366  16.503  13.121  0.0635  0.1847 -0.0337
 5332W        W21406  12.920  10.277   0.168 -0.0764 -0.2974  0.1915
 5333W        W21407   9.862  16.741   1.055 -0.1357 -0.0348  0.2753
 5334W        W21408  10.364   0.739  12.283  0.3045 -0.1058 -0.2552
 5335W        W21409  12.570  11.606  14.384  0.1669  0.2120  0.0268
 5336W        W21410  16.927   3.810  14.931 -0.1607  0.2599  0.0638
 5337W        W21411   3.116  17.134  16.463  0.1305 -0.0645 -0.1565
 5338W        W21412   8.919  14.240  15.399 -0.0613 -0.1871 -0.4079
 5339W        W21413  16.432  14.086   0.891  0.0086 -0.1154 -0.1610
 5340W        W21414   3.925   4.282   4.825 -0.1913  0.0181  0.4589
 5341W        W21415   8.397   2.149   0.894 -0.0417 -0.0466 -0.0504
 5342W        W21416   9.955   0.104   1.073 -0.1918  0.1747  0.0674
 5343W        W21417   4.494   4.903   1.174  0.1965  0.3246 -0.1490
 5344W        W21418   0.335   5.665   5.001 -0.0635  0.0359  0.3109
 5345W        W21419   8.902   4.889  11.525 -0.2014  0.0388 -0.1703
 5346W        W21420  13.885  16.331   0.574 -0.2032  0.0460  0.0127
 5347W        W21421  15.906  10.315   0.378 -0.2190 -0.0252 -0.5132
 5348W        W21422  12.041   9.995   3.726 -0.3527 -0.3613 -0.3813
 5349W        W21423  17.438   0.362   6.295  0.1963 -0.2031 -0.0483
 5350W        W21424   2.071   7.631   1.284 -0.2191 -0.4556  0.0128
 5351W        W21425  15.883  10.295  13.935 -0.4863 -0.3503 -0.1422
 5352W        W21426   1.570  12.188  15.289 -0.0493  0.0944  0.0692
 5353W        W21427   5.613   2.925   2.663 -0.1463 -0.2788 -0.0531
 5354W        W21428  11.192   6.977  12.887 -0.2225  0.3050  0.2082
 5355W        W21429   8.054  14.263  16.334 -0.0195 -0.1710  0.2835
 5356W        W21430  10.139   6.141   5.112 -0.2646  0.0071  0.1268
 5357W        W21431   4.308  13.705   4.977 -0.3371 -0.2280  0.1879
 5358W        W21432  14.962   2.229  13.665 -0.0470 -0.2300 -0.0637
 5359W        W21433   2.634  17.772  16.480  0.0423 -0.2365 -0.2071
 5360W        W21434  10.074  12.945   5.179  0.0069 -0.0416 -0.0140
 5361W        W21435   0.141   9.628  12.993 -0.3616 -0.1465  0.0070
 5362W        W21436   3.802   3.723  14.306  0.0639 -0.1815  0.2096
 5363W        W21437  17.112   1.783   4.623 -0.2017  0.1806 -0.3986
 5364W        W21438  12.205   7.837   0.688  0.4782 -0.1717 -0.0035
 5365W        W21439  13.393  11.955  13.172 -0.0670  0.2609 -0.4034
 5366W        W21440   4.146   2.238   1.741 -0.0722  0.0023 -0.0139
 5367W        W21441   6.164  10.200   0.464  0.1378 -0.1395  0.1759
 5368W        W21442  18.232   9.852  14.290 -0.0511 -0.2212 -0.0272
 5369W        W21443  17.126   0.772  14.696 -0.0504 -0.1159 -0.1586
 5370W        W21444  15.971   0.478  15.508  0.0617  0.1294 -0.0310
 5371W        W21445  14.523   1.937   4.303 -0.0928 -0.2603  0.0463
 5372W        W21446   7.097  15.986   5.637  0.3935 -0.0565  0.2084
 5373W        W21447   1.664   8.767  15.302 -0.1899  0.1003  0.0997
 5374W        W21448   2.952   8.493  12.677  0.5255 -0.0074 -0.0803
 5375W        W21449   8.126   1.435   0.475 -0.0318 -0.0992 -0.0645
 5376W        W21450   6.270  10.683  12.636 -0.2140 -0.1439 -0.0080
 5377W        W21451  14.639   8.472   2.434  0.0836 -0.1149 -0.2077
 5378W        W21452   6.973  15.685   6.073  0.3559 -0.0746 -0.2146
 5379W        W21453  17.908   4.539   3.271  0.1230  0.1273 -0.0263
 5380W        W21454  12.535   1.103  15.350  0.2182  0.1107  0.2849
 5381W        W21455  13.552   9.865   0.182 -0.1293  0.1250  0.3167
 5382W        W21456   7.593   5.191  11.518  0.0915  0.1152 -0.3187
 5383W        W21457   0.563   0.632   0.693  0.0203  0.2027 -0.1998
 5384W        W21458   5.799  12.462  13.329 -0.3589 -0.2963  0.1494
 5385W        W21459   5.965   4.775  13.057 -0.1995  0.1100 -0.0376
 5386W        W21460   0.599   4.527  15.523  0.1046  0.3404  0.3755
 5387W        W21461  18.195   9.871   4.629 -0.0242 -0.0082 -0.5128
 5388W        W21462  14.290  11.618  16.113 -0.1691  0.1501  0.0593
 5389W        W21463   7.571  15.663   0.752  0.0191  0.0671  0.0307
 5390W        W21464  12.212   3.967  13.033 -0.0657  0.3409 -0.0348
 5391W        W21465  13.401  10.858   0.643  0.2345  0.1739  0.0493
 5392W        W21466   6.167   7.474  12.312  0.0331 -0.0868 -0.2272
 5393W        W21467   2.276   4.424  12.034 -0.2564 -0.0963 -0.1851
 5394W        W21468   9.281   7.074   4.536 -0.1884  0.0835  0.1655
 5395W        W21469   2.648  18.052  14.092 -0.1810 -0.2337  0.0621
 5396W        W21470   1.431   8.320  11.336 -0.0267 -0.0904 -0.0647
 5397W        W21471  18.123  13.917  12.692  0.0056  0.2117  0.2327
 5398W        W21472   6.062   9.778  12.260  0.1305 -0.1054 -0.1306
 5399W        W21473   7.196  12.432  14.319  0.0987  0.1640 -0.0214
 5400W        W21474  11.162  16.366   4.144  0.1656  0.1032 -0.0904
 5401W        W21475  13.719   6.372   4.044 -0.0306  0.2734  0.0020
 5402W        W21476   4.609   9.543  11.612 -0.2330  0.1515 -0.3178
 5403W        W21477  14.490   5.484   3.277  0.2602 -0.2727 -0.0089
 5404W        W21478   6.399  12.113   3.232 -0.0580  0.0917 -0.1275
 5405W        W21479  15.924  15.115  14.752  0.1211 -0.1638 -0.0003
 5406W        W21480   8.736  14.858  12.372  0.1993  0.2264 -0.0604
 5407W        W21481   6.856  15.264   3.586  0.0522 -0.1820 -0.2854
 5408W        W21482  13.261  16.220   5.867  0.0617 -0.1503  0.3105
 5409W        W21483   5.591   3.016  12.501  0.0876 -0.3048 -0.0647
 5410W        W21484  17.505   9.538   4.833  0.1407 -0.0606  0.1625
 5411W        W21485  13.102  12.069  12.142 -0.1552 -0.0907 -0.0815
 5412W        W21486  17.118   2.858   5.238 -0.3889 -0.2563  0.1677
 5413W        W21487  15.898  14.154  13.778 -0.4727 -0.2412  0.2024
 5414W        W21488  11.829   8.625  16.253 -0.0757 -0.2835  0.2173
 5415W        W21489   4.473   8.061   0.075 -0.0644  0.0132 -0.1632
 5416W        W21490   0.502   4.121   3.302  0.2464  0.2954  0.0764
 5417W        W21491   0.679   4.587   1.923  0.2132 -0.1285  0.0016
 5418W        W21492  12.171  12.066  15.091 -0.3338  0.2385  0.1363
 5419W        W21493   4.793   9.228  16.361 -0.0398  0.0165 -0.2024
 5420W        W21494   3.201  16.614   1.087  0.0741  0.2782  0.2295
 5421W        W21495  10.936  16.263   3.095  0.0653 -0.1872 -0.2330
 5422W        W21496  17.414   6.678  16.331  0.0257 -0.1048 -0.0911
 5423W        W21497   8.122  10.748   1.891 -0.3706  0.0613 -0.4356
 5424W        W21498   0.517   5.537  13.866  0.3144 -0.2931 -0.0601
 5425W        W21499  10.786   6.835  13.181 -0.2429  0.1914 -0.2917
 5426W        W21500   6.305   8.718  16.264  0.1540  0.1026  0.0724
 5427W        W21501  10.572   9.645   1.700 -0.1635 -0.1869  0.3159
 5428W        W21502  13.133   6.852   2.985 -0.1232  0.0861 -0.0910
 5429W        W21503  11.635  17.611  14.868 -0.1640 -0.1450 -0.1152
 5430W        W21504  16.874  11.324   1.118 -0.1699 -0.0120 -0.0959
 5431W        W21505  17.889  11.870  15.786  0.0007  0.2501  0.0415
 5432W        W21506   8.647  11.394   1.876 -0.0250  0.1638  0.1841
 5433W        W21507   1.080  14.811   5.526  0.0136 -0.0352 -0.1815
 5434W        W21508   2.327  14.780   1.341 -0.1365 -0.3190 -0.1279
 5435W        W21509  13.618  14.760  12.677  0.5038 -0.0051  0.2469
 5436W        W21510   5.788   1.039  12.495  0.1584  0.0730 -0.2160
 5437W        W21511  14.497   1.793  14.127  0.1547 -0.3073  0.0977
 5438W        W21512   5.696   9.192  14.227  0.0339 -0.0625  0.0100
 5439W        W21513   3.932   2.209  14.255  0.0647 -0.1517  0.1169
 5440W        W21514   0.316   0.655  13.914  0.0398  0.2600 -0.0140
 5441W        W21515   7.321  14.569  13.032 -0.0059  0.1465 -0.0694
 5442W        W21516   2.545  16.387  16.465  0.0456  0.3079  0.0383
 5443W        W21517  12.722  12.049  11.713 -0.0404  0.0549 -0.0780
 5444W        W21518   3.170   3.396   5.753 -0.1202 -0.0427 -0.1479
 5445W        W21519  14.224   0.867  14.590 -0.0463  0.0379 -0.0625
 5446W        W21520   9.614  13.299  14.740  0.1836  0.1654 -0.4619
 5447W        W21521   3.075  13.665   3.704 -0.0310  0.2485 -0.1453
 5448W        W21522  14.564   9.199  12.344 -0.1080  0.1748  0.1847
 5449W        W21523  15.768   0.491   1.774 -0.1543 -0.0774 -0.1394
 5450W        W21524   6.865  17.850   5.324  0.2816 -0.2120  0.0575
 5451W        W21525   9.901   7.369   0.163 -0.0955 -0.3036 -0.2194
 5452W        W21526  14.308  14.966   1.810 -0.1473 -0.2850 -0.0594
 5453W        W21527  17.434   2.320   2.897  0.3564  0.0732 -0.1035
 5454W        W21528   8.031  16.099  16.200 -0.0163  0.1788  0.1105
 5455W        W21529  10.056   6.629   4.829  0.2001  0.4096  0.0959
 5456W        W21530   0.310   2.323  13.513 -0.4153 -0.2433  0.5027
 5457W        W21531  17.338  16.587  12.209  0.3656 -0.1417 -0.1608
 5458W        W21532   1.836   9.028  13.061  0.1870 -0.1214 -0.2128
 5459W        W21533   5.885  11.097   2.486  0.3933  0.2801 -0.0741
 5460W        W21534  18.192  12.816  12.579 -0.4791 -0.0250 -0.1704
 5461W        W21535   4.331   7.903   5.372 -0.0545 -0.0679  0.3725
 5462W        W21536   0.368  16.420  15.531  0.3411  0.0067 -0.1772
 5463W        W21537   4.076  11.329  15.609 -0.2997  0.0140 -0.0333
 5464W        W21538   8.659   5.567   0.592 -0.2341 -0.0725 -0.1787
 5465W        W21539   0.499   3.196  15.882  0.0776 -0.2677  0.1783
 5466W        W21540   2.467   8.250   1.555 -0.0158 -0.0894 -0.1721
 5467W        W21541  13.811   8.257  13.439  0.0060 -0.0916 -0.2237
 5468W        W21542   3.702  18.224  11.945  0.0474  0.0353 -0.3100
 5469W        W21543   5.195   9.925   3.343  0.1730  0.2384 -0.1259
 5470W        W21544   2.237   7.264   0.923  0.0121  0.0747  0.2817
 5471W        W21545   4.436  10.141  10.957 -0.0229 -0.1080 -0.1327
 5472W        W21546  15.428  15.529  14.647  0.1668  0.0579  0.2758
 5473W        W21547  15.505   2.711  14.730 -0.0922 -0.5643  0.0374
 5474W        W21548  14.851  16.204   0.863  0.0642 -0.3316  0.1630
 5475W        W21549   5.007   7.023   4.670 -0.0618  0.2001 -0.3619
 5476W        W21550   1.135   1.864   1.931 -0.0480  0.0071 -0.1527
 5477W        W21551   0.719  10.881   0.491 -0.2072  0.0338 -0.0562
 5478W        W21552  10.883   7.443   2.006  0.2973  0.3507 -0.0392
 5479W        W21553  12.197   2.388   3.770 -0.1353  0.0826  0.0216
 5480W        W21554  14.453  11.625  13.828  0.1528  0.0933 -0.3823
 5481W        W21555   1.722  14.063   1.682 -0.2975  0.0188 -0.0366
 5482W        W21556   7.039   1.825  13.416 -0.0908 -0.0065  0.1041
 5483W        W21557   5.179  15.335  12.320 -0.0525 -0.3359 -0.4277
 5484W        W21558   9.451   9.201  16.489 -0.0567 -0.0659  0.2597
 5485W        W21559   9.855  10.724   6.174  0.1452  0.1929 -0.0087
 5486W        W21560  15.223   9.052  12.273 -0.0818  0.1247 -0.0011
 5487W        W21561   3.496   5.018   3.978  0.1648 -0.0520  0.2409
 5488W        W21562  16.686  15.210  14.408 -0.0744  0.0722 -0.0951
 5489W        W21563  14.169  17.934   4.863 -0.1136  0.3184 -0.0176
 5490W        W21564   1.426   9.176   9.591  0.2075 -0.0521  0.0167
 5491W        W21565  11.540  17.143   5.843 -0.0169 -0.3254 -0.2853
 5492W        W21566  15.702   9.039  11.525 -0.0130  0.0428 -0.2113
 5493W        W21567  10.042  16.116   1.610  0.0227 -0.3791 -0.0135
 5494W        W21568   6.302   1.183   0.146  0.1626 -0.0890 -0.0455
 5495W        W21569  13.575  15.214   0.068  0.1370 -0.1706  0.0263
 5496W        W21570   9.224   1.377   3.459  0.0639  0.1124 -0.2168
 5497W        W21571   0.749  15.683   1.200  0.1026  0.1631  0.2816
 5498W        W21572  13.560   2.049   3.243 -0.3256 -0.2829 -0.0406
 5499W        W21573   8.633   4.278  13.668  0.0957  0.0181  0.1633
 5500W        W21574  10.852   9.706   3.681  0.1723 -0.3123  0.1929
 5501W        W21575   3.866   5.786   2.189  0.0326 -0.0019  0.1370
 5502W        W21576  12.775  15.243   3.410 -0.0000  0.0877 -0.2790
 5503W        W21577   4.267  14.442  16.318  0.1534 -0.0149 -0.0221
 5504W        W21578   7.091  13.065   1.129 -0.3705  0.1000  0.1252
 5505W        W21579   2.069   8.430   0.168 -0.0076 -0.0474  0.0298
 5506W        W21580  17.649   9.362  15.781  0.1497  0.0287  0.0918
 5507W        W21581   6.744   1.523   4.755  0.1897  0.1949 -0.2069
 5508W        W21582  12.585   2.530  12.806  0.0272  0.0334 -0.2196
 5509W        W21583   6.816  14.679  16.140  0.1244 -0.2242 -0.1673
 5510W        W21584   1.457  11.105   2.523  0.0916  0.1322  0.1222
 5511W        W21585   0.993   9.261   4.155  0.0170  0.2621  0.0632
 5512W        W21586   7.509   2.795   1.823  0.2748 -0.1801  0.0073
 5513W        W21587  10.740   9.803   0.646  0.0752 -0.0530  0.0032
 5514W        W21588   9.855  14.820   2.863  0.1965  0.0035 -0.0674
 5515W        W21589   7.911   3.003   4.752 -0.2147  0.1643 -0.1726
 5516W        W21590   3.775   7.767  14.062 -0.1461 -0.1511 -0.0538
 5517W        W21591   0.514   2.055   4.549 -0.0937  0.1021 -0.0148
 5518W        W21592   8.634   1.756   3.452 -0.2562  0.2318 -0.1009
 5519W        W21593   5.513  16.716   5.383 -0.3115  0.4352 -0.2439
 5520W        W21594   7.823   8.663   4.711  0.2759 -0.1632 -0.0493
 5521W        W21595   3.350   2.239  14.383 -0.3164 -0.2650 -0.2035
 5522W        W21596   8.510   4.651  12.434 -0.2003 -0.0193  0.1367
 5523W        W21597   7.048   7.015  14.178 -0.0274  0.0603 -0.3013
 5524W        W21598  11.971   0.121  11.677 -0.5444  0.0646 -0.1653
 5525W        W21599  10.726   2.971  12.924 -0.0884  0.0624 -0.0764
 5526W        W21600   5.521   4.713   4.817  0.1917  0.1895 -0.0835
 5527W        W21601   9.941   8.998  16.314 -0.3784 -0.1039 -0.1298
 5528W        W21602  11.750  17.042  16.411  0.2287  0.3443  0.0480
 5529W        W21603   2.508  14.867   2.386  0.0203  0.0466  0.0986
 5530W        W21604  14.341  15.792  16.422 -0.0048  0.1362 -0.1739
 5531W        W21605  13.524  15.740   3.911 -0.3254 -0.3726  0.0259
 5532W        W21606  17.382  17.276   0.664  0.1309 -0.2245  0.1765
 5533W        W21607   7.049   9.370  11.975  0.1165 -0.2026  0.2863
 5534W        W21608  11.057   6.918  16.245  0.2862  0.3502 -0.0382
 5535W        W21609   7.907   3.810  15.407 -0.2829  0.0524 -0.0260
 5536W        W21610  15.144   5.187   1.559 -0.1602 -0.2717 -0.2113
 5537W        W21611  11.597  17.333  14.120  0.0962 -0.3090 -0.4948
 5538W        W21612  15.059   5.130  15.877 -0.2970  0.1373 -0.2377
 5539W        W21613   5.613   8.260   4.449 -0.1404 -0.1336 -0.0998
 5540W        W21614   5.302   5.206  11.250  0.1319  0.0464  0.3310
 5541W        W21615   7.520  12.669   6.209  0.3137  0.0187  0.1998
 5542W        W21616  17.787   6.670  12.597  0.0893  0.0975  0.0891
 5543W        W21617   6.445  16.868  13.390  0.2936  0.1439 -0.2277
 5544W        W21618  12.809   7.885  15.091 -0.1214 -0.1732  0.0738
 5545W        W21619   6.323  13.934   0.170 -0.0061  0.0629 -0.1410
 5546W        W21620   3.461  17.020  14.305 -0.0066 -0.0639  0.1570
 5547W        W21621   3.341  16.125   3.103 -0.0618  0.3881 -0.0165
 5548W        W21622  14.772  14.741   2.297  0.0731 -0.1919 -0.0976
 5549W        W21623   9.042  13.697   2.206 -0.2323  0.1153 -0.1506
 5550W        W21624   7.051  16.140  13.527  0.0637 -0.0626  0.2514
 5551W        W21625   5.209   1.511  16.038 -0.1163  0.0898  0.1610
 5552W        W21626   3.111  11.495   3.569  0.1570 -0.3132  0.1528
 5553W        W21627   3.229  15.516   5.040  0.3007  0.1377 -0.0793
 5554W        W21628   5.706  15.320  14.254  0.2733 -0.2083  0.2307
 5555W        W21629   2.518  15.435   0.110  0.0806 -0.0409 -0.2103
 5556W        W21630  17.348  15.528   2.522  0.2072  0.1582 -0.1234
 5557W        W21631  17.160  16.915   4.050 -0.1256  0.0833 -0.1891
 5558W        W21632  14.856  14.700   0.523  0.0445  0.0953  0.0629
 5559W        W21633  16.546  11.099   6.091  0.0963 -0.2070  0.0660
 5560W        W21634  14.799  15.060   4.682 -0.0832 -0.4274 -0.0416
 5561W        W21635   6.197  10.870  13.223 -0.3294 -0.0543  0.0597
 5562W        W21636   7.338   2.131  14.392 -0.2453 -0.1189 -0.0118
 5563W        W21637   8.065  14.752   4.929  0.0019 -0.0438 -0.3766
 5564W        W21638   6.159  12.225   2.819  0.2491 -0.0004 -0.0934
 5565W        W21639  12.092  16.433   3.569 -0.0730 -0.1715 -0.0191
 5566W        W21640   4.759   2.576   4.977 -0.1503 -0.0600 -0.0151
 5567W        W21641   8.720   4.609   0.261  0.0902  0.1732 -0.1380
 5568W        W21642   3.679  16.030   4.367 -0.2791 -0.0182  0.0223
 5569W        W21643   8.542   5.576  13.552  0.1977 -0.0778 -0.1145
 5570W        W21644  16.925  12.928  14.652 -0.1937 -0.0685  0.0573
 5571W        W21645   4.453  15.767  12.394  0.3130  0.1301 -0.0493
 5572W        W21646   7.249   0.399   3.694 -0.3018 -0.0150  0.0892
 5573W        W21647  11.374   5.967   2.914  0.1864 -0.0860  0.0973
 5574W        W21648  13.364  10.474   0.292  0.0184 -0.0214 -0.0127
 5575W        W21649  12.049   2.348  15.672  0.0431 -0.1495  0.0290
 5576W        W21650   9.451   1.468   5.658  0.0062  0.0085 -0.1116
 5577W        W21651  16.622   2.911   2.290 -0.0400 -0.1350 -0.2263
 5578W        W21652   7.289  15.522   3.671 -0.0252 -0.1486  0.0277
 5579W        W21653   7.678  10.896   1.753  0.0546 -0.1076 -0.0274
 5580W        W21654  14.680  13.010   0.306 -0.0119 -0.3103  0.2523
 5581W        W21655  13.057  14.397   1.954  0.1129 -0.0618  0.2723
 5582W        W21656   6.446   1.315   2.813 -0.0392 -0.3370  0.1384
 5583W        W21657   9.467   3.973   1.580  0.1062 -0.0646 -0.3680
 5584W        W21658   2.356  17.233  14.411 -0.0990 -0.1099 -0.0945
 5585W        W21659   9.818   0.299  16.229  0.0726  0.1685 -0.0053
 5586W        W21660  15.874  16.344  11.817  0.1523  0.2125  0.0203
 5587W        W21661   7.699   8.425   2.782  0.1474 -0.0213  0.0672
 5588W        W21662   0.563   4.950   5.952 -0.0860  0.3991 -0.1329
 5589W        W21663  11.680  16.746  10.321  0.2420 -0.0172 -0.1334
 5590W        W21664   3.093  15.779   1.754 -0.1198  0.1299  0.1778
 5591W        W21665   7.792   7.624  16.496 -0.3277  0.0912 -0.1754
 5592W        W21666   9.819  15.390  12.305  0.1400 -0.3627 -0.0826
 5593W        W21667  14.133  13.875   5.116  0.1444 -0.4526  0.1475
 5594W        W21668   5.286   1.091   1.163 -0.0639  0.2287 -0.1796
 5595W        W21669  10.293  15.838   3.232 -0.0048 -0.1220  0.0585
 5596W        W21670   4.338   1.565  15.334 -0.1101  0.0661  0.0074
 5597W        W21671   1.109   2.843  12.528 -0.4621 -0.1742  0.2924
 5598W        W21672  17.798  10.665   2.863 -0.0232 -0.0259 -0.0318
 5599W        W21673  10.706  14.669   3.961  0.2531  0.1039 -0.3906
 5600W        W21674  10.894   9.220  12.231  0.1511  0.2236  0.0448
 5601W        W21675  11.648  11.293   3.914 -0.3141 -0.0363  0.0645
 5602W        W21676  13.992  14.809   2.432 -0.1828 -0.1830 -0.0328
 5603W        W21677  12.612  10.842  12.135  0.0299 -0.3230  0.1114
 5604W        W21678   5.611   0.775   1.659  0.0220  0.2859  0.0003
 5605W        W21679  15.214   8.477   1.094 -0.1894  0.0628 -0.0914
 5606W        W21680   7.596  10.610   0.018 -0.0507  0.4024  0.0069
 5607W        W21681   4.420  18.236  15.138 -0.3007 -0.2383  0.0355
 5608W        W21682   5.094  10.331  15.999 -0.2561  0.0860 -0.3023
 5609W        W21683   6.330  18.240  14.658  0.0619  0.0071 -0.0256
 5610W        W21684  16.865   6.368  12.804 -0.1676 -0.2144 -0.4804
 5611W        W21685  17.967  16.705  16.041  0.1101  0.4229  0.0218
 5612W        W21686   3.370  10.177   2.892 -0.2870 -0.1493 -0.2063
 5613W        W21687   7.883  17.158   5.512  0.3176 -0.4080 -0.2540
 5614W        W21688   0.207   6.510   3.983 -0.0528 -0.1856  0.1774
 5615W        W21689  16.087  10.027   2.035 -0.2068 -0.1581 -0.2366
 5616W        W21690  17.952   4.052  15.795 -0.1917 -0.0565 -0.2852
 5617W        W21691  17.160   9.868  13.486 -0.0015  0.2490 -0.0249
 5618W        W21692  18.067  16.763  13.267 -0.2779  0.1111  0.4165
 5619W        W21693   8.368  17.077   6.202  0.4320 -0.0018 -0.1844
 5620W        W21694   4.525   8.607   1.286 -0.1025 -0.3151  0.1593
 5621W        W21695   8.127  16.694  14.556 -0.1717 -0.0893  0.0268
 5622W        W21696   9.820   4.253  12.233  0.0384 -0.0079 -0.2627
 5623W        W21697  12.956  17.418  13.955 -0.1156 -0.1113  0.1402
 5624W        W21698  14.331   3.710  15.691  0.0276  0.1101 -0.1744
 5625W        W21699  17.017   0.614  16.360  0.2635 -0.0454  0.3259
 5626W        W21700   6.953   1.055  11.809  0.0286  0.0140 -0.0619
 5627W        W21701  16.368   2.529   3.718  0.0143  0.0667 -0.2215
 5628W        W21702   2.954   5.277  13.072 -0.4354 -0.0069 -0.2451
 5629W        W21703   6.574  10.582   5.031  0.0363 -0.0107 -0.0833
 5630W        W21704  11.915  17.885   6.139 -0.1781 -0.1088  0.1942
 5631W        W21705   7.902   9.744  12.916  0.1244  0.0226 -0.2848
 5632W        W21706  13.786   6.801  12.020 -0.0703 -0.1085 -0.2407
 5633W        W21707   8.970  16.802  15.577  0.1156  0.2321 -0.3461
 5634W        W21708  11.199   6.156   0.831  0.3510 -0.1851 -0.0014
 5635W        W21709   8.515   5.513   1.056  0.0112  0.0366  0.1524
 5636W        W21710   2.288  13.613   3.596 -0.1238  0.2772 -0.0915
 5637W        W21711  10.119   4.994  14.200 -0.1664 -0.3791  0.1966
 5638W        W21712  15.347   7.340   4.404 -0.2860  0.0011 -0.2224
 5639W        W21713  16.461  10.033   4.135 -0.0507 -0.1463  0.0120
 5640W        W21714   8.865   9.917  14.125  0.0674  0.2742 -0.2872
 5641W        W21715   4.609   5.669  13.917 -0.2969  0.0268  0.1516
 5642W        W21716   6.995  11.037  15.909  0.3664  0.1203  0.1748
 5643W        W21717   6.149  16.095   2.560  0.3405 -0.3679 -0.2980
 5644W        W21718   6.504   0.597   3.831 -0.3889 -0.1670 -0.1747
 5645W        W21719  11.162   9.337  13.012 -0.2811  0.1552 -0.0374
 5646W        W21720  16.551  12.868   3.888 -0.2127 -0.0742  0.3389
 5647W        W21721  14.013   0.425  13.305  0.2171  0.4748 -0.3396
 5648W        W21722   2.963   2.691   2.261  0.2637  0.1828 -0.2188
 5649W        W21723   8.926  18.006   6.298  0.1851  0.0055 -0.2251
 5650W        W21724   8.058  12.943   0.313  0.0620 -0.1525 -0.0896
 5651W        W21725  10.498   3.008   4.561  0.1781 -0.1191 -0.0119
 5652W        W21726   2.818   2.186  14.143  0.1072  0.2082  0.3671
 5653W        W21727  14.823  10.605   0.535  0.0288 -0.3085  0.1027
 5654W        W21728   7.633   7.228  14.809  0.0666  0.0345 -0.1634
 5655W        W21729  10.701  13.712   0.425 -0.2261 -0.0513  0.1692
 5656W        W21730   7.998  13.466   1.877 -0.0067  0.2174  0.1821
 5657W        W21731  15.995  11.348  13.276 -0.0553 -0.0998  0.1641
 5658W        W21732  16.208   6.641   3.000  0.0462  0.3761  0.1824
 5659W        W21733   7.885  18.223  15.827  0.2442  0.0253 -0.1257
 5660W        W21734  16.174   9.599  13.981 -0.1111 -0.3036  0.1663
 5661W        W21735  17.291   7.127  16.444 -0.5244 -0.0090  0.1769
 5662W        W21736   7.246   9.824   3.878  0.1876  0.0710 -0.2370
 5663W        W21737   9.596  11.506  15.640 -0.0452 -0.2684 -0.1394
 5664W        W21738  18.187  17.539   1.734 -0.0960  0.2199  0.0217
 5665W        W21739   3.094   2.651  14.191  0.0588  0.0005  0.0265
 5666W        W21740  11.809  11.833   0.754  0.2569  0.1258  0.1230
 5667W        W21741   3.297  16.225  13.150  0.3452 -0.0756 -0.0582
 5668W        W21742   7.136  15.001   0.032 -0.0227 -0.2360 -0.0922
 5669W        W21743   0.185  17.053  13.239  0.0084  0.0603 -0.0473
 5670W        W21744   3.121   0.414   3.141  0.0036  0.2048  0.0573
 5671W        W21745  15.870   5.710   4.756  0.3046  0.1906 -0.0446
 5672W        W21746  11.562   6.894  15.354 -0.4455  0.0184  0.2701
 5673W        W21747   9.024  11.770   0.773 -0.1050 -0.1386 -0.4410
 5674W        W21748   6.272  15.590  13.421  0.0250 -0.0775  0.3089
 5675W        W21749  16.419  11.357   2.276  0.1391  0.0534 -0.1376
 5676W        W21750   6.640  13.371  12.903 -0.0350 -0.0030  0.3840
 5677W        W21751  17.531   9.879   5.194 -0.0058  0.2383  0.0442
 5678W        W21752   6.967   6.763  13.768  0.2429  0.0389  0.2778
 5679W        W21753   8.484  12.936  13.283  0.1581  0.0691  0.0146
 5680W        W21754  10.544   4.711  15.817 -0.1327  0.0577  0.0339
 5681W        W21755   0.471   8.326  11.698 -0.3618  0.0920  0.2157
 5682W        W21756   1.725   4.359   5.422  0.1942 -0.0168 -0.2337
 5683W        W21757  13.434  15.366   4.212 -0.2877 -0.0521  0.3395
 5684W        W21758  17.117  16.971   0.235  0.0299 -0.0503  0.1840
 5685W        W21759  13.042  13.248   1.073  0.1724  0.0225 -0.1018
 5686W        W21760   6.085   9.876   3.293  0.0274 -0.0252  0.2601
 5687W        W21761  11.836  17.563  16.368  0.0614  0.0175  0.0985
 5688W        W21762   4.814  10.862  14.181 -0.0772  0.0142 -0.1361
 5689W        W21763  15.493   2.300  12.431 -0.0427  0.0227  0.2550
 5690W        W21764  10.458   3.482   2.173  0.0719  0.1584 -0.2335
 5691W        W21765  13.672   8.987  12.074  0.0500 -0.2043  0.1353
 5692W        W21766  17.053  15.645  11.421  0.1465 -0.1802 -0.2386
 5693W        W21767   4.329  17.226  14.422 -0.1212  0.1068  0.2085
 5694W        W21768   1.481   9.363   4.292 -0.0405  0.4194 -0.1296
 5695W        W21769   0.642   5.901   2.951  0.1183 -0.2814 -0.1172
 5696W        W21770   6.488   2.840   5.365 -0.0118  0.2519  0.1102
 5697W        W21771  11.696  14.006   3.933 -0.0030  0.0767 -0.0359
 5698W        W21772  10.849  17.777   1.589  0.1704  0.1370 -0.2022
 5699W        W21773   7.882   7.130  13.742 -0.2012  0.0661 -0.1677
 5700W        W21774   7.471   6.802  14.422  0.1166  0.3530 -0.0387
 5701W        W21775  10.884   1.694   1.160 -0.2534 -0.0218  0.0477
 5702W        W21776   6.763  16.729   0.426 -0.3267  0.0010  0.2190
 5703W        W21777  17.940   5.958   3.292  0.0897 -0.0743  0.0366
 5704W        W21778  14.338   5.749  12.874 -0.2132 -0.0674 -0.2265
 5705W        W21779  17.804  14.239  14.527 -0.1140 -0.0092 -0.0580
 5706W        W21780   6.790  12.500  11.398  0.1561  0.1338  0.2685
 5707W        W21781   8.830   5.066   2.936 -0.2297  0.2542  0.3663
 5708W        W21782   6.839  14.792   3.791 -0.3279  0.1572 -0.0563
 5709W        W21783   7.707  13.998  13.580 -0.2753 -0.1230 -0.0378
 5710W        W21784  13.944   8.557   4.474 -0.1321  0.0618  0.1052
 5711W        W21785   6.713  12.497   4.558  0.3193  0.2907 -0.1525
 5712W        W21786   7.996   8.826   2.931 -0.1459  0.2133 -0.2650
 5713W        W21787  17.852   8.696  13.842 -0.2413 -0.0677 -0.1047
 5714W        W21788  18.030   2.145  10.312 -0.0955  0.0587 -0.3616
 5715W        W21789  11.985   5.443  11.478 -0.1467  0.0095  0.1905
 5716W        W21790   5.363  14.450   1.055  0.1160 -0.1646  0.0045
 5717W        W21791   5.522  10.714   3.047  0.0005 -0.1914 -0.1511
 5718W        W21792   7.763   7.714   5.619  0.0966  0.0577  0.3313
 5719W        W21793   2.194   4.635   3.608  0.2118 -0.0460  0.0389
 5720W        W21794  10.172  12.460   5.417  0.0804  0.0053 -0.0272
 5721W        W21795   8.952  12.867   4.655  0.2632 -0.4110 -0.2217
 5722W        W21796   3.365  12.282   2.679  0.1056  0.3387 -0.4450
 5723W        W21797   5.060   4.576   1.531  0.0917 -0.3183 -0.0551
 5724W        W21798   9.728   9.081   0.382  0.0033 -0.0455  0.2266
 5725W        W21799   8.926   0.251   6.275  0.2071  0.2158 -0.0109
 5726W        W21800   9.942  11.832   4.407  0.2331  0.0237  0.1722
 5727W        W21801   5.223  10.116   0.611 -0.1776 -0.0055 -0.1997
 5728W        W21802   2.834   4.162   0.288 -0.0935  0.0276  0.3164
 5729W        W21803  10.504  16.158   1.712 -0.0255  0.0922  0.0719
 5730W        W21804  11.115  17.018   6.023  0.1080  0.2064 -0.0907
 5731W        W21805  10.754  18.173   4.878 -0.0470 -0.2533  0.1713
 5732W        W21806   4.194   3.102  15.871  0.0604  0.0201  0.1745
 5733W        W21807   5.586  18.150   5.002  0.3096 -0.1602 -0.0035
 5734W        W21808   2.234  14.252  14.110  0.0494 -0.0653  0.2390
 5735W        W21809  15.092   5.891  15.689 -0.0458  0.0915  0.1568
 5736W        W21810   5.987  16.880  15.348  0.3915  0.0492  0.1043
 5737W        W21811   7.426  11.459   3.780 -0.2569  0.2454  0.0404
 5738W        W21812   0.257  14.677  12.777  0.1024 -0.1405  0.0453
 5739W        W21813   5.508  13.167  15.421 -0.3640  0.2565 -0.0687
 5740W        W21814   2.503   8.605   1.964 -0.2671  0.2169  0.0223
 5741W        W21815   8.595  13.628  16.150 -0.1798 -0.0877 -0.1749
 5742W        W21816  18.250  15.282  13.117  0.1999  0.1583  0.1878
 5743W        W21817   7.606  11.525   4.240  0.0265  0.1738  0.1922
 5744W        W21818  10.280   0.003  14.004 -0.2202 -0.2947  0.1098
 5745W        W21819   0.700   0.803  12.496 -0.2123  0.0344  0.0785
 5746W        W21820  11.311  10.837   1.772 -0.1522  0.0070  0.0777
 5747W        W21821  14.031   9.219   2.122  0.0581  0.2339  0.2466
 5748W        W21822   2.858  14.256   3.000 -0.0630 -0.3363  0.3875
 5749W        W21823   4.251   4.139   1.527 -0.0422  0.2471  0.1517
 5750W        W21824  18.001   9.344  14.888  0.0109  0.1578 -0.3567
 5751W        W21825   1.695  11.153   1.387 -0.3033 -0.6134 -0.1770
 5752W        W21826  15.035   6.143   1.797  0.1327 -0.0738  0.3928
 5753W        W21827  11.879   3.678   1.043 -0.0003  0.1603 -0.2448
 5754W        W21828   3.247   6.285   5.088  0.0805  0.3272 -0.1281
 5755W        W21829   7.350  16.260   4.329  0.1096  0.0233 -0.3098
 5756W        W21830   4.904  15.516   6.134  0.0833  0.2774 -0.0266
 5757W        W21831  16.681  14.946  12.940  0.0154 -0.0471  0.0458
 5758W        W21832  10.127   5.336   3.289  0.0628 -0.2372 -0.3629
 5759W        W21833  17.988   0.266   1.575  0.0805 -0.1494 -0.0653
 5760W        W21834  11.464   9.167   5.109 -0.0219 -0.1372 -0.0164
 5761W        W21835  13.628  17.412  15.719 -0.2897  0.0580 -0.2571
 5762W        W21836   2.772   5.029   5.042  0.0588 -0.2006  0.0024
 5763W        W21837  16.880   7.679  13.004 -0.0380 -0.0037 -0.3301
 5764W        W21838   0.004   0.226   2.977  0.2352 -0.2975  0.3119
 5765W        W21839  13.529   6.130  15.904 -0.3745 -0.0350 -0.1835
 5766W        W21840   6.604  11.605   5.187 -0.1629  0.2299 -0.0191
 5767W        W21841  12.038   7.911  14.504 -0.2012  0.0493 -0.2202
 5768W        W21842  11.549  15.129  14.697 -0.1234  0.0289  0.2167
 5769W        W21843  17.711   5.293   3.789 -0.2202  0.0980  0.0396
 5770W        W21844   2.046   6.935  14.862 -0.0897 -0.2639  0.3626
 5771W        W21845   0.945  10.982   3.230  0.2261  0.1454 -0.0243
 5772W        W21846   0.380   2.349  12.464  0.1374 -0.0641  0.1518
 5773W        W21847   4.273   9.446   9.848 -0.0688 -0.0203 -0.1362
 5774W        W21848   6.839   3.035  12.804  0.2551 -0.0967 -0.1123
 5775W        W21849   3.296   4.572   5.977  0.3915  0.3682  0.3179
 5776W        W21850  12.152   5.663  13.675  0.2817  0.0423 -0.1760
 5777W        W21851   1.896   8.525  15.749  0.2044 -0.0862  0.1123
 5778W        W21852  12.624   0.869  11.621  0.0131 -0.0174  0.3179
 5779W        W21853   7.300  15.862   5.158 -0.2405  0.0789  0.1497
 5780W        W21854   9.028   1.800   5.594  0.0164  0.1921  0.0480
 5781W        W21855  15.550   9.244  11.931 -0.0112  0.3164 -0.2271
 5782W        W21856   2.369   7.433  13.084  0.4435  0.2026 -0.1223
 5783W        W21857   0.878  17.600   3.293 -0.1549 -0.0293  0.2780
 5784W        W21858   6.516   2.156  14.380  0.2476  0.0670  0.0312
 5785W        W21859   1.148   5.428   1.103 -0.0207 -0.1976  0.0621
 5786W        W21860  18.058  16.390  15.490  0.0224 -0.1159  0.0517
 5787W        W21861   2.340  12.358  11.917  0.1431 -0.1230 -0.2158
 5788W        W21862   0.382  17.633   2.100 -0.0882  0.0459  0.2551
 5789W        W21863   9.163   0.029   5.021 -0.1446 -0.1380 -0.3273
 5790W        W21864  10.722  10.752   3.602  0.0251  0.0484 -0.2397
 5791W        W21865  11.559  13.585  15.721 -0.1587  0.0326 -0.1824
 5792W        W21866   7.955   4.142   5.632 -0.0202  0.1240  0.4402
 5793W        W21867   6.901  15.398  12.878  0.1896  0.3785  0.3797
 5794W        W21868   2.054  13.713  12.157 -0.3616  0.0490  0.0201
 5795W        W21869   2.634   1.891  15.978 -0.0624  0.1239  0.2224
 5796W        W21870   9.511  17.443   2.820 -0.1027 -0.2464  0.0447
 5797W        W21871  15.458   1.468  12.978 -0.1609  0.0096  0.0513
 5798W        W21872   4.627  16.425   5.250  0.2775 -0.4646 -0.0345
 5799W        W21873   4.958  11.833   3.509  0.2095 -0.3336  0.1200
 5800W        W21874   0.642  11.991   4.430 -0.1466 -0.1832 -0.2739
 5801W        W21875  12.706  11.908   0.391 -0.1541  0.1458 -0.0207
 5802W        W21876  13.431  13.889  11.487  0.6471 -0.0381 -0.2014
 5803W        W21877  15.664   0.685   5.770  0.2240  0.1873  0.3682
 5804W        W21878  14.893   6.096  11.939  0.1391 -0.0757  0.0941
 5805W        W21879   4.917  14.900  12.627 -0.1874 -0.3252 -0.0501
 5806W        W21880   0.783   0.482  14.941  0.1988 -0.1452  0.0154
 5807W        W21881   4.877  14.552   5.926  0.2714 -0.2357 -0.1554
 5808W        W21882  15.722   5.262   3.471  0.3590  0.0500 -0.1992
 5809W        W21883   7.614   8.195   4.739 -0.1029  0.0502  0.0380
 5810W        W21884  13.801   5.335  14.785  0.3713 -0.2843  0.1279
 5811W        W21885  11.208   9.828  10.252 -0.0391  0.4329  0.0823
 5812W        W21886   9.235   5.879   4.863 -0.0685 -0.3381  0.1965
 5813W        W21887  11.018  14.923   4.266  0.0811  0.1779 -0.1379
 5814W        W21888   4.772  11.272   2.211  0.3122  0.1147 -0.0488
 5815W        W21889  12.693  17.601  11.560 -0.5100  0.4709  0.0237
 5816W        W21890  11.580  15.533  14.412 -0.1431 -0.0949  0.1326
 5817W        W21891   8.498   6.596   4.615  0.2378 -0.0696 -0.0942
 5818W        W21892  18.231   8.154  12.540  0.2797 -0.0954 -0.2109
 5819W        W21893   8.160  10.270   1.915  0.0323 -0.0730  0.1544
 5820W        W21894   5.309  17.195   4.733  0.1579 -0.1588  0.0762
 5821W        W21895   3.361  11.952   0.008 -0.0605  0.0736  0.2208
 5822W        W21896   3.773  12.145   2.131 -0.2683  0.0729 -0.0637
 5823W        W21897   3.815   1.980  13.842  0.0794 -0.1005 -0.0670
 5824W        W21898   3.290   5.772  15.565  0.1460  0.2761 -0.2201
 5825W        W21899  15.414  13.236  16.455  0.0882  0.1932 -0.3161
 5826W        W21900   1.427   9.586  11.902 -0.1551  0.0160 -0.2283
 5827W        W21901   8.791   6.411   3.169  0.3464 -0.1113 -0.1177
 5828W        W21902   5.592   4.155   0.890  0.1778  0.3039  0.0713
 5829W        W21903   8.974  10.952   5.596  0.2623  0.2537  0.2430
 5830W        W21904   1.566   8.977   2.809 -0.1066  0.1727  0.0785
 5831W        W21905   9.849   6.632  14.447  0.0994  0.1058  0.1713
 5832W        W21906  17.535  16.689   0.079 -0.0601 -0.2067 -0.0387
 5833W        W21907   0.980   4.387   3.496  0.3237 -0.0078  0.0820
 5834W        W21908  13.318   4.896  14.111  0.2359  0.1424 -0.3439
 5835W        W21909   7.047  10.723   4.515  0.3264  0.2902  0.1174
 5836W        W21910  12.631   6.893  11.669  0.3181  0.0048  0.1250
 5837W        W21911   3.595   9.008  12.047  0.1329 -0.0352  0.2838
 5838W        W21912  18.233   0.550  11.868  0.1813  0.0482 -0.0171
 5839W        W21913   5.463   8.360   1.441  0.1390 -0.1932  0.0863
 5840W        W21914   2.963  12.858   0.951  0.0047  0.3806  0.2947
 5841W        W21915   8.462  15.207   0.503  0.0353 -0.2236 -0.0092
 5842W        W21916   5.885  17.996   4.677 -0.2399 -0.0459 -0.0311
 5843W        W21917   8.113  11.980  11.833  0.1638 -0.0368 -0.0132
 5844W        W21918  11.641  13.619   4.280 -0.1689  0.1628 -0.2090
 5845W        W21919  11.374  17.239  11.479 -0.0896  0.1257 -0.0132
 5846W        W21920  13.705   1.852   1.904 -0.1429 -0.1882 -0.0928
 5847W        W21921   2.109   3.989  13.314  0.1116  0.2436  0.2986
 5848W        W21922   8.191   4.694  13.785 -0.0251 -0.2402 -0.2399
 5849W        W21923  16.550  13.232  14.787  0.1178 -0.1644  0.0838
 5850W        W21924   1.571  17.759   4.418  0.2524 -0.3026 -0.1278
 5851W        W21925  16.748  10.682  11.322  0.0912  0.0997  0.2132
 5852W        W21926   0.612   8.513  13.982  0.0503  0.0894 -0.1724
 5853W        W21927   9.861   4.544   4.451 -0.2238  0.5599  0.4194
 5854W        W21928  11.407   1.862   5.664 -0.2179 -0.0273  0.1980
 5855W        W21929  12.818   9.886  11.741 -0.0552 -0.3527 -0.0272
 5856W        W21930   4.515   8.400   2.249 -0.2651  0.0330  0.1360
 5857W        W21931   2.084  10.333   5.319 -0.2293 -0.0218  0.0195
 5858W        W21932  14.511  14.639   5.693  0.0501  0.1040  0.2096
 5859W        W21933  13.329   2.289   0.911 -0.0286 -0.0211 -0.0983
 5860W        W21934   6.830  11.624  11.708 -0.1360  0.0070 -0.1363
 5861W        W21935   9.341  10.745  13.949  0.3004  0.1227  0.0978
 5862W        W21936   0.481   1.765   3.604  0.2626 -0.0925 -0.0763
 5863W        W21937  15.392  15.054  14.048 -0.3025 -0.1031  0.1808
 5864W        W21938  14.475   9.580  11.896  0.0499 -0.1795  0.1792
 5865W        W21939   6.571   9.368  11.068 -0.2267  0.0639  0.1185
 5866W        W21940   8.009  17.872  15.402 -0.4566  0.0044 -0.0089
 5867W        W21941   0.222  12.711  12.149  0.2978 -0.0337 -0.0094
 5868W        W21942   6.798   0.444   1.872  0.0509  0.1016 -0.2963
 5869W        W21943  12.781  13.198  16.276  0.1376  0.0456  0.0234
 5870W        W21944   1.355  10.669   2.279 -0.0119  0.0092  0.0345
 5871W        W21945   0.639   8.746  13.147  0.1528 -0.0472 -0.1766
 5872W        W21946   2.248   5.799   5.014 -0.1306  0.0369  0.1847
 5873W        W21947  11.435   4.261   2.710  0.1164 -0.1889  0.1402
 5874W        W21948   5.156   8.994   0.181  0.1309  0.0423 -0.0348
 5875W        W21949  18.098  17.806  15.133 -0.2094 -0.0663 -0.2930
 5876W        W21950  12.285   1.927  14.781 -0.2637 -0.0165 -0.0175
 5877W        W21951  12.706  17.950  11.248 -0.0516 -0.0856 -0.0103
 5878W        W21952   2.535  11.135   1.431 -0.1452 -0.1447  0.0888
 5879W        W21953  17.836  15.602   0.096 -0.0187 -0.3256  0.0709
 5880W        W21954  17.140   5.628  13.078 -0.1671 -0.2616  0.1307
 5881W        W21955   3.713   4.322  16.401  0.0091 -0.1663 -0.1477
 5882W        W21956  13.479   0.102  13.702 -0.0976  0.2265  0.0104
 5883W        W21957   9.392  15.577   3.492  0.2150  0.0116  0.2628
 5884W        W21958  14.407  14.668   0.813  0.0334 -0.0998  0.1578
 5885W        W21959  16.257  18.121  16.361  0.2140 -0.1855 -0.0007
 5886W        W21960  14.809  13.731   2.134  0.2585  0.2619 -0.3864
 5887W        W21961   9.885  10.374   1.719  0.3823 -0.2094  0.0675
 5888W        W21962   7.085  14.297   5.264  0.3977  0.0253 -0.0356
 5889W        W21963  10.254  12.958  12.321 -0.2969  0.4338  0.1165
 5890W        W21964   6.654   6.162   5.097  0.0055 -0.3288 -0.1322
 5891W        W21965   7.696  17.143   4.563  0.0364 -0.1436 -0.1321
 5892W        W21966   6.410  16.001  13.096  0.1767 -0.2094 -0.0095
 5893W        W21967  17.593  12.196   4.279 -0.2850 -0.0804 -0.4321
 5894W        W21968  17.428   5.137  12.082 -0.2162  0.2543  0.2122
 5895W        W21969  14.376  13.092  16.415  0.1355  0.1524  0.2901
 5896W        W21970   0.229   2.360   4.265  0.5036  0.0877 -0.2407
 5897W        W21971   6.010  16.711   1.402 -0.1441  0.2126 -0.1805
 5898W        W21972   5.573  15.161  13.639 -0.3183  0.0239 -0.0371
 5899W        W21973  13.135  17.040  11.191 -0.0845  0.1204  0.2675
 5900W        W21974  17.513  11.266   3.786 -0.1704  0.0569  0.2474
 5901W        W21975  12.799  11.517   2.583  0.0219 -0.0830 -0.0373
 5902W        W21976  15.719  14.079   4.111 -0.1997  0.1652 -0.2909
 5903W        W21977  11.352   1.081   1.692 -0.0681  0.0367  0.1297
 5904W        W21978   3.851   9.444  13.862 -0.0783  0.1331  0.0498
 5905W        W21979   2.142  13.560   2.761 -0.1227 -0.0649  0.1136
 5906W        W21980  10.293   5.238   5.161 -0.1381  0.2709 -0.2461
 5907W        W21981   5.149  17.400   3.180 -0.0703 -0.0083  0.0225
 5908W        W21982   9.734   0.049   1.902 -0.0506  0.0183  0.2701
 5909W        W21983  15.125   6.630   0.639 -0.0195  0.0607  0.0473
 5910W        W21984  17.848   6.766  15.210 -0.0045  0.3658 -0.1412
 5911W        W21985  14.213   9.493   4.631 -0.1890  0.1702  0.0785
 5912W        W21986  16.160   6.328  15.667 -0.0812  0.1821 -0.0265
 5913W        W21987  12.623   7.614   5.388  0.1814 -0.0999 -0.1864
 5914W        W21988  13.580   6.962   2.590  0.0881 -0.1929  0.1710
 5915W        W21989   4.084  15.800   0.282  0.0255 -0.1029  0.1388
 5916W        W21990  10.684  13.252   0.401 -0.1767  0.0281 -0.3172
 5917W        W21991   1.997   3.494  13.257 -0.0565  0.4391 -0.2091
 5918W        W21992   2.882  14.638  13.559  0.3765  0.0355 -0.2833
 5919W        W21993   5.551   1.557  14.249 -0.0036 -0.2609 -0.1276
 5920W        W21994   7.681  10.151   0.866 -0.0103 -0.0206  0.0832
 5921W        W21995  14.550  17.439   1.869 -0.1930  0.0437 -0.1994
 5922W        W21996   5.076  12.046   1.903 -0.3660  0.0232 -0.0602
 5923W        W21997   3.902   5.399   2.758 -0.0453 -0.1146  0.1623
 5924W        W21998   5.895   8.692  10.039  0.1296 -0.0933 -0.0588
 5925W        W21999  12.991  10.218  15.286 -0.5491  0.2743 -0.0633
 5926W        W22000  10.784   2.568   5.375  0.1794 -0.0953  0.0270
 5927W        W22001   0.262   7.099   4.678  0.0011 -0.3714 -0.2072
 5928W        W22002  16.260  14.295  13.383  0.0063 -0.0070 -0.1596
 5929W        W22003  17.319   2.155   2.360  0.0069  0.1712  0.0312
 5930W        W22004   7.941  12.007   2.552 -0.1640  0.2200 -0.2179
 5931W        W22005  16.687  14.407   4.426  0.0764  0.1257  0.0958
 5932W        W22006   3.141  17.176  15.941 -0.0815 -0.2908  0.2291
 5933W        W22007  18.127   8.742   2.333  0.0624 -0.0469  0.4728
 5934W        W22008   9.209  14.962   1.141 -0.0222 -0.2584 -0.1917
 5935W        W22009  16.408   3.815  14.824  0.1257  0.0872  0.1990
 5936W        W22010   9.572  18.016  12.005  0.0264  0.0421  0.0384
 5937W        W22011   4.225   2.320  14.596  0.2033 -0.3534 -0.2246
 5938W        W22012   7.745  15.497   3.919 -0.1931  0.0985  0.1289
 5939W        W22013  13.163   1.475  15.001  0.0652 -0.0444  0.0016
 5940W        W22014   5.119  16.413   5.269  0.1291  0.3888  0.3478
 5941W        W22015   8.835   4.118   5.466  0.0289  0.0423  0.0010
 5942W        W22016  10.806   0.312  15.414 -0.0031  0.3713 -0.0822
 5943W        W22017   1.374   5.397  11.422  0.1778 -0.1726  0.1340
 5944W        W22018   4.620  16.975  12.875  0.0073  0.0987  0.1712
 5945W        W22019   7.675  12.149   0.916  0.0817  0.0945 -0.3409
 5946W        W22020  15.448   2.074  16.392  0.4241 -0.2075 -0.1507
 5947W        W22021  10.250   8.776  13.863 -0.1660  0.3322  0.0641
 5948W        W22022   1.025   9.375   3.296  0.0600  0.1171  0.0695
 5949W        W22023  16.013   9.701   5.008 -0.1445  0.0347 -0.0069
 5950W        W22024   5.831   9.722  15.069 -0.0881  0.3682  0.0916
 5951W        W22025  18.198   4.253  13.405 -0.0611 -0.3293  0.2861
 5952W        W22026   7.876   2.687   1.137 -0.4421  0.4264  0.1092
 5953W        W22027   7.736   6.162   2.087  0.1538  0.4275  0.0869
 5954W        W22028  11.823  13.911   2.254  0.3094 -0.0643 -0.2748
 5955W        W22029   9.659   2.800   1.158 -0.2165  0.1533 -0.1563
 5956W        W22030  16.994  15.542   2.120 -0.1581  0.0659 -0.2360
 5957W        W22031  16.912   3.870   1.719 -0.0578  0.0733 -0.4855
 5958W        W22032   0.719   1.005   3.924  0.5574 -0.1432 -0.1642
 5959W        W22033   0.117   3.102   2.672 -0.2552 -0.0722  0.2764
 5960W        W22034   3.698   5.488  14.019  0.2077 -0.2835  0.2819
 5961W        W22035  15.028  17.428  15.658 -0.0440  0.3375 -0.0195
 5962W        W22036   5.111   9.713   4.216  0.1163 -0.2403  0.3328
 5963W        W22037  10.916   9.454   5.832 -0.0415  0.0271  0.3287
 5964W        W22038   6.677   5.488  15.674  0.1002 -0.1603 -0.0215
 5965W        W22039  10.612  11.409  15.614 -0.0151 -0.0978 -0.0015
 5966W        W22040  11.249   8.933  11.895  0.1146  0.1404 -0.0139
 5967W        W22041   0.327  16.014  14.769 -0.2697 -0.0557 -0.1747
 5968W        W22042   8.041  10.175  12.604 -0.0588  0.2539 -0.3512
 5969W        W22043  16.692  14.693   4.054  0.0536 -0.1556 -0.0162
 5970W        W22044  17.525  16.287   4.860  0.2648 -0.1539  0.0738
 5971W        W22045  13.340   3.606   2.120 -0.1102 -0.0700 -0.1007
 5972W        W22046   1.270   6.800   3.074  0.1089 -0.0430 -0.1560
 5973W        W22047   2.430   6.747   1.067  0.2903  0.1036 -0.1615
 5974W        W22048   2.308  11.188   5.089 -0.3141  0.2275  0.3980
 5975W        W22049   7.413   0.800  16.429 -0.1575  0.0503  0.0487
 5976W        W22050   3.677   5.674  14.498  0.0814 -0.4239 -0.0793
 5977W        W22051  14.895  12.229   5.262 -0.0260  0.1516 -0.1498
 5978W        W22052   4.959  15.345   4.061 -0.0498  0.2256 -0.1608
 5979W        W22053   7.576   3.189   3.205  0.1003  0.5253  0.1019
 5980W        W22054   1.191   8.048   4.666 -0.0595  0.2076  0.1857
 5981W        W22055  16.523  16.767   1.552 -0.1567 -0.0590 -0.2957
 5982W        W22056   7.988  12.772  13.088  0.0349 -0.2355  0.3797
 5983W        W22057  10.235   6.048  14.001  0.0742 -0.3524  0.1494
 5984W        W22058  12.468   6.752   1.728 -0.0773 -0.0652  0.2397
 5985W        W22059   5.664   3.892   3.130 -0.0519  0.0371 -0.1957
 5986W        W22060  18.162   4.351   1.405  0.0655  0.0731 -0.2550
 5987W        W22061  16.828  18.173  14.293  0.0133  0.1464 -0.0084
 5988W        W22062  11.209  14.655   3.804  0.1100  0.2541  0.1696
 5989W        W22063   4.831  15.555  13.894  0.0970  0.2293 -0.0259
 5990W        W22064  10.156  10.958  14.919  0.3687 -0.1495 -0.3441
 5991W        W22065   0.689  18.088   2.422 -0.2078 -0.0854  0.2972
 5992W        W22066  13.717   3.419   2.928 -0.4800 -0.0038  0.0048
 5993W        W22067  13.225   5.507  14.232 -0.0569  0.0518  0.0559
 5994W        W22068   7.706   7.492  15.303  0.0178  0.0078  0.0413
 5995W        W22069  12.327   9.345  13.219  0.0827  0.2931 -0.2846
 5996W        W22070  12.573  11.139  16.264  0.2831  0.1868  0.0703
 5997W        W22071   7.626  10.786   0.533  0.0682  0.1536  0.0048
 5998W        W22072  12.634  11.520  11.919 -0.0840  0.0100  0.0315
 5999W        W22073  16.077   7.299  15.098 -0.0182  0.1927  0.2374
 6000W        W22074   5.025  17.515   0.061  0.2911  0.0694  0.1653
 6001W        W22075  14.329   2.833   1.561 -0.1827  0.1799  0.0937
 6002W        W22076   0.208   4.176  16.107  0.1385  0.0251  0.1582
 6003W        W22077  17.380  17.555  11.699  0.0616 -0.0103  0.0322
 6004W        W22078   9.032  17.441  16.107  0.1455  0.0660  0.1341
 6005W        W22079   0.773   7.802  16.219  0.0242 -0.2270  0.1379
 6006W        W22080  14.032  13.268   2.874 -0.0820  0.1091  0.1049
 6007W        W22081   3.401  10.855   6.232  0.2116  0.4093 -0.0123
 6008W        W22082   8.762  13.264  13.877 -0.0086  0.2538  0.0921
 6009W        W22083   2.622   4.483   1.950  0.3276  0.1664 -0.0177
 6010W        W22084   2.664   0.024  15.411 -0.1072 -0.4324 -0.1307
 6011W        W22085   1.103  12.574   0.966  0.1264  0.4917 -0.2236
 6012W        W22086  16.927   4.967   4.758  0.1109  0.2545  0.2067
 6013W        W22087   4.073   6.056   0.840  0.0751  0.1973 -0.0835
 6014W        W22088  10.333   1.753  13.196  0.0653 -0.0338  0.2602
 6015W        W22089  17.496  12.455  15.896  0.1488  0.0728  0.0693
 6016W        W22090  15.009  18.010   2.624  0.1951  0.0341 -0.1509
 6017W        W22091  17.971   2.055  14.363  0.2859  0.1432 -0.2094
 6018W        W22092   6.981   4.144  11.611 -0.1159  0.0828  0.1613
 6019W        W22093  13.703  17.600  13.220  0.0598  0.2040 -0.0297
 6020W        W22094  14.927   3.916  15.152  0.0912 -0.2322 -0.0329
 6021W        W22095   6.301   4.111   1.515  0.1540  0.0237 -0.0738
 6022W        W22096  17.118  11.950  14.624  0.1856 -0.0092 -0.1931
 6023W        W22097   3.895   0.604   4.782 -0.0742  0.0316 -0.1420
 6024W        W22098  11.169   4.431   0.060  0.3173 -0.1688  0.0074
 6025W        W22099  15.341   6.441  14.086  0.0739 -0.1157 -0.4982
 6026W        W22100  15.303   2.113   1.772 -0.3171  0.0127 -0.0248
 6027W        W22101   1.032  11.030   0.037 -0.1224 -0.0709 -0.3111
 6028W        W22102  13.424   9.049   0.136 -0.5122  0.2556 -0.2630
 6029W        W22103  11.092  11.628   6.374  0.0168  0.1022 -0.0018
 6030W        W22104   0.235  17.760   4.902 -0.3112 -0.2218 -0.0898
 6031W        W22105   3.792  12.469   4.915 -0.0187  0.2020 -0.2964
 6032W        W22106  14.373   0.394   5.668 -0.0634 -0.2606  0.1800
 6033W        W22107  17.623  14.091   0.335 -0.0311 -0.2168 -0.2251
 6034W        W22108  16.798   7.757  14.498  0.1432  0.1378  0.0489
 6035W        W22109  14.118   7.141  15.377 -0.1639 -0.1172  0.0138
 6036W        W22110   9.354   3.670   4.942  0.1709  0.1005  0.0378
 6037W        W22111  17.790   1.116  13.552 -0.0744  0.2664 -0.3427
 6038W        W22112   4.975  14.076   4.125 -0.1457  0.1275  0.0978
 6039W        W22113   6.961  12.171   4.013  0.3044  0.1460  0.3686
 6040W        W22114   6.100   5.274  13.147 -0.1741  0.1815  0.0306
 6041W        W22115   8.884  15.495   0.450 -0.1141 -0.1092  0.2328
 6042W        W22116  16.101  15.015  12.171 -0.0260  0.0157 -0.0013
 6043W        W22117  17.178  10.881  12.584  0.3143  0.3866 -0.0204
 6044W        W22118  12.285   5.991   2.001 -0.1354 -0.2727 -0.1559
 6045W        W22119   8.355  18.057   4.072 -0.1728 -0.1541  0.1557
 6046W        W22120   0.876   7.356   1.414 -0.1673  0.1630 -0.1756
 6047W        W22121  12.726  16.688  15.920 -0.2104 -0.0331 -0.0618
 6048W        W22122   0.342  10.331   2.557 -0.1075  0.0171  0.1310
 6049W        W22123  14.563   6.781  11.407  0.1321 -0.1031 -0.0555
 6050W        W22124   8.609  11.966   0.987  0.0604 -0.1063  0.0599
 6051W        W22125   2.321  17.934   3.756 -0.0975 -0.1791  0.2184
 6052W        W22126  14.706   8.259   0.407 -0.2130  0.0445  0.0236
 6053W        W22127   2.323  11.534   3.414 -0.0757  0.3508  0.1406
 6054W        W22128   4.262  11.146   2.770  0.0973  0.0826  0.0532
 6055W        W22129   2.617  12.909   0.569  0.1314  0.0964 -0.2409
 6056W        W22130   9.627   8.788   5.637 -0.1065 -0.0773  0.0032
 6057W        W22131  14.491  13.185  13.168 -0.0060 -0.3142  0.0218
 6058W        W22132   5.596   4.779  14.283  0.0219  0.1571 -0.1776
 6059W        W22133   5.818   9.241   4.986  0.0231  0.0859  0.0040
 6060W        W22134   2.878   5.199   1.259  0.0864  0.0389  0.2627
 6061W        W22135  10.738   3.577   1.757 -0.0985 -0.2144  0.1723
 6062W        W22136  12.760  11.257  13.621 -0.0027  0.0799 -0.0734
 6063W        W22137  10.531   2.592   2.987 -0.0681 -0.1423 -0.2702
 6064W        W22138   9.645  16.176  13.501 -0.1244 -0.2061 -0.0767
 6065W        W22139  15.972   7.244  14.153 -0.0245 -0.2395 -0.2478
 6066W        W22140   5.258  16.007   0.852  0.1436 -0.2711  0.1996
 6067W        W22141   5.408   8.685  13.270  0.0899  0.0906  0.2844
 6068W        W22142   5.584  16.933  14.841  0.2291  0.0918 -0.1863
 6069W        W22143   5.808  16.644   2.853 -0.2374  0.2790 -0.2038
 6070W        W22144  14.614  17.725  14.300  0.0041  0.0263 -0.1464
 6071W        W22145   2.346  12.567   1.357  0.2778 -0.0000  0.0666
 6072W        W22146  13.023  15.324  14.753 -0.1654 -0.0199  0.0935
 6073W        W22147   8.260  12.708  11.323 -0.0822  0.1110  0.2537
 6074W        W22148  11.911   5.057  15.207  0.0218 -0.2922 -0.0125
 6075W        W22149  12.527  14.590  16.479  0.1262  0.4398 -0.0480
 6076W        W22150  11.127  12.009   0.427 -0.0847  0.1373  0.2370
 6077W        W22151  16.400  13.845  13.078  0.0266  0.0043  0.1591
 6078W        W22152  12.386  11.492   4.343  0.0830  0.0816  0.3402
 6079W        W22153   7.622  16.313  13.329  0.1282  0.1326  0.2880
 6080W        W22154  13.619   5.983  15.065 -0.0552  0.1204  0.2554
 6081W        W22155  14.323   7.624  13.176 -0.1082  0.0252  0.2213
 6082W        W22156  15.457  17.606  12.877  0.1747 -0.2357  0.0367
 6083W        W22157   3.870   3.359   1.439  0.3281  0.0708 -0.1340
 6084W        W22158   1.563   3.583   4.282 -0.1373 -0.0584 -0.0334
 6085W        W22159   9.065   5.331  12.726  0.2525  0.0468  0.2394
 6086W        W22160  15.855  12.952  15.598 -0.0888  0.0278  0.3422
 6087W        W22161   3.424   7.920   0.184 -0.4382 -0.0538 -0.1045
 6088W        W22162  11.142   0.528   1.668 -0.0588  0.2309 -0.0487
 6089W        W22163   8.922  11.280   0.652  0.3096 -0.2735 -0.2071
 6090W        W22164  13.530   3.887  13.236 -0.0964 -0.0615  0.1252
 6091W        W22165   8.655   0.308   0.564  0.0012  0.1950  0.1117
 6092W        W22166   5.422   1.521   3.714  0.1204  0.0482 -0.0512
 6093W        W22167  18.035  11.434   5.059  0.4544  0.2549  0.0615
 6094W        W22168  12.033   3.695  16.109 -0.2914 -0.0007 -0.0601
 6095W        W22169  14.540  14.061  12.372  0.0375  0.2257  0.1000
 6096W        W22170   5.936   9.653   1.248 -0.0572  0.1165 -0.2644
 6097W        W22171  13.796   5.138   5.558  0.0128 -0.0575 -0.1607
 6098W        W22172   8.806  12.145   2.701  0.2687  0.2368  0.0413
 6099W        W22173   7.553  17.233  12.868  0.0419 -0.0941 -0.0497
 6100W        W22174   3.209   5.598   0.487 -0.0944 -0.0147  0.0318
 6101W        W22175  16.011  13.355   2.762  0.2553  0.2174  0.0836
 6102W        W22176   0.997   9.099   0.904 -0.1840  0.1484 -0.0953
 6103W        W22177   3.092  12.313  14.444 -0.0386 -0.3144  0.0877
 6104W        W22178  17.037   9.567   1.446  0.3074 -0.3872  0.2718
 6105W        W22179  11.904   7.970  15.863 -0.2371  0.1153  0.1261
 6106W        W22180   2.579   7.981   4.148  0.2000 -0.1119  0.0908
 6107W        W22181   1.089   1.491   0.976  0.0394  0.4242  0.2611
 6108W        W22182   8.243  17.155  12.029  0.3664 -0.0603  0.0189
 6109W        W22183   7.970   5.109   4.435 -0.0176 -0.2791 -0.0845
 6110W        W22184   3.662   5.366   1.961 -0.1625 -0.1963  0.1766
 6111W        W22185  10.386  14.606  14.414  0.0314 -0.2944 -0.1549
 6112W        W22186   4.075  13.494   0.458 -0.1128  0.0782  0.0621
 6113W        W22187  17.893   4.530  15.504  0.1812  0.3072 -0.0495
 6114W        W22188   0.009   8.943   0.926 -0.1677 -0.0603  0.1676
 6115W        W22189   2.425   3.772   1.280 -0.0089 -0.1748  0.2815
 6116W        W22190   1.082  14.226   0.800  0.0125 -0.0038 -0.3199
 6117W        W22191   4.405  13.564   0.069 -0.0446 -0.1046  0.2346
 6118W        W22192   2.086  16.550  11.237 -0.0109 -0.2277 -0.0274
 6119W        W22193   9.939   3.802   2.468 -0.0013  0.0930 -0.0129
 6120W        W22194  14.384  10.775  13.449  0.1938 -0.0194 -0.2006
 6121W        W22195   0.609   7.791   1.279 -0.0641  0.0685  0.0869
 6122W        W22196  11.164   7.466  13.003  0.1710  0.0446 -0.2534
 6123W        W22197   6.231   7.067   3.557  0.1860  0.0057  0.2143
 6124W        W22198  12.180  12.804  15.738  0.6182 -0.0727  0.0303
 6125W        W22199   8.808  16.350   3.396  0.1652  0.4239 -0.0589
 6126W        W22200   2.753  15.177  14.112  0.1898  0.3065 -0.2082
 6127W        W22201   5.365  13.382  12.710  0.1403 -0.0886 -0.1895
 6128W        W22202   5.967  13.899   2.125 -0.0175  0.2113  0.1479
 6129W        W22203   0.439   5.571  16.227  0.2689 -0.4135 -0.0268
 6130W        W22204   0.958   9.383  15.015  0.1867 -0.0075 -0.0392
 6131W        W22205   5.847   8.686   2.534 -0.0136 -0.0189 -0.1087
 6132W        W22206  17.278  18.108  14.944 -0.0365  0.2202 -0.1563
 6133W        W22207   3.524  17.770   2.216  0.0994  0.0783 -0.0432
 6134W        W22208  14.378   0.261   2.985  0.1700  0.2557 -0.1566
 6135W        W22209  16.155   1.738  12.543  0.2533  0.1900 -0.0305
 6136W        W22210   6.336   3.587  13.264 -0.1846  0.2925 -0.0493
 6137W        W22211  12.223  12.054   5.283  0.1653 -0.1372 -0.0085
 6138W        W22212   3.550   4.958  11.740  0.0816 -0.1379 -0.0031
 6139W        W22213  14.663  17.237  15.255 -0.1283 -0.0119 -0.1382
 6140W        W22214  11.285  10.181   0.107 -0.1257  0.0625 -0.0985
 6141W        W22215  10.542   9.726  16.284  0.2896  0.1954  0.0582
 6142W        W22216  11.093   5.306  13.852 -0.0826  0.2246  0.0853
 6143W        W22217   6.554  11.293  12.362 -0.3633  0.0037 -0.0263
 6144W        W22218   7.890  16.854  12.738  0.1132  0.2593  0.0820
 6145W        W22219   9.359   3.198  15.382 -0.1196  0.3170  0.0180
 6146W        W22220   6.303   0.843   5.532 -0.0424  0.0679  0.3615
 6147W        W22221   3.587  10.519  15.423  0.3498 -0.0275  0.1138
 6148W        W22222  12.853   1.703   2.065  0.1723  0.2524  0.2333
 6149W        W22223  11.151  11.521   1.024 -0.1443 -0.1393  0.0310
 6150W        W22224  11.010   4.752  14.993 -0.0964  0.1825 -0.1596
 6151W        W22225   5.633   8.031   0.082 -0.0750  0.0187 -0.1429
 6152W        W22226  10.979  14.974   5.120 -0.0223  0.1066 -0.1039
 6153W        W22227   4.569  17.582   0.447  0.2229  0.1244 -0.0676
 6154W        W22228   8.048   2.636  15.490  0.2252 -0.1955  0.0539
 6155W        W22229   2.423   0.506  15.710  0.2832 -0.0473 -0.3516
 6156W        W22230  13.064  14.195  15.129  0.0959  0.0033  0.2348
 6157W        W22231  17.410   7.176  13.652  0.0629  0.2015  0.0839
 6158W        W22232  13.891  14.046   1.492  0.1035 -0.1911 -0.2417
 6159W        W22233   3.927   8.456   3.914 -0.0895 -0.3218 -0.1879
 6160W        W22234   8.924   9.890  12.429  0.0007  0.0322  0.2172
 6161W        W22235   3.580  10.343   6.222 -0.0541 -0.0629  0.0707
 6162W        W22236   2.371   4.723   2.389 -0.2255 -0.1947 -0.0859
 6163W        W22237   4.265  16.798  14.900  0.0294  0.3268  0.2357
 6164W        W22238   2.059  13.104  14.866  0.0579  0.1084  0.0585
 6165W        W22239  17.732  10.213   1.780  0.2014 -0.0012 -0.0307
 6166W        W22240  15.674  12.255  14.874 -0.1101  0.2353 -0.2304
 6167W        W22241  14.717  16.534   0.469 -0.2542  0.1009  0.0881
 6168W        W22242  11.554   2.196  14.597 -0.3112 -0.0757  0.0005
 6169W        W22243   6.631  10.074  11.698  0.0594  0.2326 -0.2154
 6170W        W22244   4.499   7.897   4.885  0.2401  0.1430 -0.1009
 6171W        W22245   6.905   8.613   3.165  0.3541  0.1856 -0.1345
 6172W        W22246   9.554   1.821  14.316 -0.0097  0.3107  0.0228
 6173W        W22247  16.245   5.474   3.407  0.2241 -0.2277 -0.1301
 6174W        W22248   7.445  10.749   3.952 -0.0084 -0.1501  0.0841
 6175W        W22249   9.173  15.563   5.470  0.2325  0.0494 -0.0946
 6176W        W22250  15.286  16.944  11.642  0.2989 -0.3846  0.1417
 6177W        W22251   3.933   8.949  13.058 -0.0327 -0.1063  0.1210
 6178W        W22252  11.455   0.968   3.654  0.1363  0.1359 -0.1195
 6179W        W22253  10.368  10.854  13.834  0.0923  0.3698 -0.0914
 6180W        W22254   5.862   7.169  11.830  0.1464 -0.1968  0.1761
 6181W        W22255   4.628  12.405   5.511  0.0942 -0.0575  0.0585
 6182W        W22256   4.792   8.132  16.170 -0.2068  0.1790 -0.1319
 6183W        W22257  13.365   4.018  12.768 -0.2097  0.1161 -0.2229
 6184W        W22258   4.468   8.680  13.149 -0.2158 -0.0644  0.2183
 6185W        W22259   6.034   3.495  14.242 -0.2416 -0.0588 -0.1002
 6186W        W22260   0.553  10.790  14.242  0.2567 -0.0220 -0.0943
 6187W        W22261   6.148   2.988  15.578  0.0567  0.0281  0.0922
 6188W        W22262  11.843  15.200   0.476  0.0956  0.0320  0.1316
 6189W        W22263  12.097   2.668  13.681  0.2430 -0.3594 -0.0894
 6190W        W22264   4.931  15.988  11.695  0.2386  0.1686 -0.2520
 6191W        W22265  11.371  17.013   2.631  0.1288  0.3180  0.4219
 6192W        W22266  17.967   1.229  11.294 -0.0009 -0.0224 -0.0850
 6193W        W22267  17.809   2.051   1.511  0.1203 -0.1204 -0.0376
 6194W        W22268   2.451   7.855  14.561  0.0412  0.2011  0.0368
 6195W        W22269  12.928   4.568  14.145 -0.2621  0.2356 -0.1138
 6196W        W22270  14.066   6.870   2.817 -0.2544  0.2052 -0.1341
 6197W        W22271  14.563   2.209   0.216  0.1560 -0.0068  0.1072
 6198W        W22272  11.984  14.329  14.406 -0.2646  0.2985  0.1205
 6199W        W22273   3.976   0.904  11.663  0.0638 -0.2323 -0.1846
 6200W        W22274  17.525   4.838   3.292 -0.2674  0.1652 -0.1006
 6201W        W22275  14.869   3.030   2.627 -0.0533  0.1969  0.0267
 6202W        W22276   2.692   8.507  15.596 -0.3487 -0.1029 -0.0468
 6203W        W22277  13.443  11.761  12.405 -0.2291 -0.2933  0.1168
 6204W        W22278  13.132   8.629  15.873 -0.1378 -0.0725 -0.0412
 6205W        W22279  17.023  11.443   2.121 -0.1420 -0.1183  0.1394
 6206W        W22280  14.998  10.212   2.115  0.1532  0.0686  0.2174
 6207W        W22281   4.349   8.201  11.255  0.4127 -0.1423  0.1155
 6208W        W22282  18.129  14.249   4.975 -0.3216 -0.1359  0.3616
 6209W        W22283   4.125  10.445  15.413 -0.2663  0.1803  0.2203
 6210W        W22284  13.480   1.612  16.291 -0.0058  0.0499  0.0647
 6211W        W22285   8.173   4.278   1.002 -0.0443 -0.0656 -0.1352
 6212W        W22286   7.678  17.221   1.384  0.0605  0.0807 -0.0739
 6213W        W22287   2.793   7.600  15.399 -0.3272 -0.2656 -0.0136
 6214W        W22288  10.506  13.289  13.848 -0.2565 -0.4602 -0.3709
 6215W        W22289   9.439  14.578   5.226 -0.2472  0.1746  0.0380
 6216W        W22290  17.174   6.589   2.775  0.0794 -0.3746 -0.1583
 6217W        W22291   7.039  17.125   0.426 -0.1202  0.2149 -0.0217
 6218W        W22292   8.970  15.336  11.706  0.1124  0.2217 -0.0761
 6219W        W22293   5.010   0.458  15.256 -0.0247 -0.0728 -0.0236
 6220W        W22294  14.274   1.121   4.302  0.2171  0.0488  0.3746
 6221W        W22295  10.283   9.148   0.367  0.0067  0.0929 -0.1372
 6222W        W22296   3.619  17.815   0.576 -0.0871 -0.3806  0.2391
 6223W        W22297   1.283   7.324  12.501  0.1461  0.1006  0.1429
 6224W        W22298   0.285  16.473  11.917 -0.0243 -0.1627  0.2030
 6225W        W22299   1.873   4.069  14.893  0.0724 -0.0519  0.1480
 6226W        W22300  17.984   7.130  11.463  0.1781  0.1866  0.0398
 6227W        W22301   1.912  12.916  16.290 -0.1411 -0.0290 -0.3292
 6228W        W22302   7.463  17.813  12.774 -0.2307  0.0913 -0.1742
 6229W        W22303   0.240   3.183  15.474  0.1398 -0.0314 -0.0790
 6230W        W22304  17.024  13.221   4.825 -0.0489 -0.1123  0.0424
 6231W        W22305  15.903   4.696  13.853 -0.2131  0.0525 -0.0591
 6232W        W22306   6.839   8.894  15.290  0.0469  0.0492 -0.0453
 6233W        W22307   9.037   0.283   2.966 -0.0255 -0.3258 -0.1610
 6234W        W22308   6.579   2.401  12.095  0.0472  0.3464  0.2802
 6235W        W22309   7.241  12.326   4.380  0.1359 -0.1747  0.0219
 6236W        W22310   2.816  17.408  12.974 -0.0998 -0.0094  0.0053
 6237W        W22311   7.594  17.648   4.620 -0.1618 -0.2866 -0.1494
 6238W        W22312   4.984  17.388  12.974  0.0205 -0.1931 -0.1648
 6239W        W22313   0.650  13.817  16.290  0.3600  0.0830 -0.1917
 6240W        W22314  16.717  16.869   5.216 -0.0228 -0.0110  0.0370
 6241W        W22315  12.378   8.181   2.143 -0.0458  0.0093  0.2303
 6242W        W22316   7.832  14.419   4.574  0.1626 -0.0339 -0.1924
 6243W        W22317  17.548   6.220  13.690  0.0693  0.1295  0.0591
 6244W        W22318  13.268   3.267   4.030  0.0399  0.2594 -0.3610
 6245W        W22319  12.809   8.303  13.658  0.1879  0.1651  0.2302
 6246W        W22320  13.471   4.650  16.285 -0.0687 -0.1771  0.0568
 6247W        W22321   2.855   7.676  13.602  0.0244 -0.0124 -0.0051
 6248W        W22322  15.883   8.573  11.757 -0.0802  0.3283 -0.3686
 6249W        W22323   5.634  15.065  12.305  0.3515  0.2890 -0.2901
 6250W        W22324  12.213  12.694  13.424  0.0358  0.1120  0.1478
 6251W        W22325   0.343   1.793   4.960  0.0681 -0.1182  0.1944
 6252W        W22326   2.317  10.727  12.043  0.0982 -0.0367 -0.1821
 6253W        W22327   8.608  15.416   0.049  0.0123 -0.2636  0.0767
 6254W        W22328  11.451   3.277  12.280 -0.0851  0.0323 -0.0110
 6255W        W22329   6.819   3.511   2.860 -0.0265 -0.1262  0.1301
 6256W        W22330  11.784   0.133   5.344 -0.3140  0.1094 -0.0186
 6257W        W22331  15.406   1.983   2.700 -0.0292  0.3782 -0.1152
 6258W        W22332   5.935  11.996   3.538 -0.3975 -0.1818 -0.0502
 6259W        W22333   4.361  17.105   4.451  0.0285  0.2712 -0.0265
 6260W        W22334   4.277   3.499   3.545 -0.2287  0.3230  0.1322
 6261W        W22335   4.488   9.446   1.503 -0.0344 -0.1252 -0.0345
 6262W        W22336   5.039   0.773   4.541  0.1840  0.1088 -0.0073
 6263W        W22337   7.138   5.854  15.677  0.0791  0.0885  0.0039
 6264W        W22338   5.677  10.048  12.184 -0.1833  0.3192  0.1487
 6265W        W22339   3.056   8.656   2.267  0.0288  0.2354  0.1293
 6266W        W22340   9.333   4.975  14.038 -0.0505  0.2167 -0.0240
 6267W        W22341   0.006  12.953  13.168 -0.3834  0.1468  0.1465
 6268W        W22342  13.122  12.134  14.772 -0.0859 -0.1272  0.0267
 6269W        W22343  16.334  13.008  11.678 -0.2307 -0.0861 -0.1482
 6270W        W22344   6.662  13.286   0.685 -0.2710 -0.2058  0.1344
 6271W        W22345  10.555   3.352  14.308 -0.1766 -0.1766 -0.0818
 6272W        W22346  17.866   6.006   2.784  0.1438  0.6504 -0.0672
 6273W        W22347   1.958  12.862   5.579  0.1332  0.0476 -0.1501
 6274W        W22348  15.405   1.805  15.831  0.1903 -0.0484 -0.0538
 6275W        W22349  16.980   8.686  12.814 -0.2170 -0.0228  0.1588
 6276W        W22350   3.011   3.342  11.697  0.2384  0.0669 -0.1892
 6277W        W22351   6.004  10.976  15.421 -0.2908  0.3039  0.0186
 6278W        W22352  17.017   6.967  15.467 -0.0629 -0.0849 -0.0282
 6279W        W22353   3.006   8.011   1.190 -0.2586 -0.0041  0.1201
 6280W        W22354   7.984  15.313   0.846  0.0617  0.2612  0.1308
 6281W        W22355   9.286   2.573   2.296  0.1878 -0.0987  0.3267
 6282W        W22356  12.194   6.488  15.853  0.1549  0.0262  0.0584
 6283W        W22357   4.446  13.451  16.093  0.0805  0.0599  0.3017
 6284W        W22358   2.889   8.810   4.697  0.0677 -0.2949  0.1731
 6285W        W22359   0.471   4.287   5.285  0.0463 -0.0571 -0.1344
 6286W        W22360  14.273  14.176   0.639  0.0131  0.3504 -0.3321
 6287W        W22361   9.209  17.444  14.576  0.2623  0.3562 -0.5680
 6288W        W22362   9.465  11.178  14.795 -0.1117 -0.4616 -0.0782
 6289W        W22363  10.900  15.144   3.826  0.3514 -0.2227  0.2816
 6290W        W22364  10.587   4.940  12.712 -0.2175  0.0859 -0.0784
 6291W        W22365   9.921  12.656  13.503  0.0075 -0.1779  0.0624
 6292W        W22366  14.521   7.012  10.598  0.1022  0.2080  0.0304
 6293W        W22367  17.441   6.257   0.795  0.0971 -0.2070 -0.1491
 6294W        W22368  12.717  10.209   3.523 -0.1424  0.0430 -0.1935
 6295W        W22369  10.388   7.381   2.227  0.0465  0.2274  0.0442
 6296W        W22370   1.552  15.860   3.462  0.2244  0.1757  0.1779
 6297W        W22371   1.479  17.055  11.752 -0.0998 -0.1987 -0.2731
 6298W        W22372   7.359   1.122   2.959  0.0647 -0.0997 -0.1218
 6299W        W22373   4.279  10.575   0.915 -0.0792  0.2252 -0.0194
 6300W        W22374  16.064  13.911  11.381  0.0433  0.0972 -0.3417
 6301W        W22375  16.096  10.266   3.210  0.2539  0.1554 -0.2073
 6302W        W22376  11.772   8.190  16.428 -0.1407 -0.3361 -0.4062
 6303W        W22377  12.387  16.956  12.882 -0.1053  0.0899 -0.0291
 6304W        W22378   5.681  13.444   4.061 -0.1735  0.3365 -0.0343
 6305W        W22379   5.219   7.675  13.261  0.1945  0.3175  0.1702
 6306W        W22380  13.047   7.502   6.157 -0.3233  0.0531  0.1100
 6307W        W22381  14.551   6.388  11.901  0.1154 -0.0571 -0.0943
 6308W        W22382   4.576  13.288   3.862  0.2544 -0.0105  0.3276
 6309W        W22383  12.162  14.146   3.941 -0.0764 -0.0135 -0.1124
 6310W        W22384   6.525   2.586   5.811  0.3597 -0.2387 -0.4089
 6311W        W22385   1.095   1.319   3.455 -0.1810 -0.3144 -0.0704
 6312W        W22386   1.370   8.076   0.818  0.1706 -0.3621 -0.0977
 6313W        W22387  12.782   2.062  11.572 -0.0779  0.2098  0.1880
 6314W        W22388  16.083   4.309  13.123  0.2692 -0.3867  0.2359
 6315W        W22389   1.798   6.861  10.169 -0.1062  0.1108  0.4473
 6316W        W22390   0.779   3.360  12.317 -0.3001  0.0709 -0.0403
 6317W        W22391   4.722  10.748  13.215 -0.0268 -0.1290  0.2275
 6318W        W22392   4.927  10.035  11.481 -0.2138  0.2619 -0.0493
 6319W        W22393  17.037  10.094  14.739 -0.0326 -0.1706 -0.0423
 6320W        W22394  17.907   8.729  10.921 -0.1271 -0.2951  0.1089
 6321W        W22395   5.639  10.388   4.566  0.0904 -0.3749 -0.2596
 6322W        W22396  18.117  16.943   1.741 -0.1354  0.0944 -0.2625
 6323W        W22397  10.537   9.134   3.933 -0.1499  0.0788  0.0111
 6324W        W22398  16.575  17.473   4.482 -0.0869  0.1993  0.4103
 6325W        W22399  15.283  17.688   5.337 -0.1238  0.0476  0.0531
 6326W        W22400  15.533  16.882   0.560 -0.0629 -0.1272 -0.0980
 6327W        W22401   8.494  13.094  11.592  0.0816 -0.1939  0.1715
 6328W        W22402   1.362   2.521   2.943 -0.1048  0.1318 -0.1496
 6329W        W22403  17.551  13.701   5.918  0.0356 -0.1307  0.1070
 6330W        W22404  17.141   8.088  14.607  0.0274  0.2401 -0.1190
 6331W        W22405   4.758  16.980   3.224  0.0052 -0.0829 -0.2554
 6332W        W22406  12.973  16.641   1.996 -0.4427  0.2100  0.0908
 6333W        W22407  10.722  16.841   0.520 -0.0526 -0.0533  0.2330
 6334W        W22408  17.677   0.070  13.788  0.2469 -0.0083 -0.1919
 6335W        W22409  11.792   1.359  14.868 -0.0681  0.2903  0.0072
 6336W        W22410   7.000   3.538   5.072 -0.2993 -0.1003  0.5593
 6337W        W22411   7.218  17.077   6.093 -0.1735  0.1355 -0.0430
 6338W        W22412  12.437   3.508  16.478 -0.0793  0.1864  0.1245
 6339W        W22413  17.645   4.955   1.551 -0.0231 -0.0217 -0.3067
 6340W        W22414   7.783  15.793   4.330  0.1776  0.0021 -0.1111
 6341W        W22415  14.257  10.851  14.530  0.1871 -0.0141  0.2898
 6342W        W22416   1.786  15.319   5.160 -0.0411  0.1737 -0.0633
 6343W        W22417   2.827   8.282  11.665  0.0866 -0.2444  0.2906
 6344W        W22418   5.167  12.477  14.997  0.0694  0.1641  0.3020
 6345W        W22419   1.131  10.265  15.404 -0.0817  0.2940  0.0952
 6346W        W22420   6.873  16.059   1.294  0.0017 -0.4214 -0.1927
 6347W        W22421   4.726   0.294   5.678 -0.0560  0.0572 -0.3200
 6348W        W22422   1.832   4.835  12.732  0.1670 -0.0431  0.0284
 6349W        W22423   1.818   8.614  11.021  0.1940  0.3927  0.2340
 6350W        W22424   4.773   0.015   6.260 -0.3180  0.1135  0.2127
 6351W        W22425   0.109   4.190   6.068 -0.1117  0.0516 -0.0797
 6352W        W22426   9.655  12.208  13.719  0.2774 -0.0672  0.1054
 6353W        W22427   1.718   5.775  11.553 -0.0531  0.0801  0.1232
 6354W        W22428  12.749   3.520  13.241 -0.0833  0.0328 -0.2543
 6355W        W22429  13.681   5.919   3.732 -0.0097  0.2570  0.0303
 6356W        W22430   8.273   6.215  14.893 -0.0208 -0.1128  0.1915
 6357W        W22431  17.639   2.752   3.645  0.0808 -0.1890 -0.0871
 6358W        W22432  13.605  17.929   1.035 -0.1061 -0.0621  0.3595
 6359W        W22433  17.532  12.643   4.495  0.1033 -0.1060 -0.0298
 6360W        W22434   0.448   7.633  13.095 -0.1343  0.2888 -0.0923
 6361W        W22435   0.331  13.618  12.087  0.2167  0.3046 -0.1271
 6362W        W22436   2.050  16.862   0.588 -0.1248 -0.0106  0.0854
 6363W        W22437   7.460   7.695  12.592 -0.0380 -0.1944  0.0291
 6364W        W22438  16.288   0.752  14.653  0.0963 -0.0957  0.1807
 6365W        W22439  12.869  14.702   3.844 -0.0066 -0.1486  0.1482
 6366W        W22440   1.624  16.443  15.365 -0.1371  0.0034  0.2746
 6367W        W22441  12.930  13.639  16.023 -0.0624  0.0136 -0.0386
 6368W        W22442  18.041   3.054   3.689 -0.0413 -0.3522 -0.0592
 6369W        W22443  11.264  12.256  15.421 -0.1078 -0.1777  0.0770
 6370W        W22444   0.977  16.724  16.410  0.2173  0.2385  0.1607
 6371W        W22445  17.183   1.868  13.088  0.2212  0.0301  0.1452
 6372W        W22446   3.984   0.312  13.880  0.2196  0.0973  0.0942
 6373W        W22447  10.943  10.158  11.363 -0.1575  0.2389  0.1922
 6374W        W22448  12.662  12.937   0.979 -0.0502  0.0699 -0.0180
 6375W        W22449   3.042  16.808   4.892  0.1198  0.0034 -0.4530
 6376W        W22450  15.729  15.484  16.283  0.2811  0.0545  0.2355
 6377W        W22451  14.383   3.809   6.369 -0.1064  0.3192 -0.0154
 6378W        W22452   3.692   8.376   4.428  0.3695 -0.0618  0.1465
 6379W        W22453  13.244   4.271   0.865  0.3797  0.0019 -0.1509
 6380W        W22454   9.834  11.216  12.642 -0.1471  0.0098 -0.3224
 6381W        W22455  15.634   7.767   0.423 -0.0157  0.0759 -0.1787
 6382W        W22456   7.109  17.827   3.139  0.1923  0.1095  0.1002
 6383W        W22457  15.247  16.277  12.614 -0.1899  0.2911 -0.1458
 6384W        W22458   3.460   1.020   2.396 -0.0575  0.0468  0.0341
 6385W        W22459  11.679  17.668   1.407  0.4836 -0.1285 -0.1437
 6386W        W22460   9.882   6.157   3.698  0.1988  0.0153  0.0342
 6387W        W22461   4.164  16.652   1.084 -0.2903 -0.4911  0.2405
 6388W        W22462   3.764  10.999   3.283  0.2006 -0.2088 -0.1038
 6389W        W22463   3.543  14.269   0.687  0.0948  0.0791 -0.2531
 6390W        W22464  16.910   1.759  12.056 -0.2660  0.2436  0.1309
 6391W        W22465  16.896   2.056   0.612 -0.0955 -0.0871 -0.3651
 6392W        W22466   5.335   7.583   0.712  0.0450 -0.2607  0.1126
 6393W        W22467  11.420   5.360  14.696  0.0003  0.1109 -0.0076
 6394W        W22468  17.456   9.495  16.458 -0.0696  0.2135 -0.1178
 6395W        W22469  15.348   1.280  11.525 -0.0794  0.0191  0.1343
 6396W        W22470   7.703   9.958   5.544  0.1888  0.0503 -0.1943
 6397W        W22471  11.593   2.612  13.980  0.0288  0.1615 -0.0934
 6398W        W22472  13.206  14.615   4.770 -0.2270  0.4558 -0.1388
 6399W        W22473   9.087   6.276  14.948 -0.0180  0.0137  0.0210
 6400W        W22474  11.996   1.354   4.241  0.2247 -0.0604  0.0885
 6401W        W22475   8.458   8.907   3.142 -0.0036 -0.4948  0.3342
 6402W        W22476  10.323   7.569  13.763 -0.0943  0.3248  0.1834
 6403W        W22477   2.369   2.434   1.638 -0.0261  0.3410 -0.1181
 6404W        W22478   3.730  12.995   5.900 -0.0429 -0.3025 -0.1196
 6405W        W22479   3.339  14.105   3.059 -0.0403 -0.2427  0.2584
 6406W        W22480  11.593  15.641   4.037  0.0279  0.0234 -0.1405
 6407W        W22481  18.028  10.078  11.254  0.0845  0.1937 -0.0778
 6408W        W22482   4.377  12.100   3.226  0.2296 -0.0625 -0.0278
 6409W        W22483  12.572   5.928   5.618  0.1359 -0.0348 -0.0503
 6410W        W22484   0.319  13.039  15.838 -0.2842 -0.1456  0.0929
 6411W        W22485  11.928   5.066  14.388  0.3285  0.1186  0.0093
 6412W        W22486  16.051  17.516  14.572  0.1890  0.1068  0.0123
 6413W        W22487   9.827  16.803   2.045  0.2402  0.0590 -0.1850
 6414W        W22488   2.802   1.458   5.482  0.2627 -0.2182  0.0309
 6415W        W22489   5.850  17.241  13.557  0.0451  0.4121  0.1033
 6416W        W22490  10.902  17.945   5.828  0.0942 -0.2703  0.0710
 6417W        W22491   6.016   0.010   5.116 -0.2121 -0.4283 -0.0135
 6418W        W22492   8.132   5.987  15.890  0.1436 -0.1602 -0.0249
 6419W        W22493   2.829  11.429  14.768 -0.4878 -0.0763  0.2115
 6420W        W22494  12.006  15.427  14.680 -0.1847  0.1420 -0.1045
 6421W        W22495   0.531   6.434   1.317  0.1816  0.1189  0.1413
 6422W        W22496  14.640   5.185  16.175  0.0295 -0.2008 -0.3490
 6423W        W22497  17.778   9.499   3.672 -0.1099  0.3355 -0.0785
 6424W        W22498   2.792   5.493   0.198 -0.0355  0.0214 -0.2539
 6425W        W22499  17.452  11.405   4.401  0.3352  0.0348  0.2841
 6426W        W22500   8.501   7.664  15.215  0.0670 -0.0349 -0.0994
 6427W        W22501  17.779  10.683  14.390  0.1894 -0.0846  0.0685
 6428W        W22502   8.851   0.367   2.166  0.3363 -0.0641  0.2354
 6429W        W22503  16.368   7.068   4.827  0.0866 -0.0248 -0.1008
 6430W        W22504  15.694   5.319  13.203 -0.0174  0.1034 -0.0421
 6431W        W22505  14.994   5.114  12.777 -0.0473  0.3638  0.0485
 6432W        W22506  12.561  14.640   1.505 -0.1632  0.4331 -0.0794
 6433W        W22507   6.789  17.036   0.894  0.1070  0.0917  0.0855
 6434W        W22508   8.745  16.897   2.326 -0.4081 -0.0045  0.0916
 6435W        W22509   5.626   5.770  15.495 -0.0355 -0.3384 -0.2034
 6436W        W22510   3.486  17.301   4.904 -0.0562 -0.0059 -0.2390
 6437W        W22511   7.190  12.455  12.230  0.1581 -0.3569  0.1446
 6438W        W22512   5.509   9.292   1.061 -0.1687 -0.0674  0.0155
 6439W        W22513   6.481  13.342  16.487  0.1372 -0.3333 -0.3312
 6440W        W22514   5.344   6.237   4.149  0.2798 -0.0203  0.0736
 6441W        W22515  14.975   3.314   0.795 -0.1549  0.1115 -0.2500
 6442W        W22516   4.253  12.529  16.353  0.1117 -0.1642  0.0389
 6443W        W22517  11.607   6.360  13.094 -0.3611 -0.1175 -0.0142
 6444W        W22518  16.995  16.504  15.291  0.1699  0.0578 -0.1076
 6445W        W22519  17.634  15.683   4.107 -0.0638  0.0305  0.3091
 6446W        W22520   9.703  14.441   6.583  0.0382 -0.1327 -0.1271
 6447W        W22521   0.901  13.026   2.138 -0.4383 -0.0168  0.0383
 6448W        W22522   8.867  12.560  14.268 -0.3146 -0.0795 -0.1890
 6449W        W22523   2.329   0.032   2.317 -0.0520  0.3615  0.1334
 6450W        W22524  11.706   0.539   3.806 -0.0204  0.0587 -0.1276
 6451W        W22525   8.455  17.770  15.148 -0.3583 -0.1771  0.1967
 6452W        W22526  14.897  11.119   0.220 -0.0164  0.1555 -0.1108
 6453W        W22527  17.935  11.498  12.576  0.0613 -0.2719  0.1577
 6454W        W22528  13.542  12.920  15.390  0.0257 -0.2293  0.2333
 6455W        W22529   9.306   1.589   2.636  0.0657 -0.2076 -0.4331
 6456W        W22530   4.146   8.115  15.596 -0.1277  0.1225  0.2775
 6457W        W22531   0.671   0.346  12.175 -0.1037 -0.1867 -0.1689
 6458W        W22532  12.565   1.881   2.966 -0.1161 -0.1856 -0.0474
 6459W        W22533  13.991  14.799  12.033  0.1256  0.2627  0.2255
 6460W        W22534   0.646  14.665  15.929  0.1814  0.0869  0.2543
 6461W        W22535   9.343   5.236   1.287 -0.1929 -0.0339 -0.2434
 6462W        W22536   3.579   9.601   4.438  0.0244 -0.2123  0.0439
 6463W        W22537  18.089  18.199  12.735 -0.2376 -0.4722 -0.3268
 6464W        W22538   2.288   5.389   4.492  0.0504  0.0821 -0.4157
 6465W        W22539  11.919   0.833  11.565  0.1105  0.1354  0.0244
 6466W        W22540  12.841  13.466   1.485 -0.2234  0.0365 -0.1586
 6467W        W22541   3.909  15.546  13.493  0.2869  0.2772 -0.3215
 6468W        W22542   1.118  12.659  12.354 -0.0562 -0.0224 -0.4550
 6469W        W22543   1.167   8.341   0.439 -0.3098  0.0586 -0.0965
 6470W        W22544  14.084  13.076   1.892  0.2264  0.0322 -0.0933
 6471W        W22545  17.266  12.550   3.442 -0.0522  0.2706 -0.1640
 6472W        W22546  16.668  11.146  11.506  0.1558 -0.1846 -0.0522
 6473W        W22547   8.651  11.868   1.926 -0.2755 -0.2210 -0.4025
 6474W        W22548   8.533   9.947   3.960 -0.1037  0.3576  0.1267
 6475W        W22549   7.205   3.112   5.565  0.0642  0.1529  0.1025
 6476W        W22550  16.078  11.008  11.771 -0.1885  0.2310 -0.0299
 6477W        W22551  13.875  12.148   1.088 -0.3742  0.0741 -0.2770
 6478W        W22552   0.881   2.242  11.743  0.3112  0.1587  0.0886
 6479W        W22553   9.494   0.739   0.837  0.0229 -0.1120 -0.3618
 6480W        W22554  10.660  16.189   4.067 -0.0650 -0.1056 -0.0914
 6481W        W22555   5.477  17.331   0.397 -0.3035  0.1873 -0.2057
 6482W        W22556   6.873   1.250   0.986  0.1591  0.0034  0.1165
 6483W        W22557  10.482  10.730   5.456  0.0844 -0.2218 -0.1332
 6484W        W22558  17.719   4.940  11.764 -0.5325 -0.2376 -0.0049
 6485W        W22559   6.848  16.860   3.050 -0.0525  0.2048  0.3115
 6486W        W22560  13.121  16.313   2.305  0.0712  0.1512  0.2585
 6487W        W22561   8.636  15.220   5.942  0.0196 -0.0369  0.0215
 6488W        W22562   6.558   1.777   3.777 -0.0337  0.2359  0.0176
 6489W        W22563  18.025   1.365   2.546 -0.1442 -0.2991 -0.2070
 6490W        W22564  10.862   7.663   0.931  0.0622  0.1878  0.1537
 6491W        W22565  16.817  17.593  11.351  0.1833  0.2090 -0.1264
 6492W        W22566  10.957   3.454  13.055  0.2295 -0.1437 -0.3282
 6493W        W22567  14.133  13.975   2.912  0.0309  0.0525 -0.0477
 6494W        W22568  13.125   2.193  12.748  0.2900 -0.0215 -0.3255
 6495W        W22569  15.510  17.509  15.557  0.1395 -0.1107 -0.0920
 6496W        W22570   1.006   0.030   1.866  0.0824  0.2016 -0.0011
 6497W        W22571  14.284  11.786   1.168  0.1034 -0.0619  0.2087
 6498W        W22572   9.069  12.455  12.335  0.2006  0.0637  0.0821
 6499W        W22573  15.330   1.972   1.173  0.1663  0.0858 -0.2040
 6500W        W22574   6.419   5.950   0.895  0.0253  0.1417  0.1839
 6501W        W22575   4.884   8.911  12.931  0.1564 -0.0979  0.0728
 6502W        W22576   8.436   2.663   4.648  0.2795  0.0137  0.1846
 6503W        W22577   4.639  17.930  12.940 -0.1449  0.0357  0.2062
 6504W        W22578   5.157  16.976  13.973 -0.0909  0.2159 -0.2103
 6505W        W22579   9.283  10.313  12.776  0.0940 -0.0599  0.0320
 6506W        W22580  13.433  14.718   2.643 -0.1867  0.0680  0.1612
 6507W        W22581  18.168   6.152  12.404 -0.0681  0.1550  0.2682
 6508W        W22582  17.114   0.477   1.116  0.2131 -0.0426 -0.1263
 6509W        W22583   4.138   9.313   2.624  0.0406  0.1678  0.1590
 6510W        W22584  13.603   7.335  15.145 -0.1280  0.1222  0.1118
 6511W        W22585  11.733   2.938   4.075  0.0331  0.0711  0.3445
 6512W        W22586   6.093   0.247   1.576 -0.1173 -0.1853  0.2973
 6513W        W22587   9.474   8.274  12.924  0.1933 -0.0610  0.2368
 6514W        W22588   8.722  13.496  14.806  0.0223 -0.1234  0.1210
 6515W        W22589   2.876   0.378   3.640 -0.1990 -0.0707  0.1101
 6516W        W22590  12.499  15.943   1.004 -0.0926  0.0896 -0.0607
 6517W        W22591  16.224  13.788   0.415 -0.0889 -0.1283 -0.3019
 6518W        W22592   8.585  17.080  15.465  0.1473  0.2619  0.2294
 6519W        W22593  12.735   8.873  11.393 -0.3227  0.1897 -0.1713
 6520W        W22594  14.010   0.590   0.528  0.1094  0.1733 -0.0430
 6521W        W22595  12.550  14.002   5.042  0.0790 -0.0477  0.0918
 6522W        W22596  11.829   3.044  13.909 -0.5202  0.0944  0.2145
 6523W        W22597   5.501  18.195  13.284  0.1291 -0.2855  0.2261
 6524W        W22598  14.374   0.636   3.397  0.0624 -0.3293 -0.1566
 6525W        W22599   0.636   0.227  13.934 -0.0636  0.2614  0.0466
 6526W        W22600   7.361  11.802   3.427 -0.1282 -0.1145 -0.1857
 6527W        W22601   8.336   4.523  13.333  0.0492  0.0551  0.0388
 6528W        W22602  10.533   6.810  12.648 -0.2759  0.0352 -0.1790
 6529W        W22603  17.919   7.306  10.081 -0.1637 -0.2912 -0.2352
 6530W        W22604   0.606  13.254   2.540  0.1438  0.0752  0.4185
 6531W        W22605   8.105  14.977  13.296 -0.1560 -0.1042 -0.1933
 6532W        W22606   7.258   2.681   2.428  0.0745 -0.0859 -0.1249
 6533W        W22607   8.539   1.143   0.538  0.0090 -0.0507  0.0832
 6534W        W22608  12.645  12.727  14.217 -0.1936 -0.2518  0.3010
 6535W        W22609   4.017   6.596  12.715 -0.1669  0.0572 -0.0076
 6536W        W22610  18.153   4.590  14.392 -0.2999 -0.1036 -0.1001
 6537W        W22611   0.365  12.295   1.357  0.3942  0.2763  0.1365
 6538W        W22612   7.464   3.336   1.593  0.0341  0.0855 -0.0527
 6539W        W22613   3.803   4.329   1.418  0.1496  0.1418  0.1251
 6540W        W22614   2.297   8.094  15.745 -0.0285 -0.4057  0.1491
 6541W        W22615  15.803  15.998  16.246  0.0738 -0.1357 -0.1011
 6542W        W22616   0.658   2.138   0.417 -0.1098 -0.2637 -0.0881
 6543W        W22617  11.161  11.807   1.436 -0.1732 -0.0700  0.0678
 6544W        W22618  16.225  16.102   5.240  0.0452  0.0042  0.0112
 6545W        W22619  17.909   1.802   4.215 -0.0722 -0.1943 -0.2652
 6546W        W22620  16.599  17.108   3.325 -0.1963  0.0238  0.1288
 6547W        W22621  14.217   4.445  14.386  0.0264 -0.1332  0.3026
 6548W        W22622   1.524  11.178  11.144 -0.2673  0.3269 -0.2720
 6549W        W22623  12.969   6.595  14.748 -0.3909 -0.0711  0.0153
 6550W        W22624  17.853   5.296  14.905  0.0403  0.2247  0.1227
 6551W        W22625  10.512   9.442  12.083  0.0827 -0.3430 -0.1807
 6552W        W22626   7.955   2.572   1.979  0.0039 -0.1164  0.0243
 6553W        W22627  13.863   4.171  12.956 -0.0339  0.0801 -0.1378
 6554W        W22628  10.582   8.838   5.677 -0.4526  0.1597  0.1021
 6555W        W22629   7.121   4.593  11.789 -0.0673 -0.0913 -0.0102
 6556W        W22630   4.527   0.911   4.664  0.1469 -0.0511  0.1556
 6557W        W22631   5.477  17.588   1.514 -0.1950  0.1371  0.0935
 6558W        W22632  11.104  13.497   5.146  0.0836 -0.0650 -0.1688
 6559W        W22633  10.214   7.457  11.527 -0.0761  0.0776  0.0088
 6560W        W22634   2.151   4.352   2.062 -0.0581  0.0936  0.2456
 6561W        W22635  16.454  11.639  13.309 -0.0121 -0.1808 -0.1346
 6562W        W22636   7.530  12.033   0.452  0.2727 -0.3082  0.0415
 6563W        W22637  13.230  17.524  16.047  0.1763 -0.0775  0.2114
 6564W        W22638   2.539   5.665   2.057 -0.5038 -0.1509  0.0734
 6565W        W22639   0.836   9.985   0.353  0.0407  0.1162 -0.0964
 6566W        W22640   0.064  12.804   5.330  0.2014 -0.0363  0.0122
 6567W        W22641   2.028  17.078  11.903  0.1980 -0.0283  0.1512
 6568W        W22642   6.549  15.476   3.173  0.0138  0.2147 -0.1632
 6569W        W22643  14.681   9.654  13.390 -0.3388  0.0210  0.0522
 6570W        W22644   1.559  17.693  16.246 -0.2371 -0.0632  0.2315
 6571W        W22645  10.327  15.502  11.891 -0.0767 -0.1884  0.0391
 6572W        W22646   9.925   2.680   1.670  0.1282  0.0179 -0.1609
 6573W        W22647   7.521  10.894  12.817 -0.0535 -0.0710  0.0090
 6574W        W22648   9.259  12.570  12.790 -0.0974  0.1639  0.2092
 6575W        W22649   6.530   6.721   3.892  0.2099 -0.1458  0.0619
 6576W        W22650  15.528  18.184   0.617 -0.1251 -0.3523  0.0905
 6577W        W22651  18.006  13.805  14.484  0.2887 -0.0068 -0.2464
 6578W        W22652   2.256   1.695   4.730 -0.0451  0.3282  0.2792
 6579W        W22653  10.176   0.703  13.743  0.1449  0.0334  0.0618
 6580W        W22654   9.559   0.522   2.893 -0.5611 -0.0688  0.2552
 6581W        W22655  11.939  14.826  12.160  0.2826 -0.3737  0.0268
 6582W        W22656   8.025   3.561   5.217 -0.1838  0.1267 -0.2614
 6583W        W22657   8.337   1.615  16.436 -0.2442 -0.3083 -0.1753
 6584W        W22658  14.726   7.496   5.173  0.1120 -0.0396  0.0793
 6585W        W22659   0.644   0.819  10.728 -0.1890 -0.0885 -0.1650
 6586W        W22660   5.128  17.329   5.131  0.1989 -0.1729  0.0051
 6587W        W22661   7.152  13.186   0.573  0.0711 -0.1295 -0.2050
 6588W        W22662   3.330  16.022   1.226 -0.1336  0.0113  0.1589
 6589W        W22663   9.359   6.962   2.318  0.0842  0.2497 -0.2943
 6590W        W22664   3.119  12.215  12.055  0.0709  0.1724  0.0918
 6591W        W22665   3.042  14.461   2.564 -0.0900  0.1548  0.1342
 6592W        W22666   0.882  17.105  15.871  0.0461  0.0296  0.0982
 6593W        W22667  15.038  10.211  16.398 -0.1153 -0.0847 -0.1829
 6594W        W22668   7.280   3.823  15.123  0.1877  0.3405  0.1112
 6595W        W22669   1.650  15.043   2.019 -0.1960 -0.1531 -0.1200
 6596W        W22670  11.653  10.191   2.443 -0.1374 -0.3345  0.3890
 6597W        W22671   7.098   3.360  12.353 -0.0570 -0.0100 -0.1620
 6598W        W22672  13.339  16.997   4.380 -0.0780  0.2951 -0.1759
 6599W        W22673   9.797  10.827  14.590  0.2570 -0.0089 -0.0915
 6600W        W22674   7.468   4.277   0.760  0.3275 -0.1744  0.2289
 6601W        W22675   0.270  16.078   0.873 -0.0052 -0.0325  0.5962
 6602W        W22676   3.404   6.301  14.941  0.1859 -0.1405 -0.2329
 6603W        W22677  14.035  14.402   1.099 -0.0471 -0.2442  0.0465
 6604W        W22678   7.775   7.504   4.106  0.0319 -0.0381 -0.0238
 6605W        W22679   1.756  15.014  13.114 -0.2287 -0.0491  0.1206
 6606W        W22680   6.668  10.596   2.576 -0.1072  0.0031  0.1305
 6607W        W22681   6.115   1.633   1.529 -0.1556 -0.0634 -0.2042
 6608W        W22682   8.296   2.112  12.155 -0.1364 -0.4878  0.0365
 6609W        W22683   7.467  15.366   0.314  0.4100  0.1526  0.0260
 6610W        W22684   9.925  12.734  14.574 -0.0408 -0.2639  0.0358
 6611W        W22685   5.321   4.010   4.119 -0.0116 -0.3600  0.0737
 6612W        W22686  12.878   8.738  11.901  0.1762  0.2583  0.0879
 6613W        W22687   0.739   7.808   4.559  0.1075 -0.2544  0.1176
 6614W        W22688   0.235  12.997   0.763  0.1837 -0.2116 -0.0456
 6615W        W22689  10.346  17.929   3.915  0.2510 -0.0316 -0.1665
 6616W        W22690  11.009   3.741  12.293 -0.0418 -0.1447 -0.3723
 6617W        W22691  16.421  13.652   1.404  0.0289 -0.1115  0.2635
 6618W        W22692   3.646   2.579   3.592 -0.2342 -0.0104 -0.0676
 6619W        W22693  13.010   8.052  15.612  0.4594  0.0041  0.0053
 6620W        W22694  16.929   8.499   3.609  0.0555 -0.2776 -0.1662
 6621W        W22695   3.061   0.979   3.392 -0.2826  0.1072 -0.1472
 6622W        W22696   2.373  10.840  10.082 -0.0684 -0.0661 -0.0305
 6623W        W22697  12.831   6.404   3.567  0.4326 -0.2037 -0.1830
 6624W        W22698   7.046   7.672   2.353 -0.0192 -0.3320  0.0059
 6625W        W22699  10.264  12.984   2.289 -0.3897  0.2716 -0.1354
 6626W        W22700   5.532  11.357  12.568 -0.2296  0.0231  0.0478
 6627W        W22701   6.188   7.689   2.360 -0.0774 -0.0775  0.2010
 6628W        W22702   7.086   1.230   5.067  0.1646  0.4064 -0.3162
 6629W        W22703  16.354   8.979   4.384 -0.0059 -0.3166  0.0070
 6630W        W22704  11.718   8.994   5.596 -0.0754 -0.0167 -0.1728
 6631W        W22705  17.170  11.305   2.990  0.1272 -0.1378 -0.1738
 6632W        W22706   5.495   1.239  12.896  0.3752 -0.0498 -0.0835
 6633W        W22707  14.939   1.580   2.032 -0.1629  0.4391 -0.1103
 6634W        W22708  14.953  17.111  16.073 -0.0170 -0.3807 -0.1388
 6635W        W22709   5.324  10.395  11.489  0.0700 -0.0810 -0.0382
 6636W        W22710  12.617  16.506   2.532 -0.2133 -0.2435  0.0017
 6637W        W22711   0.966   4.115  13.780 -0.1819  0.0619  0.4259
 6638W        W22712  18.050  11.686  16.234  0.0324  0.1868  0.0355
 6639W        W22713   3.124   3.102  15.023 -0.1275 -0.1841 -0.0926
 6640W        W22714   7.041  16.322   0.413  0.1210  0.2863  0.2483
 6641W        W22715   5.728   5.648   2.129  0.5442 -0.1458 -0.0998
 6642W        W22716  10.798  12.803   1.721 -0.3608  0.0518 -0.2914
 6643W        W22717  12.658  17.772   5.344 -0.1828  0.2751  0.0191
 6644W        W22718  15.795   7.465   3.587 -0.1071 -0.0508 -0.1971
 6645W        W22719   4.393   2.777  12.534  0.0622  0.1176  0.4662
 6646W        W22720  15.460   1.656   1.999  0.4661 -0.1704 -0.0510
 6647W        W22721  17.548   1.068  14.068  0.2244  0.1275  0.0964
 6648W        W22722   0.897   9.855  14.595 -0.1464 -0.1190  0.4018
 6649W        W22723  11.242   8.585  11.444  0.1951 -0.0959 -0.3021
 6650W        W22724   2.067   2.976  14.202  0.2261  0.0176  0.1593
 6651W        W22725   4.209   3.989   3.882  0.1943 -0.0768  0.2160
 6652W        W22726   4.870  15.421   1.483  0.0552  0.4937 -0.2286
 6653W        W22727   1.143   6.996  15.360 -0.3337 -0.2201 -0.0523
 6654W        W22728   7.532   3.501  12.614  0.2295  0.0812  0.2046
 6655W        W22729   4.748  16.486  11.806  0.1672  0.1009 -0.0857
 6656W        W22730   2.915   6.202  15.469 -0.1118  0.1539 -0.2581
 6657W        W22731  10.195  10.221   4.592 -0.1325 -0.1460 -0.0692
 6658W        W22732   0.466   6.425  11.765  0.2496  0.0917 -0.0371
 6659W        W22733  13.949   6.930  14.377  0.1263 -0.0917 -0.3097
 6660W        W22734  17.290  11.908   1.470  0.3126  0.1421 -0.0239
 6661W        W22735   2.775   1.686  13.756  0.0414  0.3397  0.0378
 6662W        W22736   9.197   4.661  13.531  0.0320 -0.0012  0.2000
 6663W        W22737  11.198  17.050   3.481  0.1024 -0.1388  0.1817
 6664W        W22738  17.004   2.365  13.040  0.1678  0.0290  0.1984
 6665W        W22739   2.518   0.805   0.627  0.0266  0.0111 -0.0837
 6666W        W22740   9.779   3.894   3.769  0.1423 -0.0216 -0.0390
 6667W        W22741  11.495   9.473  15.623  0.0460  0.1515  0.3540
 6668W        W22742   8.648   6.519  13.854  0.2792 -0.2239 -0.1444
 6669W        W22743  14.555   8.061  14.192  0.0421  0.1354 -0.1557
 6670W        W22744  11.824   9.348  13.182 -0.2735 -0.0703  0.1930
 6671W        W22745  10.486  18.211  11.712 -0.2623  0.1376 -0.1005
 6672W        W22746  15.096   9.759   0.102 -0.0130 -0.0162  0.1491
 6673W        W22747  14.746   1.423   3.596  0.1378 -0.1027 -0.0679
 6674W        W22748  17.458  15.029  11.982 -0.3063  0.0412 -0.2995
 6675W        W22749   1.225   9.645  11.475 -0.3106 -0.1144  0.3176
 6676W        W22750   8.443   9.785  14.356  0.0870 -0.1880 -0.2848
 6677W        W22751   9.764   4.029  13.887  0.1953 -0.2181 -0.0895
 6678W        W22752  15.624   9.563  12.370 -0.2700  0.4763  0.5486
 6679W        W22753   4.791  16.173   0.692  0.1653  0.1789 -0.3780
 6680W        W22754   1.679  17.286   2.931  0.2432  0.2713  0.0748
 6681W        W22755   5.637  10.595  13.549  0.3886 -0.1322  0.1085
 6682W        W22756   6.701   0.184  12.140 -0.0419 -0.0488  0.0324
 6683W        W22757  16.796  14.350  11.484 -0.1516  0.2321 -0.0010
 6684W        W22758   0.335  11.353   1.758 -0.0864  0.1019  0.1385
 6685W        W22759   2.975  17.742   1.947  0.1862 -0.1144  0.1267
 6686W        W22760   4.757  12.115  14.393  0.1567 -0.2458  0.3147
 6687W        W22761   7.240   1.699   5.859  0.0079 -0.0400 -0.0647
 6688W        W22762   3.460   9.553  12.021 -0.0995  0.3593 -0.0370
 6689W        W22763  14.360   3.476   3.116 -0.2894  0.2381 -0.0546
 6690W        W22764   6.183  14.259  13.000  0.0136  0.0208  0.3290
 6691W        W22765  15.263  13.242   3.261 -0.1027  0.0424  0.0132
 6692W        W22766   7.745   4.364   0.064  0.3667  0.1898  0.0060
 6693W        W22767  16.669  14.929  16.324 -0.1355  0.0364 -0.0574
 6694W        W22768   2.677   1.540  12.396  0.0782 -0.2979 -0.0101
 6695W        W22769  13.583   3.028   4.631 -0.0739  0.0743  0.2951
 6696W        W22770  17.499   7.172   1.493 -0.0866  0.1018  0.1496
 6697W        W22771  13.774  14.739   1.410  0.1887  0.0286 -0.1405
 6698W        W22772   3.079  11.348   5.440  0.3784 -0.1380  0.0761
 6699W        W22773  11.012   1.356   3.541 -0.0612 -0.1155 -0.3107
 6700W        W22774  11.338   6.452   0.362  0.2086 -0.2117  0.1070
 6701W        W22775  15.901  16.186  13.883 -0.3151 -0.0157  0.0679
 6702W        W22776   9.486   3.781  12.242  0.6000 -0.0267 -0.0653
 6703W        W22777  14.692   6.398   0.460  0.0740 -0.0552 -0.1663
 6704W        W22778   2.826  14.591   0.006  0.0039 -0.0004  0.3739
 6705W        W22779  11.492   2.539   0.852  0.2787  0.1194 -0.2259
 6706W        W22780  15.740  15.370  15.556  0.0256  0.0178  0.2734
 6707W        W22781   9.855  14.743   5.593  0.1060  0.0986  0.2391
 6708W        W22782   3.572   3.692   5.712 -0.3193 -0.5051 -0.0348
 6709W        W22783   7.762   4.921   3.991 -0.0983  0.1120 -0.2643
 6710W        W22784   9.551  14.623  14.250 -0.0609 -0.0490  0.2468
 6711W        W22785   2.954   0.337   2.559  0.2261  0.0514 -0.1018
 6712W        W22786   6.735  17.530  15.191 -0.2249  0.1646 -0.0190
 6713W        W22787   5.109   1.721  12.515  0.0327  0.0037 -0.1639
 6714W        W22788  12.144   1.440   2.313  0.1178  0.1764  0.0687
 6715W        W22789   5.483  11.940   2.058 -0.3957  0.4152  0.1704
 6716W        W22790   3.263   2.821   1.765  0.0075 -0.1432 -0.1106
 6717W        W22791  15.248  11.436   0.386 -0.0449  0.1078  0.1707
 6718W        W22792  14.787  15.261   2.881 -0.1924  0.5784 -0.0843
 6719W        W22793  14.105   9.269   2.691 -0.1850  0.3396 -0.1958
 6720W        W22794   4.228  17.832  11.773 -0.2963 -0.0881  0.3624
 6721W        W22795  13.536   4.050  15.307  0.0158 -0.1600  0.2081
 6722W        W22796   7.007   6.543  15.317  0.2432 -0.1151 -0.0060
 6723W        W22797  10.125   7.809  15.860 -0.0501  0.0101  0.3838
 6724W        W22798  17.870   0.448   2.189  0.0808  0.0349  0.1839
 6725W        W22799   7.585  12.242  12.386  0.1374  0.0957 -0.2379
 6726W        W22800   8.221   3.228   3.466  0.3421 -0.0772 -0.0119
 6727W        W22801   9.941   2.787  11.513 -0.0880 -0.2665 -0.0356
 6728W        W22802  15.315  11.540   1.294 -0.1147 -0.2107  0.2802
 6729W        W22803   3.366   1.143   0.165 -0.1233  0.2362 -0.0148
 6730W        W22804  17.938  16.475   5.054  0.1927  0.2286 -0.3191
 6731W        W22805   6.659  14.335   5.854 -0.2355 -0.2958  0.1042
 6732W        W22806  15.348   4.943   3.277  0.0331  0.1894 -0.1166
 6733W        W22807   0.594   1.286   6.196 -0.1074 -0.2964 -0.0917
 6734W        W22808  18.138   4.576  12.041  0.0817  0.1775 -0.0914
 6735W        W22809   0.978  16.659  11.077  0.0663  0.0309  0.3056
 6736W        W22810   3.866  16.875  15.257 -0.0368  0.0998 -0.0145
 6737W        W22811   3.444   6.753   1.839  0.0511 -0.2327  0.2380
 6738W        W22812   1.566   2.407  16.412 -0.3451  0.2086  0.1478
 6739W        W22813  10.660   8.138   1.074  0.1663  0.0191  0.1022
 6740W        W22814   5.820  13.328  13.515 -0.2462  0.0039  0.2278
 6741W        W22815  15.214   3.097  13.684  0.3077 -0.2286 -0.0295
 6742W        W22816  10.219  15.955   5.917 -0.0278 -0.0947  0.0770
 6743W        W22817  14.045  10.276  12.794  0.2439 -0.0028  0.1077
 6744W        W22818  11.557   2.789   0.150  0.0139  0.0211  0.1358
 6745W        W22819   4.572   9.950   1.490  0.2404  0.1036  0.1076
 6746W        W22820   0.402   9.524  15.214 -0.2526  0.2958 -0.0175
 6747W        W22821   5.133  17.178  13.492  0.3351 -0.5116  0.2949
 6748W        W22822   9.737   8.820   4.660 -0.2075 -0.2914  0.0721
 6749W        W22823  13.130   4.381  16.057 -0.0191 -0.0236  0.1495
 6750W        W22824  18.131  11.615   1.750  0.1816  0.0483  0.0129
 6751W        W22825  13.724   2.895   5.112 -0.0469  0.0858  0.1204
 6752W        W22826  11.661   7.394   2.799  0.0628  0.3312 -0.2423
 6753W        W22827  13.111  10.503   3.795 -0.3776 -0.3086  0.1282
 6754W        W22828  14.413  16.498   3.014  0.1311  0.2174 -0.1316
 6755W        W22829  14.758   4.700  16.039  0.0032 -0.1509  0.0981
 6756W        W22830  15.735   1.360  15.581 -0.1140 -0.4100  0.1396
 6757W        W22831   9.068  17.755   4.982  0.1136  0.0552  0.0600
 6758W        W22832  10.400  10.702   3.237 -0.1560 -0.0638  0.0582
 6759W        W22833  14.233  14.434  11.646 -0.1086 -0.1479 -0.0786
 6760W        W22834   9.047   3.622   4.572 -0.0007  0.0272 -0.1527
 6761W        W22835  16.992  14.777  14.617 -0.0311  0.0650 -0.0361
 6762W        W22836   1.984  12.382  13.780 -0.0889 -0.0693  0.0758
 6763W        W22837   4.514  15.992  15.060 -0.2197  0.2583  0.1273
 6764W        W22838  15.803   8.574  13.441  0.2124 -0.1482 -0.1251
 6765W        W22839  14.480   0.468   1.707 -0.0292 -0.0410 -0.1190
 6766W        W22840   7.879  14.434   2.356  0.0287  0.0252  0.3720
 6767W        W22841   0.399  18.127  12.557  0.0621 -0.3417 -0.6403
 6768W        W22842   4.590  14.261   2.873 -0.0072  0.1762 -0.0331
 6769W        W22843  12.381   4.515   5.680  0.1766  0.0286 -0.1098
 6770W        W22844   9.264  16.119  14.163  0.2470  0.0085 -0.2825
 6771W        W22845  12.182  10.648  13.256  0.2456  0.0301 -0.1155
 6772W        W22846   3.947   4.241   1.920  0.1553  0.3468 -0.0541
 6773W        W22847  18.113   7.403   2.913 -0.1998 -0.2326 -0.2094
 6774W        W22848  10.625   5.546  12.658 -0.2545 -0.2746 -0.0597
 6775W        W22849   6.171   9.554   4.147 -0.2026 -0.1270 -0.1965
 6776W        W22850   4.315  14.063   4.000  0.3156  0.1126  0.0186
 6777W        W22851   9.735  15.084  12.680  0.3274 -0.1386  0.1145
 6778W        W22852  11.906   8.531   5.474  0.2508  0.0908  0.0372
 6779W        W22853  16.863  10.114  15.993 -0.0587  0.4752 -0.2252
 6780W        W22854  17.242   5.077  11.613 -0.2635  0.0660 -0.0443
 6781W        W22855   8.383  10.937  15.857 -0.2030  0.0319  0.2122
 6782W        W22856  13.399   3.198   2.400  0.1389  0.3729 -0.3593
 6783W        W22857   1.051   4.313  15.585  0.1783  0.0163 -0.0442
 6784W        W22858   6.869   4.583   5.102  0.0967  0.2369  0.0328
 6785W        W22859   8.274   2.528   6.098 -0.1176 -0.0054 -0.1472
 6786W        W22860   0.303  13.661  12.683  0.2964  0.0415 -0.0179
 6787W        W22861  17.025  17.457   0.353 -0.0491 -0.0194 -0.0516
 6788W        W22862  18.154   2.547  11.740 -0.2555 -0.0530 -0.0338
 6789W        W22863   0.764   8.511   1.928 -0.2276  0.0233 -0.0028
 6790W        W22864   6.115   1.464   4.558  0.2050  0.1823  0.0457
 6791W        W22865   4.762   7.551  11.569 -0.1042 -0.0615 -0.0764
 6792W        W22866   3.383   8.926   5.144  0.3296  0.1790  0.0228
 6793W        W22867  14.472   4.371   5.132 -0.1054  0.2435 -0.3068
 6794W        W22868  12.506  15.471  12.413 -0.0590 -0.0863 -0.0272
 6795W        W22869  14.301  16.084   0.753  0.0282  0.1442 -0.0885
 6796W        W22870  15.293  15.610   0.467 -0.3670  0.0219 -0.0549
 6797W        W22871  14.811  15.233  15.059 -0.0317 -0.2667 -0.4630
 6798W        W22872   0.380  13.370   4.137  0.3548 -0.0603 -0.2625
 6799W        W22873  14.287   8.116   4.580  0.0145  0.0441 -0.0089
 6800W        W22874  16.195  12.537  11.789  0.1436  0.0071 -0.1826
 6801W        W22875   7.694   5.922   4.225 -0.0472 -0.0737 -0.0442
 6802W        W22876   5.170   6.057  15.382  0.0055  0.0920 -0.2384
 6803W        W22877  16.150   9.577  13.279 -0.3548 -0.0287  0.1346
 6804W        W22878  18.099  16.853  14.542 -0.2340  0.2016  0.0582
 6805W        W22879   7.285   0.635   4.568 -0.1163 -0.0993  0.3302
 6806W        W22880   9.571   6.661   4.275  0.1893  0.2216  0.3662
 6807W        W22881  17.621   8.822   3.960 -0.1663 -0.2552 -0.3609
 6808W        W22882  16.815  10.804  16.481 -0.2059  0.2248 -0.1379
 6809W        W22883   7.722  14.365   5.837  0.2071  0.1502  0.2292
 6810W        W22884   5.993   0.676  16.304  0.0399  0.3737 -0.0547
 6811W        W22885   2.191   0.016   5.053  0.0293  0.0340 -0.1626
 6812W        W22886   5.138   2.249  12.582  0.0987  0.1362 -0.0739
 6813W        W22887  15.704  13.982  15.948 -0.2316  0.1711  0.1498
 6814W        W22888  14.215   8.870   4.158 -0.0655 -0.1097 -0.1447
 6815W        W22889  12.405   4.548  15.204  0.0209 -0.0417  0.1037
 6816W        W22890   0.439   2.764  14.654  0.0026  0.1752  0.1868
 6817W        W22891   4.831  11.575  12.720  0.1994 -0.0399  0.1594
 6818W        W22892   7.888   6.374   3.526 -0.0413 -0.1421 -0.0638
 6819W        W22893  10.065   0.615  12.839  0.2148  0.1073  0.1544
 6820W        W22894   1.674  14.501   2.771  0.3055  0.0310 -0.0258
 6821W        W22895  13.711  14.260  12.659 -0.1376  0.2064  0.0286
 6822W        W22896  12.751  13.321  14.837 -0.2987 -0.0243  0.3145
 6823W        W22897   1.646  10.086   5.436 -0.1228 -0.3004  0.0339
 6824W        W22898   7.636   6.175   3.088 -0.2940  0.0270 -0.3234
 6825W        W22899   0.808   6.215   4.589 -0.0649 -0.0163 -0.2123
 6826W        W22900  10.094   8.250   2.912 -0.1613  0.0875 -0.1808
 6827W        W22901  16.547  12.057  12.747 -0.2270  0.0372  0.1926
 6828W        W22902   4.035  14.988   4.027  0.1006  0.0142 -0.2386
 6829W        W22903   3.585  12.254  12.195 -0.1611  0.1829 -0.0579
 6830W        W22904   0.236   0.470   1.033  0.2447 -0.1780 -0.5414
 6831W        W22905  10.562   9.717  13.860 -0.0761 -0.1063  0.1171
 6832W        W22906   0.102   8.668  14.879  0.3083  0.0527  0.1256
 6833W        W22907   1.439   4.260  14.656 -0.0298 -0.2902  0.2156
 6834W        W22908   4.312   7.473  12.706 -0.1197 -0.2201  0.1031
 6835W        W22909  16.708   7.677  13.902 -0.2444 -0.0995 -0.2140
 6836W        W22910  15.424  10.987   0.396 -0.2466 -0.0531 -0.0714
 6837W        W22911  13.267  10.174  11.586  0.1068  0.2185  0.2991
 6838W        W22912  12.765  13.465  12.701 -0.2527  0.2005  0.4060
 6839W        W22913  14.723  11.681   4.742  0.1884  0.0375  0.0025
 6840W        W22914   1.036   9.667  16.459 -0.1497 -0.0600  0.3841
 6841W        W22915  14.594  10.835   0.988 -0.4699  0.0329 -0.0685
 6842W        W22916  11.782   5.011   4.277  0.1916 -0.1467  0.0978
 6843W        W22917  10.393   7.625  12.520  0.0421  0.1728 -0.2589
 6844W        W22918  17.999   5.254  13.646  0.0077  0.2158  0.2496
 6845W        W22919  12.451  15.762   2.119  0.1724 -0.0400 -0.1099
 6846W        W22920   2.289  10.667  14.523  0.0785 -0.2463  0.1799
 6847W        W22921  15.260   4.574   5.588  0.0631  0.1451  0.1354
 6848W        W22922  12.222   1.546   2.776 -0.0300 -0.1221 -0.0763
 6849W        W22923   3.490   0.210  16.440  0.0587  0.1535  0.2174
 6850W        W22924  14.051   5.681   3.514 -0.2806  0.0530 -0.0167
 6851W        W22925   0.450  16.791   3.212 -0.0226 -0.2239 -0.5579
 6852W        W22926  12.255   4.297   3.883  0.2287  0.4923 -0.0584
 6853W        W22927   6.524   8.240  11.312 -0.0403 -0.1008 -0.0169
 6854W        W22928  15.040  17.381  11.493 -0.2203  0.0325 -0.0977
 6855W        W22929   7.443  16.759   4.245  0.0658  0.0586  0.2378
 6856W        W22930  16.369   4.306  14.613  0.3108  0.0428 -0.0308
 6857W        W22931   1.110   3.277   4.364 -0.2122 -0.0814 -0.1119
 6858W        W22932  13.297   6.531   4.830 -0.1874  0.1718  0.2011
 6859W        W22933   8.390  13.242   1.581  0.0532  0.0185  0.0016
 6860W        W22934   6.611   2.686   4.207 -0.0075 -0.0828 -0.1189
 6861W        W22935   7.221   3.853  13.312 -0.0034 -0.0588  0.0109
 6862W        W22936  12.526   7.252   1.709  0.1781  0.0403 -0.1552
 6863W        W22937   3.937   7.333   1.408 -0.0019  0.3984  0.0217
 6864W        W22938   7.423   2.733  13.526 -0.0619  0.2543  0.2066
 6865W        W22939   1.144  16.152  12.844 -0.0756  0.1923 -0.0150
 6866W        W22940  12.733   3.509  14.159 -0.0974  0.0553  0.1905
 6867W        W22941  11.062  11.493  14.696 -0.1072 -0.1422  0.2355
 6868W        W22942   8.807   7.522  13.803  0.1812 -0.0288 -0.1459
 6869W        W22943  16.355   4.052  16.406 -0.2047 -0.0955  0.3058
 6870W        W22944   8.402  10.604  11.689  0.1160 -0.1366 -0.2147
 6871W        W22945   4.395  14.272   1.330 -0.0367  0.2685  0.2080
 6872W        W22946  15.105  15.111  13.410 -0.0255 -0.0153  0.2113
 6873W        W22947  11.982   3.051   1.607  0.0394 -0.1881  0.0569
 6874W        W22948  16.621  13.665   2.074 -0.1952 -0.2568 -0.0089
 6875W        W22949  18.032  12.419  11.536  0.1193 -0.0606  0.1849
 6876W        W22950  15.874   5.458  15.571 -0.1841 -0.0901 -0.1443
 6877W        W22951   5.439   6.838  16.147 -0.1058  0.0403  0.2726
 6878W        W22952  12.890  17.335   2.209  0.0336  0.2544 -0.2735
 6879W        W22953  17.343  10.485   1.727  0.0690 -0.1725  0.2332
 6880W        W22954   2.814   1.341  13.379 -0.1825  0.2423  0.2515
 6881W        W22955  13.849   9.602   3.819 -0.1656 -0.0309 -0.0685
 6882W        W22956   0.208   1.208  11.770 -0.1857  0.0685 -0.0751
 6883W        W22957  13.242  11.734  13.601  0.3189 -0.2639 -0.0183
 6884W        W22958  12.022   9.396  11.250  0.1236  0.0298 -0.1718
 6885W        W22959  12.236  17.525  16.051 -0.2176  0.1427  0.1276
 6886W        W22960  10.548  15.930   0.406 -0.0849 -0.2900  0.2316
 6887W        W22961   6.851   6.261   0.987  0.1171 -0.0252  0.0185
 6888W        W22962  14.916   8.750   4.737  0.0737 -0.0902  0.0841
 6889W        W22963   3.831  16.852   2.216 -0.1981  0.1496  0.0887
 6890W        W22964  11.193  17.844   6.352  0.1009  0.2609 -0.1787
 6891W        W22965   7.222   2.258  15.669 -0.0362 -0.4083 -0.3719
 6892W        W22966   0.987   2.549   3.255  0.0205 -0.2357  0.0121
 6893W        W22967   6.133   1.788  13.474 -0.0690 -0.1125  0.0658
 6894W        W22968   8.593   5.346  14.619 -0.1496 -0.0959 -0.1825
 6895W        W22969   3.865  17.476  15.265  0.1913  0.0615 -0.2683
 6896W        W22970   9.820  17.502  14.108  0.3073  0.0984 -0.0305
 6897W        W22971  13.174  17.078   2.966 -0.0780 -0.0278  0.2416
 6898W        W22972   9.657   0.046  15.794  0.2649 -0.1595 -0.1569
 6899W        W22973   2.484   3.546   5.009  0.0257 -0.0161  0.2231
 6900W        W22974  10.577   8.695   2.679 -0.3221  0.1916  0.1493
 6901W        W22975  10.209  16.564  14.769 -0.3819  0.1375 -0.2296
 6902W        W22976   9.299  11.166  15.962  0.0486 -0.0984 -0.0861
 6903W        W22977  12.225   6.985  16.001  0.0978 -0.2716 -0.1420
 6904W        W22978  12.437   1.483   5.780  0.0693 -0.0469  0.2665
 6905W        W22979  17.783   5.823   3.854  0.1102  0.2087 -0.2573
 6906W        W22980  15.897   7.936   3.929 -0.1208 -0.1609 -0.0018
 6907W        W22981   2.960  13.196   4.321  0.2824 -0.0304  0.0679
 6908W        W22982   6.031   7.052  15.509  0.0344  0.0608 -0.5025
 6909W        W22983   6.787   5.062   0.759 -0.0569 -0.0327  0.1178
 6910W        W22984   4.634  12.050  13.432 -0.2044  0.0920 -0.0541
 6911W        W22985  11.051   2.952   6.529  0.3121 -0.0861  0.3441
 6912W        W22986   0.903  16.342   1.987  0.1207  0.3043 -0.1864
 6913W        W22987  11.286   9.070  16.399 -0.1419  0.0090 -0.2065
 6914W        W22988   7.428  16.411  15.308 -0.0472  0.1776  0.1671
 6915W        W22989   7.250   6.284   4.933  0.0564  0.1324 -0.4400
 6916W        W22990   7.323  17.705  14.075 -0.1824 -0.0815  0.0978
 6917W        W22991   1.225  11.636   2.785  0.2115 -0.4492 -0.1985
 6918W        W22992  17.145   1.486   0.221 -0.0830 -0.0671 -0.0225
 6919W        W22993   9.826   0.028   3.384 -0.2560 -0.3310 -0.0703
 6920W        W22994   7.201  15.057  13.161 -0.0355  0.4668  0.1195
 6921W        W22995   0.882   1.524   3.839  0.1405  0.0663  0.1562
 6922W        W22996  10.341   9.621  14.418 -0.0032  0.1918  0.1199
 6923W        W22997  16.035   8.185   2.297  0.1149 -0.2920  0.3642
 6924W        W22998  11.555  12.849  12.132 -0.0532 -0.2109 -0.2392
 6925W        W22999   9.450  12.410  11.828 -0.0081 -0.0092 -0.2227
 6926W        W23000   7.907   7.787  13.408  0.0223  0.0836  0.3154
 6927W        W23001  17.622   0.371   0.954  0.1391 -0.0461 -0.1900
 6928W        W23002  16.320  10.602   4.479  0.0970  0.0162 -0.1829
 6929W        W23003   1.136   6.161   5.961  0.1700  0.1412  0.0928
 6930W        W23004   4.855   5.191  11.500 -0.1447 -0.2363 -0.1125
 6931W        W23005   8.326   8.725  16.078  0.1244 -0.0363 -0.0280
 6932W        W23006  14.389  10.339   4.577 -0.0638  0.0326 -0.1354
 6933W        W23007  15.696  12.540  12.703 -0.1131 -0.3735  0.0220
 6934W        W23008   0.347   7.485  13.595 -0.1257 -0.0680  0.0690
 6935W        W23009  15.903   2.911   0.089 -0.1049  0.4311  0.1570
 6936W        W23010   5.467   8.789   0.566 -0.0827 -0.2516 -0.1771
 6937W        W23011   6.533   3.423  11.212  0.0660 -0.2280  0.1100
 6938W        W23012   6.092   2.330  13.656  0.2665 -0.3520 -0.5903
 6939W        W23013   8.368  10.162  16.347  0.4566 -0.1990 -0.0983
 6940W        W23014  16.022  13.464   4.001  0.1124  0.1222  0.4011
 6941W        W23015   5.713  10.799   2.113  0.0386 -0.1403 -0.1634
 6942W        W23016  11.294  15.404   3.746  0.0467  0.1425  0.0066
 6943W        W23017   0.954   1.975   3.483 -0.1023 -0.1955 -0.1516
 6944W        W23018  16.293   5.418  13.783 -0.1366 -0.0408 -0.0030
 6945W        W23019  15.280   0.267   6.690 -0.1872  0.0056  0.0765
 6946W        W23020  17.797  16.801   2.914 -0.0667 -0.1966 -0.2549
 6947W        W23021  14.454  16.675  12.483  0.1028  0.0484 -0.0760
 6948W        W23022   3.849  14.892  12.455 -0.2067  0.1774 -0.2033
 6949W        W23023   5.431   7.877   3.099 -0.0977 -0.1741 -0.2381
 6950W        W23024   3.390   6.357  12.176  0.2358  0.1943 -0.0761
 6951W        W23025  10.334   0.460  13.288 -0.1664 -0.2145  0.2965
 6952W        W23026   8.748   3.683  14.803  0.1676  0.1118 -0.1955
 6953W        W23027   8.545  17.258  13.621  0.0776  0.0242  0.0275
 6954W        W23028  15.587   4.878  14.426  0.1149  0.0837  0.0713
 6955W        W23029  18.184   9.563  15.430  0.3373 -0.1808  0.2058
 6956W        W23030  10.185   7.901   4.925 -0.3321  0.0868 -0.2722
 6957W        W23031   5.161   9.598  12.674  0.0378  0.1886 -0.0374
 6958W        W23032   3.966  15.413  14.922 -0.1724 -0.0433  0.0983
 6959W        W23033  11.802   8.458   2.165 -0.1060 -0.0851 -0.0160
 6960W        W23034   1.465   7.162   0.601  0.0012  0.1389 -0.3180
 6961W        W23035  13.021   3.741   3.535 -0.0880  0.0784  0.1353
 6962W        W23036   3.001   9.602  10.871 -0.1393  0.2394 -0.0410
 6963W        W23037   3.806   7.460   3.351 -0.0597  0.0573 -0.2311
 6964W        W23038   2.699   3.864   3.675 -0.3432  0.1106 -0.1551
 6965W        W23039   4.061  17.128   1.046 -0.3735 -0.1037  0.1757
 6966W        W23040  14.329  14.463  13.561 -0.1132 -0.0510 -0.3552
 6967W        W23041   0.633  16.437  13.793 -0.0493  0.0456  0.0925
 6968W        W23042   3.296  10.430  11.120  0.2062  0.1231 -0.1592
 6969W        W23043  12.223  15.475  11.737  0.1747  0.2190 -0.2829
 6970W        W23044   4.569  16.409   1.482  0.1235 -0.2390 -0.1299
 6971W        W23045   1.820  13.754   3.893 -0.3451 -0.0161  0.1726
 6972W        W23046  13.299   8.557   2.528  0.0692  0.0337 -0.2973
 6973W        W23047   5.434   7.062   1.767 -0.3013 -0.0905  0.1167
 6974W        W23048  14.494   3.952   2.284  0.0155 -0.1234  0.1430
 6975W        W23049  15.301   0.558   1.863  0.2391 -0.1454  0.1613
 6976W        W23050  12.304  10.972   0.569 -0.2070  0.1715 -0.1776
 6977W        W23051   4.047  12.374   4.527 -0.2551 -0.2890 -0.1692
 6978W        W23052  15.422   6.340   2.474  0.0678 -0.0333  0.0717
 6979W        W23053  16.548  12.335  16.373  0.3241 -0.1880 -0.1185
 6980W        W23054   5.085  16.500  15.463  0.0294  0.1557 -0.4287
 6981W        W23055   1.123  13.133   0.875  0.2131  0.0908  0.2833
 6982W        W23056  12.663  12.015  14.910 -0.3209  0.0503 -0.1748
 6983W        W23057   9.773  11.194  13.094  0.0606  0.0122 -0.2429
 6984W        W23058  17.666  17.755   0.521 -0.0662  0.3812 -0.1639
 6985W        W23059  13.124   5.590   1.568  0.0635  0.0255  0.1888
 6986W        W23060   8.180   0.186  11.881  0.0069  0.0394 -0.2479
 6987W        W23061  13.449  10.807  16.149 -0.0497 -0.3422  0.0670
 6988W        W23062  14.103  12.131  15.357  0.3447 -0.0901 -0.0390
 6989W        W23063   5.551   8.266  16.089  0.0193  0.2219 -0.2009
 6990W        W23064  10.198   0.887  14.474 -0.1126 -0.1895 -0.1098
 6991W        W23065  13.416  10.008  14.987  0.1203 -0.1928 -0.0483
 6992W        W23066  17.109   4.106   4.116  0.1124  0.5150 -0.2565
 6993W        W23067  17.328  12.373  12.606  0.1150 -0.0709  0.0394
 6994W        W23068   4.097   5.598   1.719  0.0873  0.3772  0.2609
 6995W        W23069  16.537   7.396  15.042  0.0114 -0.0016 -0.1954
 6996W        W23070   1.622   4.206   2.818 -0.4001  0.2072 -0.2831
 6997W        W23071  13.303  16.466   4.504  0.0140  0.1620 -0.1718
 6998W        W23072  10.744   6.343  13.368 -0.1651 -0.0068 -0.2837
 6999W        W23073   8.550   1.667   0.843 -0.0118 -0.0810  0.1464
 7000W        W23074  14.424   2.329  15.456  0.3044  0.0675  0.0317
 7001W        W23075  18.026   0.475   5.167  0.2581 -0.4555 -0.2348
 7002W        W23076  16.149  13.711  11.823 -0.0857  0.0684  0.1455
 7003W        W23077   2.125   7.494  12.340 -0.1280  0.1538  0.0478
 7004W        W23078   3.361   4.392  13.917 -0.1312 -0.2088  0.0041
 7005W        W23079  11.493  17.643   5.980 -0.0882  0.1371 -0.0521
 7006W        W23080   1.899   3.157   1.708 -0.3069  0.1169 -0.2017
 7007W        W23081   6.774  15.634   0.196  0.1442  0.0014  0.0468
 7008W        W23082  10.137   9.095   1.683  0.0210 -0.2132 -0.0657
 7009W        W23083  14.979   3.617   3.225 -0.1697  0.0578  0.0202
 7010W        W23084   9.303  16.837   2.138  0.1508 -0.0715 -0.0059
 7011W        W23085   3.077  17.704   4.167 -0.2317 -0.1142  0.3077
 7012W        W23086  11.799   3.409  14.234 -0.0486  0.1578  0.2341
 7013W        W23087   6.608   9.982  14.985  0.0575 -0.2047  0.3937
 7014W        W23088  10.370  12.023  12.028  0.0152 -0.2876  0.2706
 7015W        W23089  12.905   6.006   0.686 -0.2083  0.1651 -0.3951
 7016W        W23090  16.048  17.137  11.424  0.1933 -0.0901 -0.1067
 7017W        W23091   8.781   2.706   5.699 -0.1504 -0.0782  0.0728
 7018W        W23092  10.089  17.233  16.380 -0.0628  0.1364 -0.1191
 7019W        W23093   7.770  13.252   3.916 -0.0417 -0.0144  0.1566
 7020W        W23094   3.318   3.351   0.533  0.0158  0.1184  0.2974
 7021W        W23095  10.718  15.278  15.695 -0.1652 -0.2872  0.1299
 7022W        W23096   5.185   5.698  11.631  0.0442  0.1968 -0.3204
 7023W        W23097  14.341  13.321  15.078 -0.0316  0.1246  0.0283
 7024W        W23098   0.637   8.930   4.138  0.2117  0.1456  0.1018
 7025W        W23099   4.968  11.033  11.938  0.0840 -0.1481 -0.0697
 7026W        W23100  11.153   7.504  14.663  0.0646  0.5258  0.3126
 7027W        W23101   7.235  15.679  12.563 -0.0306  0.1501 -0.0811
 7028W        W23102   3.021  11.698  15.856  0.0238  0.0826  0.0418
 7029W        W23103  11.495   0.931   5.601  0.0980 -0.1600  0.0665
 7030W        W23104  16.241   3.678  12.242 -0.1043 -0.0270 -0.0884
 7031W        W23105  14.744  16.844   2.881  0.2248 -0.2218 -0.0212
 7032W        W23106  12.410   1.638   1.919  0.3271 -0.1518  0.0105
 7033W        W23107   2.788   2.200  11.119  0.2806 -0.3282  0.0351
 7034W        W23108  11.052   0.621   5.507  0.0494 -0.1790  0.2699
 7035W        W23109  18.116  11.737  15.365  0.0876  0.0903  0.0968
 7036W        W23110  17.788   0.336  11.670 -0.0520  0.3474 -0.1019
 7037W        W23111   9.596  11.676   2.327  0.2861  0.0454  0.0583
 7038W        W23112  11.943   4.421   2.779  0.2999  0.1865  0.3252
 7039W        W23113  12.164  13.000  14.214 -0.2315 -0.2397 -0.0403
 7040W        W23114   8.516  12.604   0.552  0.0100 -0.1143  0.5077
 7041W        W23115   8.762   9.575  11.126 -0.1329 -0.1328  0.1252
 7042W        W23116   8.539   0.510   4.543  0.1744 -0.2559 -0.1287
 7043W        W23117   3.116   7.523  16.364 -0.2538  0.2759  0.1345
 7044W        W23118   6.379   5.366  14.639 -0.1088 -0.0581  0.1169
 7045W        W23119   2.181  13.618  15.007 -0.2094  0.0125  0.2559
 7046W        W23120   5.369   4.075  15.564 -0.0639 -0.2095  0.1331
 7047W        W23121  18.111   2.537  13.544 -0.1897 -0.0110  0.0494
 7048W        W23122  11.989   1.426  13.231 -0.0474 -0.1018  0.0267
 7049W        W23123   9.883   3.256  11.293 -0.4267  0.2325  0.0220
 7050W        W23124  11.762   7.401   3.978 -0.0369 -0.1396 -0.2668
 7051W        W23125   0.078   3.967   3.590 -0.2358  0.2392  0.0474
 7052W        W23126   8.457  13.115   2.097  0.1827 -0.0766 -0.0676
 7053W        W23127  14.551   3.764   1.223 -0.0908 -0.0473 -0.2339
 7054W        W23128  17.671   7.613   1.320 -0.0962  0.1359 -0.0155
 7055W        W23129   9.553   6.126   4.138 -0.1022 -0.1713 -0.0166
 7056W        W23130  11.273   8.823   1.342  0.0832  0.1271 -0.0893
 7057W        W23131  17.293   7.684   0.286 -0.0926  0.0721  0.0618
 7058W        W23132   3.565   6.139  13.179  0.1296  0.1961  0.1256
 7059W        W23133   6.688   6.604  12.772 -0.1335  0.0406  0.1307
 7060W        W23134  15.787   2.148  15.955 -0.2882  0.1958  0.1727
 7061W        W23135   1.319  11.686   5.164  0.1442  0.1561 -0.1669
 7062W        W23136   8.617   8.082   3.074 -0.0702 -0.0988 -0.6153
 7063W        W23137   4.954   8.184   0.122  0.0209  0.0316  0.0266
 7064W        W23138  16.347   7.718  13.467 -0.2751  0.1451 -0.0311
 7065W        W23139   4.316   0.838   1.585 -0.2278 -0.0097 -0.2267
 7066W        W23140   2.631   6.798   3.995 -0.1247  0.1853  0.0493
 7067W        W23141  17.760  11.116  16.311  0.1378 -0.0156  0.2132
 7068W        W23142  14.671   6.096   1.395  0.1334 -0.0574 -0.1249
 7069W        W23143   5.323  14.762  10.832  0.1766 -0.0218  0.0696
 7070W        W23144  12.085  13.450   4.476 -0.1832  0.0288  0.2421
 7071W        W23145   1.669   7.678   3.100  0.0963  0.2633  0.2469
 7072W        W23146   4.320  11.242   4.850  0.1413 -0.1578 -0.0182
 7073W        W23147   7.178  16.022  15.491 -0.0892 -0.1044  0.1590
 7074W        W23148   2.306   7.769  11.813  0.1348 -0.1182  0.1008
 7075W        W23149  16.734  16.897  15.985  0.1913  0.1132 -0.0817
 7076W        W23150  11.875  17.008   4.042 -0.1630  0.0973 -0.1240
 7077W        W23151   3.077  17.555   0.278 -0.1825  0.0813 -0.1234
 7078W        W23152   4.293   4.943  15.697  0.3551 -0.2028 -0.0554
 7079W        W23153   9.303   4.352   2.054 -0.2123  0.0268  0.1450
 7080W        W23154   5.250  11.465   0.541 -0.1658 -0.0127 -0.0525
 7081W        W23155  15.343  16.872   4.726 -0.1325 -0.1468 -0.1549
 7082W        W23156  13.600   1.806   5.232 -0.1807 -0.3922  0.2761
 7083W        W23157   6.891  11.501  14.116 -0.0873 -0.4013  0.2806
 7084W        W23158   1.978  16.907  14.278 -0.0198  0.0821  0.0339
 7085W        W23159   9.506   3.759  13.534 -0.1888  0.1690 -0.0829
 7086W        W23160   6.552   5.695   2.973 -0.0578 -0.0314 -0.0751
 7087W        W23161  17.847   2.631   5.260 -0.0352 -0.1228  0.1281
 7088W        W23162   3.685   8.993   4.185 -0.4320  0.0108  0.0949
 7089W        W23163   4.929   3.791   5.652  0.0447 -0.2624  0.0280
 7090W        W23164   8.290   1.204   1.493 -0.1203  0.0199  0.3844
 7091W        W23165   9.727   2.307   0.595  0.1534 -0.1169 -0.0035
 7092W        W23166  15.937  13.479  15.859 -0.0669 -0.0560  0.0583
 7093W        W23167   1.913   0.688   3.349 -0.3180  0.1760 -0.1168
 7094W        W23168  11.808   2.802  16.185 -0.2481 -0.0922  0.1906
 7095W        W23169   1.906   4.236   4.925  0.0334  0.1479 -0.0946
 7096W        W23170   8.815   0.266   0.023 -0.0733  0.1628  0.1618
 7097W        W23171   8.195   1.878   3.236 -0.2062 -0.0203 -0.0147
 7098W        W23172  16.313  11.583   3.210  0.0746 -0.1470  0.1354
 7099W        W23173   7.778   3.110  13.223  0.0046  0.2078  0.0832
 7100W        W23174   7.077   2.968   4.219 -0.1366  0.2099  0.2904
 7101W        W23175  16.815   4.413  11.797  0.0511 -0.0269 -0.3195
 7102W        W23176  16.283  15.027   3.937 -0.2781  0.0639  0.0458
 7103W        W23177   4.933   4.467  12.780 -0.0423 -0.1867  0.0275
 7104W        W23178   5.415  12.757   5.565 -0.3700 -0.0417 -0.2816
 7105W        W23179  17.206   8.570   4.078  0.2638 -0.0349 -0.2132
 7106W        W23180  14.117   7.543   0.992  0.0524 -0.0636  0.1393
 7107W        W23181  12.040   3.459   6.286  0.2205  0.0086 -0.1510
 7108W        W23182  13.312   3.994  12.075  0.1378  0.0472 -0.2372
 7109W        W23183   1.528   7.286   4.130  0.1999 -0.0862 -0.1246
 7110W        W23184   5.322  13.157   1.169 -0.0191 -0.1592  0.1954
 7111W        W23185   6.801   7.771   3.947  0.0636 -0.0662 -0.2100
 7112W        W23186   2.947   4.051   1.999  0.2425 -0.2258 -0.0415
 7113W        W23187  12.614  14.332   3.671 -0.1079 -0.1291  0.2309
 7114W        W23188   5.379  14.941   1.240  0.1216  0.0383 -0.2265
 7115W        W23189   9.188   1.500  12.831 -0.2064 -0.0497 -0.2358
 7116W        W23190  15.381   1.657  14.422  0.0304  0.2319  0.0730
 7117W        W23191  12.683   0.109  14.174 -0.0820  0.3084 -0.2023
 7118W        W23192   7.064   5.027  13.195 -0.0213 -0.2534  0.1267
 7119W        W23193   7.926   2.611  12.992 -0.1197  0.3476 -0.0977
 7120W        W23194  13.379   8.978  15.059  0.1004  0.0387 -0.1559
 7121W        W23195  17.498   1.658   5.632 -0.0877 -0.0757  0.0415
 7122W        W23196  16.132   3.961  15.236  0.1020 -0.3223  0.1456
 7123W        W23197  14.028   3.108  14.390  0.3757  0.1717 -0.0671
 7124W        W23198   0.701   0.932  11.626  0.1820  0.0541  0.2685
 7125W        W23199   3.389   7.084  11.688  0.0157 -0.2314  0.2563
 7126W        W23200   0.079  13.339   3.276  0.1012 -0.0638  0.1655
 7127W        W23201   5.425   3.043  13.514  0.1655 -0.2127 -0.0278
 7128W        W23202  13.343  16.148   0.525 -0.4603  0.1175  0.2777
 7129W        W23203  15.118   5.726  13.620 -0.4512  0.1374 -0.2906
 7130W        W23204   7.861  12.896  15.870 -0.1835 -0.1265 -0.3887
 7131W        W23205   8.857   9.367  15.955 -0.1240  0.1595 -0.2851
 7132W        W23206  15.254  15.130   4.892  0.3154  0.2696 -0.0916
 7133W        W23207  12.173  13.240  14.747 -0.0479 -0.0614 -0.0831
 7134W        W23208  11.738  18.040   1.852 -0.1570 -0.0678 -0.1089
 7135W        W23209  11.854   5.890   2.850 -0.3127 -0.0671 -0.1830
 7136W        W23210   6.114  14.177   0.612 -0.3753 -0.1208  0.0342
 7137W        W23211   0.983   0.853   2.060  0.2611 -0.0128 -0.0737
 7138W        W23212  16.447  12.024   1.725 -0.3029  0.0515  0.0005
 7139W        W23213   4.538  17.396   3.447  0.1266 -0.0830 -0.0381
 7140W        W23214  13.812  12.835   2.897  0.1661  0.0022  0.0598
 7141W        W23215  12.607  16.221   2.120 -0.1733 -0.3605 -0.2347
 7142W        W23216   1.285  15.958  14.171  0.2775  0.0201 -0.2646
 7143W        W23217  15.908   5.155   5.144 -0.3302 -0.1108 -0.0319
 7144W        W23218   7.777   0.604  13.650  0.1657 -0.1318 -0.0685
 7145W        W23219  16.299   9.924   5.709 -0.0838  0.1163  0.0014
 7146W        W23220  14.919   9.638   2.011  0.0937  0.1401  0.4861
 7147W        W23221  11.947   3.430   0.546 -0.1978 -0.3931 -0.1537
 7148W        W23222   4.173   0.912  16.045  0.1944 -0.0156  0.0784
 7149W        W23223  10.142   8.387  11.445 -0.1147 -0.0563 -0.1106
 7150W        W23224   8.419  11.182   3.056 -0.1209 -0.1335 -0.0875
 7151W        W23225   0.971  13.099  11.619 -0.4831  0.1487  0.2720
 7152W        W23226  11.643   2.779  13.493 -0.1281 -0.0657 -0.0433
 7153W        W23227  16.622  18.064   1.570  0.1187 -0.4012  0.1685
 7154W        W23228  11.688   8.707  12.593 -0.0105  0.3831  0.0087
 7155W        W23229   3.917  13.759  13.952  0.1269 -0.1675 -0.2402
 7156W        W23230   3.477  11.052   2.876 -0.0832  0.1495 -0.0968
 7157W        W23231   7.925   0.748  16.431 -0.1883  0.0921  0.1023
 7158W        W23232   9.080   6.049   4.387  0.2096  0.3460 -0.0913
 7159W        W23233   1.304  14.650   3.801  0.1789  0.3437  0.0058
 7160W        W23234   0.008  10.573  10.722 -0.2704  0.2031  0.2310
 7161W        W23235   3.799  11.034   5.876  0.1067 -0.1357 -0.0275
 7162W        W23236  10.766   9.513  13.297 -0.0792 -0.3350 -0.1229
 7163W        W23237   7.356  16.421  13.781 -0.0195 -0.3357 -0.2417
 7164W        W23238   6.543   2.092   2.246 -0.2570 -0.1057  0.1364
 7165W        W23239  11.002   4.537   5.898 -0.3245 -0.1677  0.0598
 7166W        W23240   3.395  18.063  12.323  0.0354  0.2316  0.2362
 7167W        W23241   4.390  12.891  12.458  0.2488  0.0474 -0.0048
 7168W        W23242  12.758  16.324  14.723  0.1286  0.2780  0.1211
 7169W        W23243   6.544  15.974  13.587 -0.2500 -0.1518  0.3581
 7170W        W23244   9.496  14.135  12.405 -0.1801 -0.0518 -0.0847
 7171W        W23245   0.487   4.201  12.156 -0.0740  0.0629  0.3773
 7172W        W23246   2.484   0.917  13.183  0.1630  0.4664  0.1499
 7173W        W23247   3.310  12.376  15.154 -0.0032 -0.2022 -0.0673
 7174W        W23248  10.848   1.402   4.812 -0.1303 -0.1990 -0.1843
 7175W        W23249  15.630  13.613  16.243 -0.1517 -0.0033  0.0515
 7176W        W23250   0.788   4.369  12.473  0.0011  0.0041 -0.1820
 7177W        W23251   6.374  15.159   2.836 -0.0796  0.2593  0.0287
 7178W        W23252  17.324  16.599  10.665  0.0828  0.2371  0.2405
 7179W        W23253   2.596   7.546   3.370  0.0396  0.0084  0.0185
 7180W        W23254   3.158  17.970   5.423 -0.1123 -0.0284 -0.0726
 7181W        W23255  13.609   4.935   5.017  0.0244 -0.1259  0.0584
 7182W        W23256  13.955   0.048   0.844  0.1145 -0.0154  0.0686
 7183W        W23257  16.372   7.166  16.317  0.1104  0.2208  0.1289
 7184W        W23258   2.339   4.071  15.767  0.0895  0.0360  0.0548
 7185W        W23259   6.586  15.713  15.419 -0.1493  0.0396  0.1587
 7186W        W23260  15.346  11.423  14.921  0.2984 -0.0656 -0.0693
 7187W        W23261  10.127   5.066   4.440 -0.1186  0.0719 -0.2080
 7188W        W23262   0.690   9.212   5.982 -0.2488 -0.0515 -0.0491
 7189W        W23263   2.525  14.686   4.334 -0.0768 -0.2018  0.1176
 7190W        W23264   9.761   0.173   4.468 -0.0169  0.5191 -0.2585
 7191W        W23265  12.568   9.875  15.475 -0.2123 -0.0915  0.0740
 7192W        W23266  12.978  13.240   5.829 -0.1649  0.0519 -0.5748
 7193W        W23267  13.448   1.746   4.604  0.0113 -0.2019  0.0775
 7194W        W23268  10.121   2.608   0.008 -0.0277  0.0838 -0.1482
 7195W        W23269   2.386  16.483   4.378 -0.2790  0.0374 -0.0237
 7196W        W23270   3.851  16.432   4.161 -0.0890 -0.0130 -0.1656
 7197W        W23271   0.948  10.184   3.791 -0.0894  0.5718 -0.0729
 7198W        W23272  17.526   0.132   2.393  0.3166  0.0150 -0.1293
 7199W        W23273   6.550   5.845  12.191 -0.0779 -0.1641 -0.0559
 7200W        W23274  12.573   3.830   4.896  0.0443  0.0535  0.1285
 7201W        W23275  11.299   1.118  12.060  0.1061 -0.1815  0.2483
 7202W        W23276   3.492   0.279  13.062 -0.1079 -0.1152  0.2178
 7203W        W23277   8.301  11.648   3.228  0.1183  0.0598 -0.1822
 7204W        W23278  14.839   9.790   2.483 -0.0150  0.0231 -0.2540
 7205W        W23279  17.667   7.745   2.992  0.0005  0.0834 -0.3951
 7206W        W23280  10.423   5.138  11.527 -0.0356 -0.1407  0.1216
 7207W        W23281   1.229   2.961   3.182 -0.0568  0.2065  0.0933
 7208W        W23282  12.449  11.230  11.164 -0.0727 -0.2713 -0.1135
 7209W        W23283   6.024  10.754   1.247  0.4577  0.1291  0.0250
 7210W        W23284   3.204  12.048   3.686  0.1019 -0.1428  0.0160
 7211W        W23285   9.635   1.013  15.068 -0.0133 -0.0086  0.0441
 7212W        W23286  16.777  13.496  13.313 -0.0925  0.1437 -0.1696
 7213W        W23287   2.698   9.257  15.171  0.2486 -0.0650  0.0922
 7214W        W23288   8.043  13.060  15.228  0.0408  0.2229 -0.0258
 7215W        W23289   9.131   7.375  14.700 -0.0810  0.0961 -0.0074
 7216W        W23290  11.573   0.879  15.664 -0.0682 -0.0999  0.2802
 7217W        W23291   5.869  12.261   5.048 -0.0279 -0.0235 -0.1469
 7218W        W23292   1.745   2.052   5.026  0.1755 -0.0445 -0.0798
 7219W        W23293   4.210   6.745   0.170  0.0083 -0.1350  0.1262
 7220W        W23294   1.560   5.470  12.522  0.0547 -0.0900 -0.0123
 7221W        W23295   6.280  10.956   5.054  0.0359 -0.1540 -0.2435
 7222W        W23296   9.881   4.120   1.853  0.0923  0.0374  0.1596
 7223W        W23297   6.481  16.359   3.719  0.2009 -0.1065 -0.1708
 7224W        W23298   8.770  17.717  14.708  0.0265 -0.2500 -0.0892
 7225W        W23299   0.446  12.250  11.374 -0.0191  0.2910  0.1605
 7226W        W23300   9.836  10.050   5.181 -0.3708 -0.2639 -0.0555
 7227W        W23301   8.099  16.276   5.793 -0.1078 -0.3131  0.0886
 7228W        W23302   0.322   3.669  14.727 -0.1970 -0.2484 -0.1066
 7229W        W23303  10.012   9.230   3.921  0.2340 -0.2666  0.0288
 7230W        W23304  13.773  12.575  12.397  0.1865 -0.0629  0.0281
 7231W        W23305  13.496  16.686   1.400 -0.2283 -0.2278  0.1231
 7232W        W23306   7.035  16.395  15.781 -0.1796  0.0607  0.1450
 7233W        W23307   2.546  15.567  14.392 -0.2290  0.0083  0.1893
 7234W        W23308   9.446  12.472   4.738  0.0598 -0.0273  0.1719
 7235W        W23309  12.832  11.771  15.665  0.0937 -0.1700  0.0250
 7236W        W23310  12.887   7.166   0.292 -0.0672  0.1165  0.0373
 7237W        W23311  11.858   3.157   2.172 -0.0860  0.3570  0.3625
 7238W        W23312   5.841  12.092   5.904  0.1104  0.0555  0.0608
 7239W        W23313  11.158   0.776   4.962 -0.1691  0.0068  0.1992
 7240W        W23314   0.219   4.655  15.187  0.0902  0.0484  0.0264
 7241W        W23315   2.223  17.311  16.343  0.0275 -0.2248 -0.2393
 7242W        W23316   6.749   9.771   1.607  0.0012  0.1556 -0.2692
 7243W        W23317  13.068  14.228   3.846  0.4171  0.1098  0.1598
 7244W        W23318  13.682   8.591  15.937  0.0686 -0.0862 -0.0808
 7245W        W23319   5.967  10.906  11.866 -0.0786  0.0795 -0.1108
 7246W        W23320   3.850  17.941   1.795  0.1756  0.0136 -0.3905
 7247W        W23321  14.560   1.423  16.072  0.1142 -0.2710  0.0329
 7248W        W23322   7.905   3.910   2.547 -0.1332 -0.2404  0.0500
 7249W        W23323   4.669   1.140   5.194 -0.0531 -0.0967 -0.1810
 7250W        W23324  16.513   8.846   5.461  0.0236 -0.2293 -0.3337
 7251W        W23325   2.729   5.366   0.711 -0.1192 -0.1348  0.0895
 7252W        W23326  10.800  14.567   3.015  0.1237 -0.3216 -0.0133
 7253W        W23327   0.511  16.808   0.932 -0.4242  0.2092 -0.0110
 7254W        W23328  16.601   1.214  14.647 -0.0091  0.2487 -0.1411
 7255W        W23329   7.170   1.666  14.384 -0.0030 -0.1083 -0.2516
 7256W        W23330  17.866   8.857   1.421  0.1967 -0.2459  0.1289
 7257W        W23331   2.916  10.785  11.304  0.0322 -0.0898 -0.2723
 7258W        W23332   9.980   0.953   2.439 -0.0960 -0.2543 -0.1157
 7259W        W23333   7.733   7.757   4.595 -0.2750 -0.0111  0.2463
 7260W        W23334  17.187   6.657   4.491 -0.3027 -0.1435  0.0458
 7261W        W23335   5.245  15.112   5.047  0.2060  0.2339  0.0838
 7262W        W23336   3.765   1.536  16.047  0.1460  0.2384 -0.1643
 7263W        W23337  14.505  10.443  13.094  0.1078  0.1482  0.1193
 7264W        W23338  11.381  15.065  13.272 -0.1167  0.1360 -0.0013
 7265W        W23339   9.169  12.948  14.983  0.5102  0.3577  0.1551
 7266W        W23340   4.532   2.359   5.353  0.2690  0.1440 -0.0577
 7267W        W23341  17.943   4.351  12.446  0.0576  0.3243  0.1189
 7268W        W23342   4.793   4.320  15.844 -0.0147 -0.2154 -0.0332
 7269W        W23343  10.585  17.944  14.718 -0.1421 -0.1654  0.0863
 7270W        W23344   9.533   4.712   1.320 -0.0382 -0.1160 -0.0507
 7271W        W23345  13.219  14.231   4.325  0.3491  0.4762 -0.2990
 7272W        W23346  16.470  17.496  14.138  0.1438 -0.0182  0.0303
 7273W        W23347  13.027   2.591   3.120 -0.1551  0.1259 -0.2276
 7274W        W23348  12.669  14.130   5.563  0.0261 -0.0576 -0.1855
 7275W        W23349   7.577   0.846  14.808 -0.1778 -0.3186 -0.0735
 7276W        W23350   0.097  14.949   5.415  0.2404  0.0130 -0.1929
 7277W        W23351  11.526   7.519  13.465  0.3160  0.1070  0.2131
 7278W        W23352   9.004  14.546  14.966 -0.1105  0.3230  0.1582
 7279W        W23353  14.150  10.433   0.506  0.1343 -0.0115 -0.4039
 7280W        W23354  15.220  18.213  13.207  0.4873  0.1447  0.0112
 7281W        W23355  12.412  13.108   3.178  0.0183 -0.0322  0.1274
 7282W        W23356   8.098  10.749   4.474 -0.2924 -0.0593  0.1682
 7283W        W23357  15.201   7.060   0.923 -0.3669 -0.0447  0.4208
 7284W        W23358  11.045   3.529  15.362  0.0123  0.1777  0.1077
 7285W        W23359  12.239   8.672  15.475  0.0088  0.1761 -0.1067
 7286W        W23360   0.003  16.953   2.672  0.1518 -0.2875 -0.1534
 7287W        W23361   5.824   5.885   4.761 -0.0093  0.2995 -0.0146
 7288W        W23362  14.346   2.570   3.485 -0.0718  0.0974 -0.0282
 7289W        W23363  17.730   2.290   3.867  0.0549  0.1815  0.1772
 7290W        W23364   6.575   7.868  14.024  0.2324  0.0366 -0.0263
 7291W        W23365   3.130  10.393   0.941 -0.2070  0.1155 -0.1211
 7292W        W23366   7.727   7.313  12.360  0.0652  0.0450 -0.1817
 7293W        W23367   0.801  13.404  12.040 -0.2191 -0.1183 -0.0871
 7294W        W23368   5.084  11.005   0.351 -0.0980 -0.0011  0.2098
 7295W        W23369   0.799   9.474  11.731  0.2055 -0.0377 -0.1452
 7296W        W23370   2.851   1.962  14.632 -0.2511 -0.2950  0.5645
 7297W        W23371   0.164   9.717   0.271  0.2780 -0.0556 -0.0506
 7298W        W23372   1.662  12.914   3.915  0.1333  0.0393 -0.0927
 7299W        W23373  13.968   9.938   0.476 -0.0032  0.1738 -0.0321
 7300W        W23374  17.183  17.821   0.976 -0.0138  0.0895 -0.1912
 7301W        W23375  14.333   3.222   4.402  0.2328  0.1565  0.1495
 7302W        W23376   9.279  13.593   4.315 -0.2688  0.0800 -0.2087
 7303W        W23377  12.755   1.169  15.900 -0.0693  0.1063  0.0158
 7304W        W23378   5.090   1.013   5.002 -0.1178 -0.1304  0.1124
 7305W        W23379   7.125  12.375  15.650  0.1034  0.0617 -0.3446
 7306W        W23380   9.416  18.250   6.511  0.3200  0.1999 -0.2322
 7307W        W23381   8.839   5.207   1.876  0.0221 -0.2467  0.1659
 7308W        W23382   3.820  17.328   2.382  0.0348  0.2905 -0.1332
 7309W        W23383  15.686  17.888  13.260  0.1056 -0.3169  0.0472
 7310W        W23384   8.714   0.533   2.630  0.0318 -0.0462  0.0165
 7311W        W23385  10.438  16.098   5.415 -0.1038  0.0877  0.3663
 7312W        W23386   7.489  15.949  12.174  0.0053  0.0237 -0.2434
 7313W        W23387  11.367   0.342  13.223 -0.1615 -0.0133 -0.1613
 7314W        W23388   4.785  11.395   4.073 -0.0294  0.0313 -0.1197
 7315W        W23389   1.391   4.415  13.683  0.1388 -0.1448 -0.2771
 7316W        W23390   1.238   9.049   1.502  0.2847 -0.0254  0.0178
 7317W        W23391  15.743   7.207   1.559  0.0098  0.0367  0.0174
 7318W        W23392  18.045   6.921  12.003  0.1068 -0.2897 -0.2772
 7319W        W23393   6.654  17.795  13.696 -0.0042  0.0571  0.4699
 7320W        W23394   9.930   8.205  12.013  0.1758  0.0647 -0.1650
 7321W        W23395  11.422   6.875  14.688  0.0489 -0.2296  0.2306
 7322W        W23396  11.502  14.242  11.600  0.0297  0.1364  0.1041
 7323W        W23397  14.755  10.809  14.260 -0.2925 -0.2737 -0.0474
 7324W        W23398  14.426  17.430   4.835  0.1785  0.0818  0.2832
 7325W        W23399  16.970   5.291  11.171 -0.0886 -0.0408  0.2974
 7326W        W23400   6.532   9.761   5.139 -0.3725 -0.0096 -0.0930
 7327W        W23401   2.267  12.283   5.079 -0.1999 -0.0830  0.2355
 7328W        W23402  11.052  11.681   3.918  0.0485  0.2274  0.0803
 7329W        W23403  13.513   4.786  13.207 -0.0091  0.2432 -0.0832
 7330W        W23404   0.599  15.006   0.011  0.0923  0.1832 -0.1037
 7331W        W23405   9.077  13.171   2.674  0.0914 -0.1539 -0.1589
 7332W        W23406  11.875  14.179   1.091  0.0354 -0.1206 -0.0739
 7333W        W23407  12.965  15.504   2.925 -0.2874  0.1137 -0.0004
 7334W        W23408  16.709   0.664   3.933  0.0965 -0.1007 -0.0016
 7335W        W23409  11.203  15.157  12.713  0.0475  0.2515  0.1203
 7336W        W23410  13.065  12.810  15.490 -0.1464 -0.1686 -0.2405
 7337W        W23411  15.230  12.372  15.121 -0.1110 -0.2087  0.0758
 7338W        W23412   6.723   9.577  11.518 -0.0538 -0.0756 -0.0613
 7339W        W23413  12.779  16.280  12.292 -0.1369 -0.1768 -0.0822
 7340W        W23414   6.626   4.448  14.219 -0.0345 -0.0743  0.2093
 7341W        W23415   7.210   7.197   0.308  0.3924 -0.0500  0.0409
 7342W        W23416   1.045  10.985  12.420  0.2024  0.1721  0.0680
 7343W        W23417   6.402  10.157   1.940 -0.0435 -0.1555 -0.1024
 7344W        W23418   3.006  14.173   3.489  0.0464  0.2128  0.4320
 7345W        W23419   2.348  12.661   5.316 -0.0540 -0.0276  0.2123
 7346W        W23420  15.086   2.189   3.801 -0.4011 -0.0700  0.0413
 7347W        W23421  15.747   1.052  11.838  0.0147  0.1656  0.0625
 7348W        W23422   6.871   3.060  14.214  0.0764  0.1784  0.1770
 7349W        W23423  17.545   1.444  16.272  0.0136 -0.0183 -0.0679
 7350W        W23424   3.867   3.180   4.238 -0.0706  0.0525  0.1015
 7351W        W23425   4.874   6.316   4.165  0.0352 -0.0960 -0.1231
 7352W        W23426   6.707   0.194   1.021 -0.0737 -0.0987 -0.2605
 7353W        W23427  10.032  12.162  13.285 -0.0939 -0.0502  0.0021
 7354W        W23428  14.281   1.136   2.415 -0.1161  0.2268  0.2755
 7355W        W23429   2.020  14.808   2.547  0.2326  0.0425  0.2411
 7356W        W23430  14.528   2.356   1.500 -0.2959 -0.2090  0.0339
 7357W        W23431  13.725   9.468  12.512 -0.2111  0.0790 -0.4933
 7358W        W23432  13.602   8.956  11.282 -0.1666 -0.2868  0.3308
 7359W        W23433  11.995  18.241   2.269 -0.1067  0.0168 -0.3660
 7360W        W23434  15.195   0.939   5.733 -0.1528  0.0993  0.1419
 7361W        W23435   5.296   7.872   5.813  0.0848 -0.1912  0.2817
 7362W        W23436   7.150   1.267   5.652  0.0158 -0.0905 -0.1029
 7363W        W23437   2.951  17.020   0.447  0.0512  0.2078 -0.1507
 7364W        W23438  15.265  16.473   0.541 -0.3652 -0.0553 -0.2137
 7365W        W23439  13.541   7.790  13.358  0.0005  0.1736  0.2051
 7366W        W23440  14.634  14.609   4.799 -0.0183  0.4479 -0.3503
 7367W        W23441   7.837  10.945  12.311  0.0424 -0.0324  0.1234
 7368W        W23442   4.335  11.523   2.395 -0.4117 -0.2807 -0.0465
 7369W        W23443   4.040   6.637   2.291  0.1684 -0.2320 -0.0434
 7370W        W23444   3.598  17.114  12.192 -0.0057 -0.0280 -0.2792
 7371W        W23445  16.482  16.175   1.812 -0.1906 -0.0853 -0.3452
 7372W        W23446  16.158   3.331   5.233  0.2128  0.2348 -0.2291
 7373W        W23447   1.844  13.999   2.653 -0.1205  0.0506 -0.0091
 7374W        W23448  14.137   2.945   3.181  0.2927  0.1494 -0.0432
 7375W        W23449  17.686   3.459   0.452  0.1567  0.0229  0.2071
 7376W        W23450   4.931  14.092   3.347  0.1528  0.0392 -0.0545
 7377W        W23451  12.690  15.446   1.706 -0.0058  0.0727  0.2086
 7378W        W23452   2.843  16.571  11.751  0.0207 -0.0579 -0.1695
 7379W        W23453   9.795   3.366  15.368 -0.1558 -0.1194 -0.0134
 7380W        W23454  17.811  17.000   0.468  0.0845  0.0024 -0.2202
 7381W        W23455  12.926   1.189   4.115 -0.0734  0.1720 -0.0709
 7382W        W23456   9.345  11.364  13.438 -0.0730  0.0414 -0.0274
 7383W        W23457   0.222  17.971   1.763  0.0510  0.1725  0.1775
 7384W        W23458   5.782  11.141   1.662 -0.2559 -0.2631  0.1257
 7385W        W23459   0.992   9.425   1.747  0.1665  0.2219  0.1267
 7386W        W23460   9.625   5.946   0.598  0.0620 -0.2487 -0.0008
 7387W        W23461  12.797  15.115  14.297  0.2806 -0.1090  0.1297
 7388W        W23462   9.049   1.916   2.123 -0.0061  0.0024 -0.2059
 7389W        W23463   6.300  12.534   0.304  0.0342 -0.3079  0.0073
 7390W        W23464  13.762   2.385  14.586 -0.2446 -0.2507 -0.0349
 7391W        W23465  11.628   4.819   2.660  0.1504 -0.0486  0.0075
 7392W        W23466   6.807  11.558   1.516  0.1411 -0.2203  0.5102
 7393W        W23467   9.316  12.473  14.087 -0.1427 -0.0543  0.0158
 7394W        W23468  15.060   8.619   0.329 -0.2458  0.2342 -0.2389
 7395W        W23469  17.100  13.198  13.623  0.1436 -0.1526  0.1078
 7396W        W23470  11.542   0.935   4.162  0.2433  0.0385 -0.1720
 7397W        W23471   9.630  16.249  15.566  0.0181  0.1567  0.2923
 7398W        W23472  16.232   3.152   6.370 -0.2768 -0.1384 -0.2534
 7399W        W23473  14.364  16.653   4.423  0.0527  0.1740  0.1128
 7400W        W23474  12.977  18.188   3.710 -0.3463  0.1824  0.1567
 7401W        W23475   0.362   8.597   1.095 -0.1262 -0.1903  0.0743
 7402W        W23476   6.191   1.941   5.493 -0.2019  0.1557 -0.1577
 7403W        W23477   1.456  11.182  12.251  0.1206  0.3486 -0.2114
 7404W        W23478   8.482   7.574   4.624 -0.1090  0.1262 -0.2993
 7405W        W23479   7.178  10.560   2.503 -0.2781 -0.1117 -0.0392
 7406W        W23480  17.531  13.377   3.653  0.0474 -0.3277 -0.0809
 7407W        W23481  16.342   7.134  11.494 -0.0688  0.1359  0.3549
 7408W        W23482   1.415  11.058  14.562 -0.2873  0.1872 -0.3492
 7409W        W23483   2.144   4.721  16.275 -0.3860  0.0049 -0.2589
 7410W        W23484   8.417  16.685  13.654 -0.2272  0.0699  0.0563
 7411W        W23485  17.636  14.562   0.541  0.4122  0.1225  0.0716
 7412W        W23486   6.447  11.978   2.417  0.1464  0.3597  0.1142
 7413W        W23487   8.710  18.038  12.839  0.2553  0.0541  0.2986
 7414W        W23488  13.174   9.693  13.556  0.3825 -0.0567  0.0665
 7415W        W23489  15.576   1.333   4.065 -0.2925  0.0791 -0.0248
 7416W        W23490   5.926   5.369   2.665  0.2477  0.0519 -0.2503
 7417W        W23491   0.064  12.352   2.995 -0.3085  0.2626 -0.0410
 7418W        W23492   8.273  15.153  16.158  0.0329 -0.0335 -0.3890
 7419W        W23493  13.441  13.722  15.886 -0.1240  0.0932  0.0055
 7420W        W23494   3.393  10.860  10.921  0.0497 -0.2599  0.2759
 7421W        W23495   0.426  11.023   3.255  0.1727  0.1332 -0.2122
 7422W        W23496   8.716  11.823  13.715  0.0141 -0.0876 -0.2866
 7423W        W23497  14.545   5.239   3.703 -0.3232 -0.0144  0.0380
 7424W        W23498   2.660  13.132   0.060  0.0697 -0.1670  0.2475
 7425W        W23499   6.200   3.043   3.508 -0.0501  0.1863  0.3000
 7426W        W23500  14.585   8.581  14.159 -0.1561  0.2362 -0.2181
 7427W        W23501  14.302  17.657   4.289 -0.0817  0.2441  0.0898
 7428W        W23502   4.362  10.841  13.962 -0.0383 -0.0066 -0.0326
 7429W        W23503  13.916   7.849   3.891  0.0155 -0.0058  0.0709
 7430W        W23504   9.251   4.042  12.933 -0.2470 -0.0716 -0.0364
 7431W        W23505  17.193  11.976   5.154 -0.1236 -0.0246 -0.2764
 7432W        W23506   3.523  11.650   0.369  0.1555 -0.3135  0.3770
 7433W        W23507   7.295   7.565   0.759 -0.0228  0.0302  0.1554
 7434W        W23508  11.967  14.274  12.190 -0.1320  0.2410 -0.2412
 7435W        W23509   3.461   6.207  11.226 -0.1631  0.2299 -0.1444
 7436W        W23510  17.117   5.968   5.136 -0.2018  0.0138  0.1062
 7437W        W23511   1.657  13.409  16.286  0.1168 -0.1915  0.2162
 7438W        W23512   0.018   5.911   0.902  0.0802 -0.3262  0.0402
 7439W        W23513   2.047  17.923  13.242 -0.0080  0.0211  0.1248
 7440W        W23514   8.081   9.547  16.213  0.1058  0.0577 -0.1630
 7441W        W23515   2.020   4.427   2.644  0.0611 -0.0168  0.0584
 7442W        W23516   3.919   4.518   0.401 -0.1256 -0.1507  0.2370
 7443W        W23517  15.672   8.836  12.170 -0.0443  0.0729  0.0445
 7444W        W23518   6.487   0.457  15.374  0.0342 -0.2015  0.0332
 7445W        W23519   1.861  12.664   5.121  0.2833  0.2506  0.1772
 7446W        W23520  13.941   1.882  14.688  0.0089  0.1196  0.0262
 7447W        W23521  15.616   8.835  13.962 -0.0943 -0.0939  0.0985
 7448W        W23522   8.179   7.380   0.711 -0.2765  0.1528 -0.0317
 7449W        W23523   2.365  11.310  14.653  0.4305 -0.0588  0.2964
 7450W        W23524  12.944   6.788   5.675 -0.4468 -0.2997  0.0521
 7451W        W23525  11.368  13.513  16.355 -0.1751  0.3698 -0.0204
 7452W        W23526   8.933   1.124  13.050  0.0764  0.2253 -0.0395
 7453W        W23527   6.808  10.281   0.405  0.0602 -0.0390  0.1518
 7454W        W23528   1.419  16.694   0.842 -0.2550  0.2549  0.0526
 7455W        W23529   5.364   2.879   1.601  0.0771 -0.1939 -0.0583
 7456W        W23530  10.772   3.364   4.134  0.1459  0.0328  0.0537
 7457W        W23531  11.781   1.440   1.204  0.0597 -0.0016  0.0618
 7458W        W23532   6.081  14.342   1.620 -0.1332 -0.0757  0.2915
 7459W        W23533  14.876  15.698   3.081  0.1921 -0.2258 -0.1214
 7460W        W23534   0.707  10.374   1.398 -0.0660  0.0900 -0.2751
 7461W        W23535   8.863   6.298   1.411 -0.2915 -0.2582 -0.1373
 7462W        W23536  15.531   0.946   2.592 -0.0139  0.2249  0.1391
 7463W        W23537   4.357  14.110   1.916  0.2478 -0.0748  0.3213
 7464W        W23538   5.647   6.844  11.564  0.0493  0.1460 -0.2617
 7465W        W23539  10.144   2.045  16.127 -0.0249 -0.0957  0.2750
 7466W        W23540   6.364  11.652  12.946  0.0920 -0.0838 -0.1842
 7467W        W23541  10.688  10.722   0.744  0.0600 -0.3038  0.0796
 7468W        W23542  12.900   2.474  14.038 -0.1930  0.3119  0.3031
 7469W        W23543  13.667  11.857   4.979  0.1539 -0.0818 -0.0315
 7470W        W23544   7.453   1.667   3.569  0.0945 -0.1462  0.3865
 7471W        W23545  10.895   5.244   0.818 -0.0225 -0.0036  0.0378
 7472W        W23546   0.888  10.081   4.721 -0.3322  0.3690 -0.3167
 7473W        W23547  17.064  13.579   3.926 -0.2748  0.1254 -0.2165
 7474W        W23548  12.038  17.389  13.552  0.1944 -0.3286  0.1189
 7475W        W23549   5.743  10.210  11.770 -0.1968  0.0623 -0.2576
 7476W        W23550   1.149   4.143  16.490  0.1628 -0.0052  0.1109
 7477W        W23551  12.511   0.305   2.155  0.3363 -0.0094  0.1319
 7478W        W23552  17.387   1.411  13.418 -0.1778  0.1918 -0.0012
 7479W        W23553  15.802  10.172   4.882  0.3440 -0.3573 -0.0173
 7480W        W23554   7.884   9.607  13.825  0.1254  0.1076 -0.1919
 7481W        W23555  14.428   4.420  16.352  0.2383  0.2864 -0.1370
 7482W        W23556  10.812  13.977   1.280 -0.0935 -0.0053 -0.0170
 7483W        W23557  16.714   5.191   5.700 -0.1685 -0.0488 -0.0859
 7484W        W23558  15.317   4.708   0.123  0.0855  0.1202 -0.1071
 7485W        W23559   5.253  14.602  11.664  0.4804 -0.2323  0.2086
 7486W        W23560  14.575   8.361  15.569 -0.2436 -0.0676  0.1046
 7487W        W23561   1.869   0.045  12.942  0.1781 -0.2958 -0.0605
 7488W        W23562  10.398  12.173  15.076  0.1174  0.0473 -0.1884
 7489W        W23563   2.414  14.307  12.239  0.1543 -0.2069 -0.2271
 7490W        W23564   2.792  12.920   5.237  0.0409 -0.0312 -0.4015
 7491W        W23565   2.850  10.098  11.791  0.1839  0.2052 -0.0263
 7492W        W23566   8.231   4.028   3.828 -0.0574 -0.2546  0.0096
 7493W        W23567  14.940   9.235   2.385  0.4946  0.2506 -0.0633
 7494W        W23568  17.460  15.333   4.387  0.1257  0.1978 -0.0672
 7495W        W23569   0.903  15.775   3.099 -0.1252  0.0144  0.0534
 7496W        W23570   1.409  15.150   1.588 -0.2814 -0.0734  0.5077
 7497W        W23571  14.567   8.060   4.181  0.0436  0.0825 -0.0640
 7498W        W23572  10.902  11.146  11.785 -0.0898  0.0899  0.2203
 7499W        W23573  17.961   3.428   0.933 -0.0476 -0.0614 -0.2796
 7500W        W23574   8.697  15.760   2.822 -0.2882 -0.1478  0.1404
 7501W        W23575   2.067   0.501   0.651  0.0992 -0.2564 -0.1996
 7502W        W23576   3.337   3.788   0.239 -0.0715 -0.0769 -0.0154
 7503W        W23577   4.854   4.429   0.382  0.2175  0.0698 -0.0837
 7504W        W23578  11.055  10.818  14.749 -0.3479  0.3237 -0.3193
 7505W        W23579  10.909   0.984   1.865 -0.0687  0.0510  0.0591
 7506W        W23580  13.228   4.337   1.894  0.0570  0.3527  0.2455
 7507W        W23581   5.456   8.437   2.545  0.0097  0.2068  0.3401
 7508W        W23582  10.010  16.313   5.216  0.4151  0.1575 -0.0276
 7509W        W23583   1.892   0.008   4.554  0.2119 -0.0302 -0.0230
 7510W        W23584  12.098   6.193   2.470  0.0176 -0.2493  0.0292
 7511W        W23585  11.139   7.408  15.957  0.1358 -0.0201 -0.0667
 7512W        W23586  17.223   8.862  10.291  0.1873 -0.0080  0.0489
 7513W        W23587  14.836   2.222   5.110 -0.0095  0.3211  0.3341
 7514W        W23588  17.662   7.240  11.794  0.2446  0.2641  0.2734
 7515W        W23589  16.301  14.352  11.349 -0.2810 -0.1637  0.0552
 7516W        W23590  11.316   6.359  15.650 -0.1582  0.1762  0.1264
 7517W        W23591   4.201   8.029   2.509 -0.0131  0.0061  0.0165
 7518W        W23592  13.828  11.141  14.371 -0.1113 -0.0177 -0.2592
 7519W        W23593   7.825   8.468   0.449 -0.0731  0.1572  0.0490
 7520W        W23594  11.111   4.032  16.279  0.1947 -0.0027  0.0870
 7521W        W23595   5.797  14.841   2.633  0.0213  0.2238  0.1466
 7522W        W23596   5.849  10.395  15.374 -0.2085  0.1703  0.2946
 7523W        W23597   7.931  11.776   5.282  0.1969  0.3003  0.2455
 7524W        W23598  17.498  13.752  11.991  0.0654 -0.1335  0.1103
 7525W        W23599   5.576  10.200  14.456 -0.1166  0.0807 -0.4306
 7526W        W23600   8.378   6.132   0.227  0.0501  0.1573 -0.2391
 7527W        W23601   3.931   9.297  16.131 -0.0557  0.0327  0.1263
 7528W        W23602   2.340  10.027   0.834  0.1308  0.0959  0.2632
 7529W        W23603   9.471  11.653   1.488 -0.2624  0.3669 -0.1490
 7530W        W23604  11.081   9.962  13.588  0.1609 -0.0476 -0.0976
 7531W        W23605   9.761  11.492  12.198 -0.1039 -0.3162  0.1660
 7532W        W23606  16.349  12.026  12.165 -0.1841 -0.1355 -0.0073
 7533W        W23607   1.076   1.978   0.678 -0.1005 -0.0269  0.0446
 7534W        W23608   7.332  11.839   1.082 -0.1739 -0.1536  0.3162
 7535W        W23609  13.382  16.740  11.579  0.0537  0.1612 -0.0946
 7536W        W23610   0.414   0.796   6.171 -0.1056 -0.1508 -0.0238
 7537W        W23611   9.776   9.483   1.779 -0.3311 -0.2124  0.0661
 7538W        W23612   2.830  16.942   0.958  0.0021  0.2664 -0.1971
 7539W        W23613   5.910  12.038   2.448  0.1382  0.0613  0.1780
 7540W        W23614   9.561   7.219  10.248 -0.3467 -0.0396  0.2135
 7541W        W23615  14.761   9.398   0.034 -0.1327  0.2280 -0.1994
 7542W        W23616  10.413   0.589   3.844 -0.1619 -0.2452 -0.1298
 7543W        W23617  16.775   0.581  14.997 -0.1075  0.1736 -0.1249
 7544W        W23618  10.143  14.784   0.520  0.1523  0.1235  0.0537
 7545W        W23619   0.352   5.004   3.673  0.3050 -0.4758 -0.0750
 7546W        W23620  13.768  15.917   0.821 -0.1260 -0.1633 -0.2640
 7547W        W23621   0.738   7.346  15.380  0.2288 -0.5974 -0.1335
 7548W        W23622  18.074   9.755  15.895 -0.1715  0.0647  0.1530
 7549W        W23623   6.364   1.916   2.769 -0.0432  0.2125 -0.0641
 7550W        W23624  11.739  17.844  11.780  0.3640  0.4274 -0.0795
 7551W        W23625  10.978   8.924   3.673 -0.1751 -0.3661 -0.0886
 7552W        W23626   1.408  16.955   4.237  0.0686 -0.0092  0.0038
 7553W        W23627   0.302  15.046   0.584 -0.1685  0.0815 -0.3173
 7554W        W23628  13.301   6.780   0.215 -0.1064  0.0116 -0.1634
 7555W        W23629   0.578  10.733  11.464 -0.1750 -0.1144  0.1929
 7556W        W23630   8.772   1.049  12.580 -0.1649 -0.1273 -0.0042
 7557W        W23631  12.226  13.855   0.160  0.1607 -0.1650  0.4351
 7558W        W23632  11.838   8.617  15.776  0.3030 -0.0636 -0.3625
 7559W        W23633   2.976  10.748  13.007 -0.4593 -0.2012 -0.0612
 7560W        W23634   2.013   0.977  14.990 -0.1220  0.0451  0.1937
 7561W        W23635   0.990   3.088  16.309 -0.0848 -0.1939 -0.1063
 7562W        W23636   2.637   2.073   4.714  0.0547 -0.0267 -0.2128
 7563W        W23637   5.449   6.033  11.971 -0.1274 -0.0481  0.1402
 7564W        W23638  10.265  11.550  11.280  0.1750 -0.1769  0.0694
 7565W        W23639   3.013  12.950  16.265  0.0364  0.0300  0.0137
 7566W        W23640  15.388   9.868   3.169 -0.2626  0.0814  0.3213
 7567W        W23641   4.034  15.922   3.954  0.0714 -0.2047  0.3013
 7568W        W23642   3.993  11.414  10.990  0.0904 -0.0518  0.2097
 7569W        W23643   7.647  14.888   0.250  0.1517 -0.0166 -0.0519
 7570W        W23644   9.492   6.737   0.134 -0.3548  0.3097 -0.1358
 7571W        W23645   0.612   0.026   0.944  0.3378  0.1615  0.0765
 7572W        W23646   9.153   1.521   6.064 -0.2047 -0.0020  0.2534
 7573W        W23647  17.439   4.280  15.589  0.0558  0.1754 -0.0140
 7574W        W23648  12.022   8.010   5.388  0.0091  0.0149 -0.2636
 7575W        W23649   1.496   3.446  13.374 -0.1022  0.3003 -0.4515
 7576W        W23650   6.434   3.971  11.814  0.1091 -0.2842  0.2859
 7577W        W23651  15.888   6.993  11.696 -0.0794  0.1124  0.0118
 7578W        W23652  10.144   4.925   1.276 -0.1377 -0.0781  0.0386
 7579W        W23653   6.184   0.916   2.370 -0.0300  0.1848 -0.4607
 7580W        W23654   8.566   6.083  13.555  0.0547  0.0655  0.0860
 7581W        W23655  13.072   1.655   4.245 -0.0605  0.1460  0.2263
 7582W        W23656   0.156   7.794  12.183  0.0602 -0.1590  0.1483
 7583W        W23657  16.162   4.150  12.662 -0.4516  0.0397 -0.0868
 7584W        W23658   0.177   7.198  14.561  0.0939  0.0570 -0.3212
 7585W        W23659  18.137   4.187  14.056 -0.1879  0.0897 -0.3193
 7586W        W23660  17.277   5.634   1.756 -0.1891  0.1323  0.1541
 7587W        W23661   9.302   4.907  15.577  0.3256  0.2285 -0.1989
 7588W        W23662   4.090   6.478   3.333  0.0082 -0.0184 -0.0057
 7589W        W23663  12.163  12.687   0.699  0.2087  0.1517 -0.2892
 7590W        W23664  10.405   5.805   0.430  0.0594 -0.3337 -0.1343
 7591W        W23665   4.532   3.348   1.814  0.0850 -0.3518 -0.0525
 7592W        W23666  16.132  12.378  15.994 -0.2741 -0.1313  0.3159
 7593W        W23667  17.522   8.220   2.944 -0.0325 -0.1777 -0.0702
 7594W        W23668  16.223   3.352   5.757  0.3312  0.3486  0.1089
 7595W        W23669   3.762  13.765   2.614  0.1189 -0.1832 -0.1446
 7596W        W23670   3.199   6.644   3.139  0.2012 -0.4949  0.0603
 7597W        W23671   3.604   1.069  16.057  0.0473  0.1819 -0.4350
 7598W        W23672   6.777   3.450   5.582  0.2953  0.1461 -0.2588
 7599W        W23673   3.655  10.923  13.376 -0.2510  0.1920 -0.0527
 7600W        W23674  15.074   2.482   2.111 -0.0266 -0.0317 -0.0597
 7601W        W23675   4.041  12.355   1.777 -0.0310 -0.5014 -0.2274
 7602W        W23676   0.646   0.397   3.299  0.1193 -0.1806  0.3296
 7603W        W23677  17.644  16.327  16.209  0.0682  0.2931  0.0991
 7604W        W23678  13.322  14.658   0.667 -0.4678  0.2501 -0.1535
 7605W        W23679   5.026   8.677  11.709 -0.4372  0.1863 -0.2923
 7606W        W23680   7.440   6.712  11.719 -0.3664 -0.0562  0.2402
 7607W        W23681   0.493   2.096   2.645  0.0994 -0.0753 -0.0415
 7608W        W23682  12.403  11.290  14.038 -0.0151 -0.0969  0.3233
 7609W        W23683  17.425   2.401   4.650 -0.2122 -0.2227 -0.2604
 7610W        W23684  13.338   5.825   2.905 -0.1730  0.1818  0.2100
 7611W        W23685   2.666   9.175   0.387  0.2210  0.1762 -0.1785
 7612W        W23686  16.934   0.180  15.862  0.0690  0.2322 -0.0290
 7613W        W23687  11.730  10.059   1.991 -0.0791  0.2393  0.1633
 7614W        W23688  10.136   1.822   3.651 -0.0569  0.0575 -0.2923
 7615W        W23689   6.851   1.350  14.215  0.2812  0.2033 -0.2431
 7616W        W23690   8.827   0.071  15.500 -0.0999  0.1444 -0.2193
 7617W        W23691   5.910  17.655   6.586  0.0015 -0.0040  0.0190
 7618W        W23692   9.395   9.559  13.632 -0.2510 -0.2892 -0.1351
 7619W        W23693   2.626  10.669   3.426  0.2394  0.0027 -0.2271
 7620W        W23694   7.683  14.945  12.977  0.0499 -0.1922 -0.2316
 7621W        W23695  10.605   4.993   0.023  0.1123  0.0681  0.0244
 7622W        W23696  17.157  11.494  11.787  0.1079  0.4082  0.0408
 7623W        W23697  10.484   0.447   5.467  0.1014  0.0698 -0.1168
 7624W        W23698   6.893  17.693   2.610 -0.0977 -0.0100 -0.0242
 7625W        W23699   2.731   7.876   1.707  0.1360 -0.0191 -0.2374
 7626W        W23700   1.856   1.862  16.438  0.4542  0.0203  0.0085
 7627W        W23701   4.557   2.994  11.582 -0.3197  0.1059 -0.0290
 7628W        W23702   1.118  10.258   1.743 -0.0790  0.1617 -0.2293
 7629W        W23703  13.208  17.891  12.886  0.1219 -0.1252 -0.1503
 7630W        W23704   4.569   6.667  16.119 -0.0444  0.3198 -0.3215
 7631W        W23705   6.114   9.098  15.911 -0.1145 -0.0668 -0.0014
 7632W        W23706   5.064   7.879   2.772  0.0685  0.4068  0.1323
 7633W        W23707  11.599  17.168   1.341  0.1691  0.0195 -0.0197
 7634W        W23708   1.691   0.711   0.412 -0.0715 -0.1084 -0.1724
 7635W        W23709   3.923   0.986  12.507 -0.0514  0.0029 -0.2347
 7636W        W23710   1.292   0.857   0.091  0.0341 -0.1093 -0.3209
 7637W        W23711   5.967   0.956  15.839  0.1736  0.0058 -0.3614
 7638W        W23712  11.884  18.220  12.167  0.2942  0.1210  0.2554
 7639W        W23713  16.200  10.654  14.915 -0.3194  0.0620  0.1308
 7640W        W23714   0.790  15.371   3.345 -0.0916 -0.3446  0.1251
 7641W        W23715  17.039   0.567  12.298  0.0406  0.3571  0.0815
 7642W        W23716  17.317  10.870   3.238  0.0519 -0.0091  0.0887
 7643W        W23717   1.420   9.077  16.289 -0.1331 -0.0196  0.1558
 7644W        W23718  16.690  15.319  11.360  0.1045  0.3090  0.1933
 7645W        W23719  13.132   1.628  14.550 -0.0561 -0.0639  0.0248
 7646W        W23720   1.593   1.476  12.038  0.2543 -0.0494 -0.0596
 7647W        W23721  15.754   3.338   4.244 -0.4063 -0.0664  0.1476
 7648W        W23722   2.555   9.823  14.124 -0.2227 -0.0570  0.2347
 7649W        W23723   5.256  11.077  14.093 -0.1358  0.1300 -0.5428
 7650W        W23724   8.421   7.328  12.786  0.3371 -0.1857 -0.0155
 7651W        W23725   7.779   7.579   1.058  0.2164 -0.0083  0.0221
 7652W        W23726   0.840  14.599  14.658  0.1016 -0.1318  0.1838
 7653W        W23727   8.840  12.999   6.199  0.1339  0.1694 -0.1863
 7654W        W23728   1.469   9.932  12.775 -0.4024  0.0935 -0.2855
 7655W        W23729   7.234   6.318   2.824 -0.0008 -0.1004 -0.0470
 7656W        W23730   4.540  11.366  12.376 -0.3517 -0.0554 -0.0134
 7657W        W23731  12.035   0.324   4.444  0.1992  0.2903 -0.2059
 7658W        W23732  11.370   1.200   1.217 -0.2533  0.0213  0.0607
 7659W        W23733   8.245   7.277  11.729  0.1769 -0.1823 -0.0594
 7660W        W23734  14.788   3.593   0.351  0.0466 -0.1415  0.2747
 7661W        W23735   4.677  17.813   5.156 -0.2349 -0.0425 -0.3514
 7662W        W23736  11.048   6.646   4.461  0.1366  0.0778 -0.2475
 7663W        W23737   4.388   1.551   4.855  0.2767  0.1659  0.0694
 7664W        W23738   3.095   4.297  13.214 -0.1552  0.2072 -0.0559
 7665W        W23739  11.196  15.575  11.551  0.1489 -0.4227  0.2993
 7666W        W23740  17.738   2.392  14.703  0.0464 -0.1760  0.3177
 7667W        W23741   2.576  10.215   3.554  0.0800  0.0040 -0.1418
 7668W        W23742  10.966   9.228   2.812  0.0109 -0.0446 -0.1022
 7669W        W23743  12.650   5.528   4.658 -0.0468 -0.0747  0.0700
 7670W        W23744  13.475  12.962  12.395  0.1524  0.1153 -0.0759
 7671W        W23745   1.637  17.068  14.667  0.3015 -0.1329 -0.2340
 7672W        W23746   9.558   5.753   4.506 -0.2756  0.0376  0.2516
 7673W        W23747   9.972   2.512   2.176  0.0193  0.0208  0.3153
 7674W        W23748   6.374   4.847  15.964  0.1361  0.3295 -0.1021
 7675W        W23749  13.357  16.831   5.169  0.1529 -0.0286  0.0687
 7676W        W23750   1.919  10.183  11.358  0.1093  0.1224  0.1576
 7677W        W23751  15.128   8.063  11.725  0.0964  0.0506  0.0389
 7678W        W23752  18.062   4.833  13.938  0.2613 -0.0767 -0.3405
 7679W        W23753   1.886   6.695  13.366  0.0159  0.2124 -0.0396
 7680W        W23754  14.595   6.499   1.043  0.0399  0.2459  0.3860
 7681W        W23755   7.151   1.171   4.558  0.1432  0.2479  0.0114
 7682W        W23756   5.301   5.929   2.268  0.3682  0.2385 -0.0877
 7683W        W23757   9.066   4.283   0.447  0.3818  0.1177 -0.1420
 7684W        W23758  10.136  15.581   4.422  0.1971 -0.1211 -0.2731
 7685W        W23759   8.070  11.500  16.455 -0.2281  0.0976 -0.0765
 7686W        W23760   9.008   2.704   4.081  0.0208  0.0887 -0.3941
 7687W        W23761   4.943  17.387   3.796  0.4212 -0.0651  0.0069
 7688W        W23762   6.514   2.368   2.767 -0.1245 -0.0800 -0.3499
 7689W        W23763  10.605  15.775  13.022 -0.0094 -0.3255 -0.4156
 7690W        W23764   4.428  18.161  16.235 -0.2779  0.2687  0.1865
 7691W        W23765  12.259  11.833  11.833 -0.2534 -0.2369 -0.3415
 7692W        W23766  12.498   8.779   1.921 -0.2232  0.0534  0.0143
 7693W        W23767   3.786   8.472  15.279 -0.0535  0.0478  0.2013
 7694W        W23768  17.279   8.665   2.126 -0.0996 -0.0661 -0.0883
 7695W        W23769   5.971  12.658  11.376  0.1515  0.0289 -0.2117
 7696W        W23770   8.516  12.923   2.528  0.0911  0.0788  0.0261
 7697W        W23771   5.230   6.345  12.845  0.0790  0.0764 -0.2391
 7698W        W23772  16.785   9.634  12.778  0.3414  0.2560 -0.0077
 7699W        W23773  13.752   3.443   4.329 -0.0734  0.0808 -0.0518
 7700W        W23774  16.831  13.001   1.760 -0.1991 -0.2078  0.2519
 7701W        W23775   8.545  14.782  13.367  0.0878  0.1776 -0.0488
 7702W        W23776  15.481   6.788  12.996 -0.2532 -0.0086 -0.4342
 7703W        W23777  17.775   6.336   1.973 -0.4573 -0.0505  0.0728
 7704W        W23778   0.708   2.444  11.160  0.1585 -0.1113  0.1781
 7705W        W23779  11.680  17.327  15.399 -0.5237  0.1436  0.3609
 7706W        W23780   8.398   5.013   1.943  0.0192 -0.1358 -0.1318
 7707W        W23781   0.358  15.754   1.456  0.1124  0.1420  0.1831
 7708W        W23782   9.709   6.303   5.052  0.1399 -0.1308 -0.0650
 7709W        W23783  15.534  14.748   5.467 -0.1559  0.3919  0.1917
 7710W        W23784   1.728   4.622  11.036  0.4233 -0.1073 -0.2606
 7711W        W23785  16.569  10.771   2.744  0.3230  0.1182 -0.1980
 7712W        W23786   4.631   9.637   4.324 -0.0844 -0.4433 -0.0609
 7713W        W23787   7.390   0.129  15.812  0.0128 -0.0793 -0.1297
 7714W        W23788  14.056   3.086  15.778 -0.0116  0.0801  0.2285
 7715W        W23789   4.756  10.975   4.938  0.2008  0.0296 -0.1178
 7716W        W23790  12.792   7.147  12.268  0.1150  0.0461  0.1179
 7717W        W23791   8.172   8.587  11.965  0.3760  0.0158 -0.1125
 7718W        W23792   3.399  16.081   2.089  0.0357 -0.0310  0.3544
 7719W        W23793  13.172  14.953   0.210 -0.0665 -0.4174 -0.0261
 7720W        W23794   9.421   3.854  16.074  0.3464 -0.0457  0.1464
 7721W        W23795   2.229   8.516   5.910  0.0795  0.0460 -0.0286
 7722W        W23796   6.702   3.273  11.948  0.1514  0.1374  0.1253
 7723W        W23797   7.022   8.709   2.234  0.0477  0.0021 -0.0487
 7724W        W23798   1.667   6.515   9.830  0.0046 -0.2656  0.1308
 7725W        W23799  18.207   5.889  14.194  0.1818 -0.2620  0.1375
 7726W        W23800  17.049  10.023  15.548  0.4618 -0.0210  0.0092
 7727W        W23801   2.903   5.330  14.069 -0.1559 -0.0868  0.0487
 7728W        W23802  11.678  16.099   3.387  0.0966  0.1830  0.1113
 7729W        W23803   9.155   9.191  11.170 -0.1542 -0.2047 -0.2582
 7730W        W23804  17.730  15.074   2.939  0.0689  0.1850  0.1582
 7731W        W23805  10.655   1.088   3.723 -0.0934 -0.1528  0.2280
 7732W        W23806  10.282   4.932   3.029  0.1895  0.0314  0.1679
 7733W        W23807  12.789   9.161   3.190 -0.1789  0.1210  0.1089
 7734W        W23808  13.733   4.040   0.558 -0.4497 -0.1134 -0.0546
 7735W        W23809   7.624  10.237  15.091 -0.3245 -0.1381 -0.1298
 7736W        W23810  16.199   4.587   2.142  0.3145 -0.0078  0.2865
 7737W        W23811   1.667  10.894   5.601 -0.3040 -0.0194 -0.0733
 7738W        W23812   6.492   4.418  16.177  0.3089 -0.1105  0.2305
 7739W        W23813   1.639   4.980  12.267 -0.1475 -0.0195 -0.0610
 7740W        W23814  12.933   0.103   4.207  0.0223  0.1342 -0.0335
 7741W        W23815  14.248   7.124  12.382  0.0617  0.2001 -0.1730
 7742W        W23816   9.477   4.110   5.228 -0.0132  0.2906  0.2048
 7743W        W23817  12.296  16.132  14.871  0.2414  0.1146 -0.0537
 7744W        W23818   8.357  16.752   0.285  0.1591  0.2792 -0.3067
 7745W        W23819   6.943  10.406  11.407 -0.3435  0.2182  0.0977
 7746W        W23820   0.411   5.561   2.583 -0.0349 -0.0032  0.1529
 7747W        W23821   4.061  13.012   5.253 -0.3940  0.0485  0.2992
 7748W        W23822   6.237   1.180  12.377 -0.2402 -0.0255  0.0103
 7749W        W23823  16.092  14.618  13.060 -0.0682  0.0607 -0.1143
 7750W        W23824  10.475  15.081   6.464  0.0276  0.3559 -0.0827
 7751W        W23825   2.514   9.619   1.721  0.3363  0.0456 -0.2272
 7752W        W23826   8.301   1.343   3.256 -0.1020  0.3392  0.0396
 7753W        W23827  11.403  16.984  15.870 -0.2236 -0.0025 -0.1888
 7754W        W23828  13.893   5.756   6.323 -0.0275  0.2268 -0.3054
 7755W        W23829   6.474   8.874  11.280  0.1075 -0.2720 -0.0192
 7756W        W23830  12.638  15.931  11.567 -0.0924 -0.1176 -0.1008
 7757W        W23831  10.001   5.852   3.252  0.3411 -0.0408  0.0483
 7758W        W23832  15.559   5.562   0.062 -0.0182  0.0013  0.1279
 7759W        W23833  12.349  13.997   3.419 -0.2146 -0.0583 -0.1106
 7760W        W23834   9.960   2.310  14.857  0.0673 -0.0826 -0.0890
 7761W        W23835   5.867   7.226  11.288  0.0098 -0.3935 -0.2195
 7762W        W23836   1.014  12.543  10.652  0.1361  0.3018 -0.1386
 7763W        W23837  16.100   3.491  13.514 -0.1379 -0.0540  0.1328
 7764W        W23838  13.206   7.042  15.034 -0.1935 -0.1860 -0.0203
 7765W        W23839   2.399   8.814  16.482 -0.1390 -0.1397 -0.0249
 7766W        W23840   4.716  10.026  15.904 -0.1967  0.1187 -0.0801
 7767W        W23841   5.934   6.808   4.985  0.0423  0.1420  0.3597
 7768W        W23842   2.782   8.898  16.212 -0.1369 -0.0959  0.1245
 7769W        W23843  10.103   4.604  15.252 -0.1292 -0.1168 -0.1148
 7770W        W23844  14.720  13.283   2.490  0.0623  0.1757 -0.2417
 7771W        W23845  16.611   1.122   2.701 -0.1656  0.2017 -0.1593
 7772W        W23846  12.220  10.758  16.161  0.2221 -0.4654  0.4130
 7773W        W23847   5.371   2.089  13.571 -0.3582  0.0295 -0.1411
 7774W        W23848  14.131   0.107   5.378  0.1214 -0.2819 -0.0205
 7775W        W23849  16.293   4.975   3.474  0.3171 -0.2671  0.2150
 7776W        W23850  10.388   0.545  14.141 -0.0294  0.1462 -0.1169
 7777W        W23851  16.802   6.258  14.035 -0.0324  0.0537 -0.0002
 7778W        W23852  12.137   3.800  12.122 -0.1582 -0.3749 -0.0184
 7779W        W23853  16.649   0.196  16.292  0.1558  0.1892  0.0213
 7780W        W23854   2.726   6.286  13.541  0.0262 -0.0280  0.1041
 7781W        W23855   1.435   6.284   5.217 -0.1394 -0.1361  0.1314
 7782W        W23856   9.114   5.817   0.551  0.1952  0.0520  0.2020
 7783W        W23857   4.154   5.795   2.594  0.0953 -0.0188 -0.0679
 7784W        W23858  16.973  17.597  16.301  0.1605 -0.0157  0.0500
 7785W        W23859   6.376   4.812  14.493 -0.0761 -0.3793  0.0417
 7786W        W23860   6.748   9.393   2.855  0.0736 -0.0100  0.1235
 7787W        W23861   1.175   2.857   5.241  0.2997  0.3124 -0.0795
 7788W        W23862  12.230  15.468   2.495  0.2214  0.0450  0.0969
 7789W        W23863   3.768   9.925  13.158  0.2436  0.0223 -0.4906
 7790W        W23864  15.610   4.410   1.732 -0.3010 -0.1976 -0.3666
 7791W        W23865   4.032  11.136  12.562  0.0200  0.0573  0.4520
 7792W        W23866   1.189  11.137   1.258  0.3396 -0.1713 -0.0713
 7793W        W23867  15.270  12.640   5.099  0.0418 -0.0003 -0.1202
 7794W        W23868   4.083   4.076   2.902 -0.1705 -0.0281  0.1233
 7795W        W23869   7.252   1.089  15.146 -0.0608 -0.1282  0.0218
 7796W        W23870   1.102  17.188  14.932  0.0910  0.0505  0.1532
 7797W        W23871  17.709   2.559   0.802 -0.2566 -0.3727 -0.1120
 7798W        W23872   8.921   9.396  14.890 -0.0450 -0.1320 -0.1115
 7799W        W23873   2.071  18.158  14.095  0.3526  0.0000  0.1032
 7800W        W23874  12.858  14.766  14.758  0.0091 -0.3683 -0.2192
 7801W        W23875  14.837   8.756   1.207  0.2824  0.5370 -0.2087
 7802W        W23876   3.276   5.502  13.761 -0.1595  0.0074  0.1041
 7803W        W23877  10.200  10.293  11.588  0.2689  0.3993 -0.0260
 7804W        W23878  11.137   5.578   4.140 -0.1052  0.1874 -0.0975
 7805W        W23879  13.510   0.077   0.616 -0.0985 -0.1443 -0.1932
 7806W        W23880  10.025   6.964   2.993  0.0294  0.0166 -0.2819
 7807W        W23881  13.700   3.216   1.066  0.1315  0.0176  0.1184
 7808W        W23882  17.866   7.265  16.447 -0.0699  0.0435  0.1853
 7809W        W23883   0.093  12.580  11.089 -0.1870 -0.1075  0.0052
 7810W        W23884   0.328  15.291  15.023  0.1065 -0.1595 -0.1267
 7811W        W23885  14.325  13.729   1.606 -0.0875  0.1389 -0.0307
 7812W        W23886   8.939  13.921   1.020  0.1820  0.0288  0.1029
 7813W        W23887   7.411  17.829   4.066  0.3993  0.0029 -0.4493
 7814W        W23888   3.434   0.134  13.540 -0.2239  0.2745 -0.0034
 7815W        W23889  16.404   3.924   3.537  0.5976  0.0729 -0.0264
 7816W        W23890  14.206  12.937   2.524 -0.0358 -0.0978 -0.0900
 7817W        W23891  14.373  11.029   4.103  0.0851  0.2906 -0.0772
 7818W        W23892   5.441   5.386   2.485  0.1255 -0.1445 -0.0924
 7819W        W23893  14.221   6.904   1.615  0.0678  0.4145 -0.1123
 7820W        W23894   7.826  16.830  11.936 -0.2427  0.0956 -0.0927
 7821W        W23895   8.754  11.347   4.922 -0.1291  0.0081  0.0360
 7822W        W23896  16.135   0.133   1.971 -0.1217 -0.1033 -0.0588
 7823W        W23897   1.488  16.000  15.057 -0.0470 -0.1369 -0.1182
 7824W        W23898  13.122  18.166   2.877  0.0335 -0.1568 -0.2354
 7825W        W23899   7.717   8.581  14.863 -0.0043  0.1373  0.1157
 7826W        W23900   7.526  11.232  13.761 -0.0684 -0.2377  0.0715
 7827W        W23901   0.565   7.996   4.108  0.4250  0.0565 -0.0304
 7828W        W23902  15.312   9.473   4.902  0.3537 -0.0868 -0.0817
 7829W        W23903   3.473   7.728   2.572  0.0078  0.1384 -0.0664
 7830W        W23904   6.340   6.724   0.524 -0.0757  0.1617 -0.1290
 7831W        W23905   8.142   9.204   3.982  0.1514 -0.0366  0.0681
 7832W        W23906   4.765   2.143   1.599 -0.1227 -0.3984 -0.2554
 7833W        W23907   4.117   7.609   3.746  0.2435  0.0271  0.2622
 7834W        W23908   4.411   2.834  14.054 -0.0316  0.1033  0.0017
 7835W        W23909  17.333   1.906  11.690  0.2116 -0.1494  0.3717
 7836W        W23910  13.736  10.027  12.422 -0.3596  0.0987  0.0152
 7837W        W23911  13.683  11.594   0.728  0.1971 -0.0385 -0.1229
 7838W        W23912   0.344  16.217   1.713 -0.0751 -0.3572 -0.0218
 7839W        W23913   3.033   4.160   0.762  0.1071 -0.0173 -0.0860
 7840W        W23914  12.201   4.962  12.669 -0.3599  0.1872 -0.1850
 7841W        W23915   2.089  12.716   0.676 -0.3122 -0.1262 -0.0194
 7842W        W23916   1.172   5.878   3.245  0.0402 -0.0147 -0.2850
 7843W        W23917   4.854   6.153   0.342  0.1270 -0.3250 -0.1429
 7844W        W23918   0.468   1.925  13.818 -0.0970  0.1559  0.0223
 7845W        W23919   6.352   7.290  16.164  0.2943  0.0136  0.1729
 7846W        W23920  16.847   4.917  12.709 -0.0631 -0.0595  0.1901
 7847W        W23921  17.085   5.853   1.012 -0.0310  0.0173 -0.3811
 7848W        W23922   8.826  10.866  11.603 -0.1006 -0.0360  0.1179
 7849W        W23923  14.674  15.862  15.421  0.1355  0.1035 -0.2067
 7850W        W23924   7.405   8.426  13.281 -0.1141 -0.2712 -0.0135
 7851W        W23925   9.635  14.423   2.225  0.1994  0.1372 -0.2748
 7852W        W23926   9.729  13.442   4.332 -0.1704 -0.3598  0.2573
 7853W        W23927   9.826   4.652  11.985  0.2472 -0.2418  0.0555
 7854W        W23928   2.151   8.488   1.130 -0.0657 -0.0758  0.0093
 7855W        W23929   8.431   6.531  13.293  0.1227 -0.1180  0.0918
 7856W        W23930   8.809   1.687  13.726  0.1543  0.2927  0.1715
 7857W        W23931   3.747  14.749   3.054  0.0606  0.0946 -0.1585
 7858W        W23932  12.888  11.344   4.868 -0.1220  0.1207 -0.1270
 7859W        W23933   4.760   4.795   4.820  0.2204 -0.0021  0.4839
 7860W        W23934   8.804  10.452   5.331 -0.2076  0.2170  0.1709
 7861W        W23935  13.080  10.350   2.211  0.0976 -0.2978  0.2586
 7862W        W23936   9.620   1.239  11.687 -0.1613  0.0099 -0.2803
 7863W        W23937  17.509  13.912  13.756  0.2212 -0.2001 -0.1145
 7864W        W23938  16.001  14.873  15.649  0.0430  0.0811 -0.1967
 7865W        W23939  13.293   0.472  16.435 -0.2446 -0.0801  0.3832
 7866W        W23940   9.274   9.662  11.480  0.1459  0.1631 -0.1189
 7867W        W23941   5.448  15.850   4.569 -0.0407 -0.0150  0.2090
 7868W        W23942   5.303  10.913  11.627  0.1374 -0.1830 -0.0012
 7869W        W23943  11.399  11.126   0.245 -0.1945  0.2654  0.3058
 7870W        W23944   2.410   5.737  15.957  0.1795 -0.1051 -0.1060
 7871W        W23945   3.136   2.075   3.031 -0.0073 -0.2972 -0.4482
 7872W        W23946  17.822   7.455   4.306  0.1016 -0.0060  0.1639
 7873W        W23947   1.489   4.191   3.285  0.3302  0.0469  0.1005
 7874W        W23948  10.839  12.882   0.042 -0.0752  0.0696 -0.3393
 7875W        W23949  13.106  16.269  11.969 -0.0684 -0.0764  0.1018
 7876W        W23950   7.330  11.687   0.143  0.2012  0.1009  0.2847
 7877W        W23951   8.392   9.469   1.121 -0.0325 -0.1124  0.3125
 7878W        W23952   4.064   4.003   2.328 -0.1290 -0.0077 -0.1281
 7879W        W23953   1.660  10.299  15.407  0.0237  0.1559  0.1074
 7880W        W23954   2.806  11.493  12.519 -0.3290  0.3445 -0.2004
 7881W        W23955  14.107   2.177   3.335 -0.2783 -0.4081  0.1873
 7882W        W23956  11.288  16.151  12.404  0.0039  0.0578 -0.0442
 7883W        W23957   4.562  12.204  16.148  0.0901  0.0057 -0.1824
 7884W        W23958  12.081   2.870  12.044  0.1196  0.1962 -0.1472
 7885W        W23959  16.875  17.083  14.425 -0.2079  0.3336 -0.4161
 7886W        W23960   5.946  15.555  14.668  0.2344  0.0973  0.0953
 7887W        W23961   7.443  12.339   1.404 -0.1705 -0.0521 -0.2026
 7888W        W23962   6.139  10.636  11.062  0.2158  0.4809  0.2584
 7889W        W23963   6.410   9.137   1.503  0.0769 -0.2192  0.0670
 7890W        W23964   6.854  13.713  12.607 -0.1736 -0.2351 -0.1333
 7891W        W23965  14.641  14.544  12.594  0.2033 -0.3664  0.4297
 7892W        W23966  13.416  16.753  12.929 -0.0936  0.3012  0.0564
 7893W        W23967  12.030   5.753   1.132 -0.2155 -0.1132  0.1834
 7894W        W23968   9.866  10.679   3.346 -0.3065  0.2236 -0.1187
 7895W        W23969   4.640   6.774   1.242 -0.2049  0.0778 -0.2473
 7896W        W23970   3.858  12.172   4.107 -0.0366 -0.1165 -0.1452
 7897W        W23971   8.620  11.814  11.546 -0.2083 -0.1567  0.0299
 7898W        W23972   0.685   9.934  12.574 -0.1452  0.0200 -0.2434
 7899W        W23973   4.271   5.961   3.447 -0.0350 -0.1240 -0.2469
 7900W        W23974  16.973   8.741   5.159  0.2944  0.1460 -0.1104
 7901W        W23975   4.507  10.284   1.942 -0.1514 -0.1054  0.2229
 7902W        W23976  15.695   6.625  15.317 -0.0504 -0.2544 -0.2582
 7903W        W23977  14.009   3.263   0.634 -0.1762  0.1595  0.4690
 7904W        W23978  15.414  17.761  12.360  0.1713  0.0387 -0.1754
 7905W        W23979   4.939   1.812  13.427  0.0495  0.1040  0.3160
 7906W        W23980  10.372   9.728  15.769 -0.1260 -0.1583 -0.1245
 7907W        W23981  16.537   0.852   0.710  0.1708 -0.0103  0.0869
 7908W        W23982  16.141   8.814  12.354  0.2126  0.0298  0.1037
 7909W        W23983   3.091   3.620  12.089 -0.4342  0.0021  0.0131
 7910W        W23984   3.219   3.166   5.028  0.0031  0.1537 -0.1481
 7911W        W23985  11.346  12.358   1.209  0.0035 -0.0517  0.1879
 7912W        W23986  14.426  15.592   3.888  0.0734 -0.1277  0.2084
 7913W        W23987   9.205  12.053  12.852  0.3371  0.3103 -0.2049
 7914W        W23988   1.215   8.579   2.315  0.0517  0.1327 -0.3184
 7915W        W23989  10.733  10.691   2.343 -0.2337  0.0238 -0.0365
 7916W        W23990   4.541  17.605  14.616 -0.1561 -0.1501 -0.1114
 7917W        W23991   8.204  13.903  14.285  0.2774  0.1218 -0.1599
 7918W        W23992  15.336  13.535   5.466  0.0886 -0.2248 -0.1416
 7919W        W23993  16.896  11.277  12.485 -0.0471  0.1026  0.0043
 7920W        W23994   9.878   0.533  15.203  0.1429 -0.2160  0.1106
 7921W        W23995   8.305  11.402  12.185 -0.0037 -0.0861  0.1963
 7922W        W23996  16.905  16.002   4.756 -0.1013 -0.2539  0.1152
 7923W        W23997  12.379  15.627   2.982 -0.1957 -0.0206  0.0773
 7924W        W23998   9.060  14.925  12.011  0.2888 -0.0044 -0.1603
 7925W        W23999  16.695   9.338  15.794 -0.1577  0.0870  0.1295
 7926W        W24000  11.601   6.130   2.346 -0.1506  0.0477 -0.0302
 7927W        W24001  12.157   3.653   5.762 -0.1258  0.0413 -0.1244
 7928W        W24002  10.288   0.533   4.999  0.0586  0.0908  0.1638
 7929W        W24003  15.742   9.305   5.119  0.2010 -0.1747  0.2156
 7930W        W24004  16.006   1.798   0.128  0.0923  0.3066 -0.3182
 7931W        W24005   3.713   8.983  11.132 -0.2828 -0.3424  0.1833
 7932W        W24006   1.550  11.729  12.753  0.5210 -0.5504  0.0452
 7933W        W24007   4.759  11.731  16.202 -0.1388  0.1177 -0.1261
 7934W        W24008   4.665   4.830  16.147  0.0425  0.0369 -0.2433
 7935W        W24009  10.972  16.255  14.705 -0.2074  0.4532  0.0803
 7936W        W24010   2.009  18.183   1.678  0.0217  0.2944 -0.2476
 7937W        W24011  13.575   5.522   3.454 -0.1146 -0.0032 -0.0860
 7938W        W24012   0.268  10.912   3.766 -0.2867  0.1093  0.0501
 7939W        W24013  13.000  10.766  16.437 -0.1152  0.0478 -0.1484
 7940W        W24014  10.975  17.115  14.840  0.2474 -0.3988  0.3072
 7941W        W24015  18.041   6.427  14.356 -0.0841  0.0419 -0.0617
 7942W        W24016  12.869  16.944  12.995  0.0622 -0.0678 -0.1318
 7943W        W24017  12.508  10.936   1.508  0.1491  0.1727  0.1593
 7944W        W24018  16.311   9.043   0.658  0.1522 -0.0559 -0.0570
 7945W        W24019   2.925   6.388  12.117  0.4134 -0.2503  0.2452
 7946W        W24020  11.420   0.160   2.967 -0.0443  0.2380 -0.2192
 7947W        W24021   6.353   9.494  13.421 -0.3693  0.1765 -0.3376
 7948W        W24022   7.329  14.855   1.877 -0.1091 -0.2621 -0.4781
 7949W        W24023  11.173   6.159  14.646 -0.1315  0.0953  0.0069
 7950W        W24024  17.283   3.194   2.833 -0.1223 -0.0834  0.2843
 7951W        W24025  16.046   7.425  15.575  0.0462  0.0068 -0.1156
 7952W        W24026   4.366  17.067  12.441  0.1197  0.0810  0.0507
 7953W        W24027  12.705   6.846   2.157  0.1537 -0.2830  0.2050
 7954W        W24028   8.493   8.971  13.298  0.1357 -0.3058  0.0419
 7955W        W24029   7.607   9.850  14.720  0.3525 -0.2602 -0.4358
 7956W        W24030   6.118   2.687  12.735 -0.2485 -0.2414  0.0512
 7957W        W24031  10.525   4.750   5.826  0.2296 -0.3343  0.0673
 7958W        W24032   8.813   8.575  13.191 -0.3661 -0.1457  0.0194
 7959W        W24033  17.499  15.015   2.468 -0.1932  0.1397  0.0533
 7960W        W24034   9.906  15.227   2.110  0.3628  0.0323 -0.0379
 7961W        W24035   2.009  14.734  16.023 -0.0962 -0.2335  0.2187
 7962W        W24036  12.419  13.701  12.977  0.0234  0.1340  0.2700
 7963W        W24037   4.169  12.216  15.686  0.0809  0.0531 -0.1124
 7964W        W24038  12.867  12.436  12.543  0.0192  0.1468  0.0323
 7965W        W24039   7.378  16.563   2.452 -0.3779  0.0125 -0.1068
 7966W        W24040   5.180   2.061  11.990 -0.2559 -0.1390 -0.1573
 7967W        W24041  15.876   4.024  16.153 -0.3867  0.0385 -0.0385
 7968W        W24042   6.096   7.624  11.053  0.1129 -0.0440 -0.1394
 7969W        W24043   3.683  16.935  14.755 -0.2497  0.0478  0.1571
 7970W        W24044   4.324  16.626   5.623  0.0406 -0.2143  0.0356
 7971W        W24045   0.426   6.434  13.239 -0.1409 -0.0195 -0.1193
 7972W        W24046   1.768   8.046  13.706  0.1792  0.3540 -0.3451
 7973W        W24047   9.427  11.814  14.855 -0.1855  0.0426  0.1346
 7974W        W24048   2.890  17.385  14.293  0.0276  0.3048 -0.0939
 7975W        W24049   4.335  12.013  12.459 -0.1234 -0.0712  0.1940
 7976W        W24050  11.403   2.763  15.840 -0.0584 -0.3195  0.0858
 7977W        W24051  16.624   9.269   1.112  0.1123  0.1868  0.1296
 7978W        W24052   8.097   8.241   3.696  0.0871 -0.1276 -0.0724
 7979W        W24053   6.671   9.812  13.735  0.1270 -0.2517  0.1062
 7980W        W24054   3.928  15.503   3.653 -0.3215 -0.0011  0.3659
 7981W        W24055   3.922  17.234   4.680 -0.0649 -0.2545  0.1008
 7982W        W24056  10.579  12.471   3.256 -0.2249  0.2061 -0.2716
 7983W        W24057  11.583  14.609   2.357 -0.2263 -0.1867 -0.0233
 7984W        W24058   1.894  10.906   0.526  0.1698  0.2809 -0.1195
 7985W        W24059  13.834   2.954   0.254 -0.1743 -0.4334  0.4088
 7986W        W24060  15.341   3.531  13.451  0.2724 -0.1879 -0.1964
 7987W        W24061   8.334  11.097  16.303  0.1092 -0.0800 -0.2040
 7988W        W24062   4.392   2.159   1.302  0.0434 -0.1186 -0.0758
 7989W        W24063  17.700   2.839  11.391  0.1473  0.3288 -0.0551
 7990W        W24064   4.123   1.131   4.838  0.2498 -0.1535  0.1499
 7991W        W24065  12.358   7.026   6.407  0.0747  0.0422 -0.1458
 7992W        W24066  15.639  11.392   1.995  0.2045  0.0818  0.0202
 7993W        W24067  12.479  10.294  13.578 -0.2065  0.2452  0.4079
 7994W        W24068  14.348   3.459  14.232 -0.2162 -0.0855  0.1541
 7995W        W24069  17.590   5.285   4.681 -0.1564  0.1720  0.2339
 7996W        W24070   4.374  13.592  13.117  0.3449 -0.0379 -0.0500
 7997W        W24071  15.946   9.118   4.669  0.2293  0.1739  0.1089
 7998W        W24072   3.004   4.711   3.021 -0.0096  0.5214 -0.1993
 7999W        W24073  10.394   4.800  14.908 -0.0547 -0.0772  0.0544
 8000W        W24074  15.593   7.631  15.474  0.0405  0.3256  0.0249
 8001W        W24075   4.827  17.408  15.647 -0.1185  0.1576 -0.1490
 8002W        W24076   6.846  15.303   1.334  0.5132 -0.0803 -0.1461
 8003W        W24077   4.212  15.929   4.481 -0.0609 -0.0142  0.0109
 8004W        W24078   5.375  14.287   0.348 -0.0436  0.2251  0.1646
 8005W        W24079  16.251   5.623  12.315 -0.1218  0.1714  0.1392
 8006W        W24080   9.769   9.543   2.294  0.3992 -0.0166 -0.0261
 8007W        W24081   1.967   2.770   1.322 -0.0719  0.5721  0.1368
 8008W        W24082  14.078   6.575   4.713 -0.2953 -0.1015  0.0389
 8009W        W24083   3.765   6.487   5.065 -0.2588 -0.2068 -0.0140
 8010W        W24084  17.784   5.390   3.269 -0.2138 -0.1083  0.0920
 8011W        W24085   2.585  17.832  13.070 -0.0584 -0.0492 -0.1940
 8012W        W24086  11.286  11.898   3.411 -0.0570  0.2685 -0.2367
 8013W        W24087  14.811   4.468   4.703  0.2731 -0.0661 -0.3548
 8014W        W24088   0.293   8.237   0.476 -0.1521  0.1919  0.3912
 8015W        W24089   7.652  11.245   5.337  0.1404 -0.1338 -0.0154
 8016W        W24090   8.573  14.843  15.797  0.0164  0.2165 -0.1677
 8017W        W24091  12.307   7.272   4.447 -0.0256 -0.1725  0.1727
 8018W        W24092  12.075  14.935  11.377 -0.2430 -0.0210  0.0245
 8019W        W24093   5.641   6.875  15.224 -0.1843 -0.1104 -0.2532
 8020W        W24094   8.425   9.766   2.764 -0.0062  0.0218 -0.3502
 8021W        W24095   7.846  12.384   4.176 -0.2861 -0.2780  0.3401
 8022W        W24096   3.739   0.972   0.481  0.0364  0.2082 -0.2452
 8023W        W24097   3.441   5.452  14.894  0.0083 -0.1196  0.1257
 8024W        W24098  17.491   8.687   5.025  0.0149 -0.0633 -0.3282
 8025W        W24099  15.598   9.997   2.096  0.2194  0.0218 -0.1607
 8026W        W24100   4.119  13.493  13.539 -0.0212 -0.1973  0.0714
 8027W        W24101   9.813   7.451  15.075  0.0239  0.0155 -0.4266
 8028W        W24102   0.104  14.883  13.389  0.0128  0.0668 -0.0339
 8029W        W24103   5.448   2.413  12.925  0.1497 -0.3945  0.0822
 8030W        W24104  11.676   5.546  15.138  0.0164 -0.4196 -0.0700
 8031W        W24105   2.771   6.747  14.378  0.2849 -0.3428  0.2401
 8032W        W24106  13.155   9.332   1.856 -0.3011 -0.1434  0.1512
 8033W        W24107  15.399   1.433   2.622  0.1196 -0.1560 -0.2108
 8034W        W24108   5.056   8.471  14.921  0.0745 -0.2470 -0.1025
 8035W        W24109   4.163  14.375   3.596 -0.2856 -0.4374  0.1515
 8036W        W24110   0.394   8.571   3.091 -0.0135  0.1068  0.1876
 8037W        W24111   3.838  14.224   3.199 -0.1468 -0.2534  0.4703
 8038W        W24112  15.018  16.469   5.434  0.1812 -0.0963 -0.6327
 8039W        W24113   2.648  16.038   4.506 -0.3495  0.0424 -0.2680
 8040W        W24114   3.637   2.920  12.325  0.0469  0.0213  0.0389
 8041W        W24115   3.528  10.520   4.518 -0.0498  0.0078 -0.1387
 8042W        W24116  13.097   9.696   5.133  0.2972  0.0731  0.3316
 8043W        W24117   3.332   5.190   5.378 -0.0572 -0.1447 -0.1179
 8044W        W24118  14.927  15.623  13.197  0.2953 -0.2118  0.5489
 8045W        W24119   3.162  16.584   2.763 -0.1023 -0.2133  0.2184
 8046W        W24120  16.689   5.407   2.390  0.0713  0.1221  0.0105
 8047W        W24121   9.584   3.116   3.394  0.0394 -0.0436  0.2065
 8048W        W24122  14.113  14.389   6.043  0.0556  0.6448  0.0364
 8049W        W24123  17.722   8.220   0.768  0.1339  0.0381 -0.0688
 8050W        W24124   1.294   5.053   2.227 -0.0552 -0.1259 -0.0740
 8051W        W24125   1.404  15.748  16.476  0.1325  0.1289  0.2187
 8052W        W24126   5.464  18.128   2.464 -0.1642 -0.1241  0.0482
 8053W        W24127   9.917  14.810  13.114  0.0591 -0.3620  0.0692
 8054W        W24128   4.323   6.983   0.644 -0.0966  0.3530  0.0062
 8055W        W24129  17.019   3.710  14.209  0.2748 -0.1324 -0.0089
 8056W        W24130   2.561   8.349   6.267  0.4492  0.2501 -0.1575
 8057W        W24131  12.511   6.949   0.574  0.1535 -0.0197 -0.0721
 8058W        W24132  13.000   2.527  13.165  0.0851  0.1000 -0.4389
 8059W        W24133  13.622   9.450  16.313 -0.0892  0.0665  0.3133
 8060W        W24134  16.266   2.395   5.837 -0.0199 -0.3641 -0.0316
 8061W        W24135   1.723  17.235  12.302 -0.3961 -0.2810 -0.0121
 8062W        W24136   5.265   9.428  15.533  0.1759 -0.2638  0.1342
 8063W        W24137   9.921   5.967  12.660  0.1616  0.4091 -0.0890
 8064W        W24138  13.206  13.881   2.788  0.0946  0.1610  0.1182
 8065W        W24139   1.913  10.174  16.390  0.1714  0.1491  0.0268
 8066W        W24140  16.719  13.267   5.368 -0.0172 -0.1032  0.0638
 8067W        W24141   7.868   4.891   4.905 -0.0511 -0.2534 -0.3659
 8068W        W24142  11.141   8.786   0.464 -0.1942 -0.3177  0.2988
 8069W        W24143  12.725   9.966   4.411 -0.1053 -0.0405 -0.2086
 8070W        W24144  10.806  15.839  14.982  0.0317  0.1289  0.0429
 8071W        W24145  17.607   1.767  12.558 -0.1303 -0.2496 -0.1264
 8072W        W24146   2.066   6.032  15.719  0.2288  0.1496  0.0562
 8073W        W24147  17.050   3.437  11.191 -0.0551 -0.0299 -0.0976
 8074W        W24148  17.809   6.771   1.221 -0.2444  0.0147  0.0918
 8075W        W24149   5.177   9.066   1.999  0.0365 -0.1806  0.3621
 8076W        W24150   8.000   0.508   6.192 -0.3735 -0.2476 -0.2626
 8077W        W24151  12.199  13.121   1.954  0.0079 -0.0515 -0.0854
 8078W        W24152   0.594   5.097   2.855 -0.1622 -0.1167  0.2770
 8079W        W24153   1.895  12.603  14.985  0.0053  0.1565 -0.1658
 8080W        W24154   8.284  12.197  11.417  0.2979 -0.0735 -0.2435
 8081W        W24155  16.226  12.289   2.148 -0.2105  0.0712  0.3346
 8082W        W24156   6.694   1.291   5.400 -0.1126  0.3720  0.0294
 8083W        W24157  18.004   3.151  15.621  0.0484  0.1989  0.1247
 8084W        W24158  15.733   8.169  14.619  0.0213 -0.3340  0.2245
 8085W        W24159  15.201  12.661  14.085 -0.2361  0.2061 -0.2473
 8086W        W24160   9.221   4.636   2.438  0.0102 -0.1979 -0.0850
 8087W        W24161  15.052  12.260  16.350  0.5018 -0.1270 -0.1708
 8088W        W24162   9.734  12.838  12.704 -0.0495 -0.0768 -0.2626
 8089W        W24163   8.516  10.025  11.638  0.0457  0.3307 -0.0940
 8090W        W24164  13.192  13.608   3.233 -0.0337  0.0063  0.1368
 8091W        W24165  17.943   8.578  12.621  0.2939 -0.1715  0.0702
 8092W        W24166  10.510  11.432   0.569 -0.2026  0.2080  0.0728
 8093W        W24167   1.798   3.580   1.475 -0.2255 -0.0186 -0.1081
 8094W        W24168   1.266   8.827   0.572  0.4554  0.0081 -0.0268
 8095W        W24169   9.509  16.732  15.707 -0.0072 -0.0022 -0.1887
 8096W        W24170  12.450  10.768   0.129  0.0317  0.1374  0.3796
 8097W        W24171  13.533  17.579  12.483  0.2812  0.0195  0.2994
 8098W        W24172   5.649   1.846  11.703  0.1705  0.1477  0.0533
 8099W        W24173   5.657   5.744  14.153 -0.0086  0.0624  0.1652
 8100W        W24174  16.108   4.214   5.572  0.1263 -0.0133 -0.0713
 8101W        W24175  15.637  14.571  12.805 -0.0167 -0.1264 -0.0132
 8102W        W24176  11.770  16.325  13.131  0.1231  0.0416  0.1133
 8103W        W24177   0.705   3.416  14.423  0.0616 -0.2945  0.0966
 8104W        W24178   4.756   5.800   1.210 -0.2377  0.2063  0.3419
 8105W        W24179   4.154   3.993   3.387 -0.0751  0.1588  0.1600
 8106W        W24180  10.030  13.377  12.509  0.1388  0.3586  0.1650
 8107W        W24181  10.489  13.014   4.080 -0.2248  0.2496  0.2208
 8108W        W24182  15.411   3.093   1.843 -0.3261 -0.1546 -0.1409
 8109W        W24183  11.054  16.904   5.461 -0.1826 -0.1662  0.0628
 8110W        W24184  12.549  18.189   2.500 -0.3235  0.0580 -0.0446
 8111W        W24185  18.101  15.219   0.864 -0.1329 -0.0181 -0.1972
 8112W        W24186   5.759   2.635   1.355 -0.2894  0.1698  0.1964
 8113W        W24187   0.825  13.976  11.236  0.5677 -0.0199 -0.4472
 8114W        W24188   0.191   3.442   3.648  0.1486  0.0024 -0.0334
 8115W        W24189   3.949   7.938  12.887  0.1336  0.1415 -0.0221
 8116W        W24190  14.220   2.902  11.485  0.0087  0.2517 -0.0433
 8117W        W24191   1.447   8.510   3.211  0.1606  0.1106 -0.1799
 8118W        W24192  14.906  18.063   1.410 -0.0014 -0.2632  0.0279
 8119W        W24193   0.799  12.586   3.591 -0.0123 -0.0504 -0.1695
 8120W        W24194   9.748   6.313   5.624  0.0248 -0.0147 -0.1976
 8121W        W24195   8.888   7.731  14.926  0.0840  0.2256  0.0739
 8122W        W24196   5.686   3.846   1.364  0.0005  0.0373  0.0353
 8123W        W24197  11.625   3.741  12.270 -0.0103  0.1220 -0.1906
 8124W        W24198   0.746   3.167  15.340 -0.2745 -0.3628 -0.0751
 8125W        W24199  16.350  10.042  11.801  0.2096 -0.0068 -0.0253
 8126W        W24200  16.824  12.563   5.247  0.1893 -0.1130 -0.1869
 8127W        W24201  16.871   7.926   0.253  0.1260  0.5455  0.0401
 8128W        W24202  12.279   1.291  15.718  0.0956  0.0537 -0.1634
 8129W        W24203  13.878   2.591   1.528  0.4157  0.1374 -0.0433
 8130W        W24204   3.977   7.947   4.097 -0.0065  0.0721  0.3188
 8131W        W24205   9.095   6.195  13.619  0.2151  0.1783 -0.0331
 8132W        W24206  14.451   9.860  14.796 -0.2883 -0.1171 -0.1233
 8133W        W24207   9.622   1.898   5.332 -0.0297  0.0004  0.2843
 8134W        W24208   4.472  18.175  14.514 -0.0441  0.0302 -0.0467
 8135W        W24209   4.313   4.483  15.979 -0.0928 -0.0126 -0.0212
 8136W        W24210   4.287  16.676  15.830  0.3844  0.0100 -0.0378
 8137W        W24211  14.954   1.801   2.653 -0.0197 -0.0759  0.1920
 8138W        W24212   5.321   1.101   3.942 -0.0735  0.1121 -0.1225
 8139W        W24213   5.616  16.828   4.787  0.2433  0.2691  0.2677
 8140W        W24214   4.929   0.961   0.009 -0.0054 -0.1849  0.2072
 8141W        W24215  16.555   4.237  15.062  0.4308  0.0021 -0.0363
 8142W        W24216  18.184  10.395   0.871 -0.1185  0.1128 -0.0115
 8143W        W24217   8.245   6.852  13.602 -0.1175  0.0638  0.2532
 8144W        W24218  14.981   8.053   3.178 -0.0739  0.3379  0.1187
 8145W        W24219   0.893   3.301  13.370  0.0957  0.0638  0.0801
 8146W        W24220  14.303   0.889   3.822 -0.2063  0.0429 -0.1728
 8147W        W24221  16.309   6.705  15.952 -0.0274 -0.2555  0.1379
 8148W        W24222   9.050   1.626  16.478  0.5640  0.0635 -0.0398
 8149W        W24223   3.131  13.943   0.555 -0.1142  0.0354  0.1071
 8150W        W24224   8.567   4.739   1.599 -0.0843  0.1880 -0.1435
 8151W        W24225  18.184   2.337   1.886  0.0320  0.3912 -0.1529
 8152W        W24226  11.758  13.529   0.398 -0.0447 -0.1720  0.0907
 8153W        W24227   3.034   7.853   4.306 -0.0409 -0.1057 -0.0363
 8154W        W24228   2.408  12.707  14.967 -0.0882 -0.2065  0.2792
 8155W        W24229  11.392   6.371  12.125  0.0041  0.2178  0.1066
 8156W        W24230   2.228  12.003   3.629 -0.0276  0.1208  0.0637
 8157W        W24231  16.343   6.106   4.233 -0.2379  0.2798  0.0121
 8158W        W24232  16.126   0.576   4.492  0.0290  0.1105 -0.3086
 8159W        W24233   4.116  12.073  11.919  0.2043 -0.1509 -0.0866
 8160W        W24234  15.691  15.761   1.745 -0.2177 -0.1285 -0.0505
 8161W        W24235  10.634   4.404  14.751 -0.0163 -0.3844 -0.4313
 8162W        W24236  13.403   2.899   1.363 -0.1237  0.2203  0.1099
 8163W        W24237  15.893   0.353  12.366  0.0065  0.1169 -0.1598
 8164W        W24238  16.606  12.585  11.564 -0.1075  0.1019  0.2090
 8165W        W24239  11.050   8.901   1.790 -0.1326  0.2868 -0.0290
 8166W        W24240   9.674   1.416   4.015 -0.1015 -0.1764  0.0010
 8167W        W24241   2.000   8.764  10.457 -0.0538  0.0292 -0.1846
 8168W        W24242   7.942   2.285   4.122  0.2448  0.0229  0.1965
 8169W        W24243  17.942   5.680   5.607  0.1979 -0.0174  0.3256
 8170W        W24244   3.931   9.766   2.787  0.0934 -0.1289  0.1004
 8171W        W24245  17.979  15.582   5.258 -0.0291 -0.0980  0.2932
 8172W        W24246  16.041  12.890  14.296 -0.1337 -0.0032 -0.0209
 8173W        W24247  10.043  15.488   5.849  0.4626  0.1192 -0.0585
 8174W        W24248   5.023   6.464  16.276  0.1591 -0.2826 -0.2809
 8175W        W24249  14.794   6.916  13.490  0.1243  0.1070  0.2322
 8176W        W24250   1.942  14.209  16.011  0.2389 -0.2701 -0.1168
 8177W        W24251  10.695   4.348   2.106  0.1003  0.0054  0.3740
 8178W        W24252   7.696  13.922   3.226  0.1187  0.0922 -0.1036
 8179W        W24253  10.311  14.913  16.150 -0.0474  0.1291 -0.3373
 8180W        W24254   3.677   2.359  12.218  0.0728  0.0065  0.0344
 8181W        W24255   1.754  12.024  13.125  0.1080  0.0432 -0.0127
 8182W        W24256  14.652   8.300  13.746 -0.1290  0.1807  0.1991
 8183W        W24257   3.977   5.367  15.875 -0.0186  0.0736  0.3674
 8184W        W24258   3.923  16.597  13.066  0.1664 -0.3770 -0.0043
 8185W        W24259   6.132  13.022  10.629  0.0295 -0.2023 -0.4403
 8186W        W24260   0.866   3.803  12.602 -0.1210 -0.0368  0.1332
 8187W        W24261   7.214  15.133  15.978  0.5420 -0.0301  0.1225
 8188W        W24262  17.016  16.329  11.868  0.0037 -0.0076  0.3062
 8189W        W24263   7.754  15.466  13.374  0.1134 -0.1920 -0.1023
 8190W        W24264   3.514  14.531   1.337  0.0589 -0.0904 -0.4589
 8191W        W24265   6.225  11.593   0.105 -0.1050 -0.1136  0.3015
 8192W        W24266   9.721  10.433  13.678 -0.1077  0.1970  0.0238
 8193W        W24267  12.376  15.618   4.767  0.0365  0.1212  0.1402
 8194W        W24268  17.153  15.839   5.586  0.1527 -0.2312  0.1726
 8195W        W24269  16.977   4.088   0.956  0.1910 -0.5244 -0.0224
 8196W        W24270   5.691   7.825   4.277  0.0236  0.2109 -0.1496
 8197W        W24271   0.210  12.151  15.280  0.0230  0.0062  0.3743
 8198W        W24272   7.365  12.654  12.678  0.0559  0.0744  0.1183
 8199W        W24273   0.975  17.504   6.201 -0.0345 -0.2339  0.1008
 8200W        W24274  15.315  12.060   1.281  0.1191  0.0247 -0.1744
 8201W        W24275   3.914  16.804   4.541 -0.0151  0.2658  0.0968
 8202W        W24276   1.772  11.322  13.184  0.1662 -0.1535  0.0085
 8203W        W24277  15.385   3.713  12.461 -0.1524 -0.2273  0.2909
 8204W        W24278   4.872  16.611  10.779 -0.0755  0.4452 -0.2161
 8205W        W24279   5.158  16.986   0.238 -0.0202 -0.1900  0.1762
 8206W        W24280  11.197  13.048  16.253  0.0244  0.2090 -0.1078
 8207W        W24281   5.592  16.901  11.702 -0.2478 -0.1208  0.2734
 8208W        W24282   2.645  17.351  16.114 -0.2250  0.0899 -0.0169
 8209W        W24283  14.014  11.704   5.324 -0.1185  0.3406 -0.0416
 8210W        W24284   9.268   5.484  14.071 -0.1515 -0.0437 -0.2948
 8211W        W24285   7.501  16.253   0.023  0.1583  0.0962 -0.2086
 8212W        W24286   9.197  13.946   5.965  0.0560  0.1005 -0.1601
 8213W        W24287  14.306  12.103   0.705  0.2214  0.4199 -0.1552
 8214W        W24288   3.338  11.047  13.806  0.1896 -0.1659  0.1429
 8215W        W24289  13.915   0.528  14.352  0.2105 -0.1605 -0.1944
 8216W        W24290   0.108  15.588   0.013  0.1288 -0.1974 -0.3285
 8217W        W24291  12.450  16.484   1.236 -0.1514 -0.1722  0.0362
 8218W        W24292   2.689   5.723  14.466  0.0805 -0.1124  0.2730
 8219W        W24293   3.646   8.560  13.835  0.4298  0.0040  0.1175
 8220W        W24294   3.811  17.185   4.139 -0.0756 -0.2090 -0.2184
 8221W        W24295  13.140  17.877  13.840 -0.1202  0.1697  0.0822
 8222W        W24296  11.589  17.228   4.344 -0.1829  0.1018  0.0850
 8223W        W24297   9.304   9.718   2.416  0.0796 -0.2789  0.1410
 8224W        W24298  13.382   6.611  11.798  0.1720  0.0891  0.2384
 8225W        W24299   3.362   2.100  12.506 -0.2422 -0.0312  0.0315
 8226W        W24300  17.418   4.412   0.984  0.3454 -0.0620  0.1823
 8227W        W24301   2.188   3.797  14.039  0.0518 -0.0126  0.0502
 8228W        W24302  12.639   7.873   3.812  0.0874  0.0371  0.1156
 8229W        W24303   6.432  18.068   4.766  0.0655  0.0771 -0.0849
 8230W        W24304  11.404   0.155  16.163 -0.1447 -0.1653  0.0797
 8231W        W24305   6.376   4.873  13.969 -0.0961 -0.0965 -0.0229
 8232W        W24306  18.226  15.562  15.350 -0.1401 -0.0384  0.0845
 8233W        W24307   7.521  12.647  13.920 -0.0370  0.2741 -0.1357
 8234W        W24308   1.769   4.058  15.995 -0.1137 -0.0098  0.0155
 8235W        W24309   0.556  10.491  15.765  0.1529 -0.3993 -0.0205
 8236W        W24310   2.538  10.130   3.061  0.0986 -0.3676  0.0697
 8237W        W24311   6.768  15.530  14.665 -0.2821  0.1610 -0.1657
 8238W        W24312   6.895   5.269  12.259  0.3033 -0.1462  0.2533
 8239W        W24313  17.500  17.793   4.228 -0.2339  0.0995 -0.0253
 8240W        W24314  17.072   9.610   5.101 -0.2350  0.0787  0.0960
 8241W        W24315   4.388  13.540  15.556  0.1943  0.1166  0.1126
 8242W        W24316   3.528   8.056   5.095 -0.0164  0.0226  0.1663
 8243W        W24317   7.311  10.921   2.060 -0.0632  0.0851 -0.0691
 8244W        W24318  11.201   3.650   6.069  0.0128 -0.1913 -0.0285
 8245W        W24319   1.905  16.659   4.234  0.0159 -0.1688  0.2217
 8246W        W24320  11.540   9.685  12.878  0.0828 -0.1182 -0.2580
 8247W        W24321  12.573   3.659  15.266  0.0400 -0.1214 -0.2046
 8248W        W24322  12.366  10.631  11.779 -0.2576  0.0998 -0.1380
 8249W        W24323   2.368   9.161   4.497 -0.0287  0.0419 -0.3311
 8250W        W24324   9.333   0.312   1.833  0.1984 -0.1777 -0.2358
 8251W        W24325   9.483   3.099  14.876  0.0144 -0.3447  0.0485
 8252W        W24326   4.867   3.001  13.931 -0.2305 -0.0474 -0.0613
 8253W        W24327   7.030   6.637   3.176 -0.1619 -0.1461 -0.2428
 8254W        W24328  10.205  11.829   1.600  0.0260  0.0661 -0.0549
 8255W        W24329   8.678  16.493  12.514  0.0120 -0.2044  0.1978
 8256W        W24330   5.032  16.819   5.080 -0.0902 -0.1942  0.0762
 8257W        W24331   0.977   7.828  13.079 -0.0039 -0.0084 -0.1856
 8258W        W24332  14.248   7.981   0.227  0.2053 -0.0060 -0.0811
 8259W        W24333  16.305  15.289   3.302 -0.2134  0.1612  0.0775
 8260W        W24334   4.622  10.117  13.276 -0.0218 -0.2594 -0.1393
 8261W        W24335  16.893  12.234  12.316 -0.1785  0.1460 -0.0008
 8262W        W24336   7.253   5.440  11.230 -0.3464  0.0010  0.0801
 8263W        W24337   0.856   9.049  12.786  0.2176  0.0588 -0.0383
 8264W        W24338  16.822   9.153   0.645 -0.2673 -0.0842 -0.3401
 8265W        W24339   3.105  12.144   1.281  0.2235 -0.2090  0.0898
 8266W        W24340   1.903   5.054  15.567 -0.0184 -0.2215 -0.1094
 8267W        W24341   5.898  12.683  12.853  0.0890  0.1511 -0.2568
 8268W        W24342  15.750   2.534  16.350 -0.3343  0.4768 -0.0139
 8269W        W24343  14.869  11.732  14.146  0.0742  0.3567 -0.0227
 8270W        W24344   5.090   3.359  14.353  0.0380 -0.0455  0.0496
 8271W        W24345  10.362   6.981   5.480 -0.0271 -0.0836 -0.3025
 8272W        W24346   2.322  11.470  12.610  0.1862 -0.1230  0.0006
 8273W        W24347   2.924   7.215   3.820 -0.1137 -0.2333 -0.0004
 8274W        W24348   9.928  18.148   5.324 -0.0660  0.1455 -0.0751
 8275W        W24349   2.117  17.882  12.698  0.2228 -0.2559 -0.0915
 8276W        W24350  12.669   8.645   3.673  0.2997  0.0046 -0.1551
 8277W        W24351   1.176  14.342  12.200 -0.2397 -0.2553  0.0888
 8278W        W24352   6.133  10.629  14.956 -0.3707 -0.2721 -0.1035
 8279W        W24353   7.511   0.254  13.504  0.0248  0.2359 -0.1409
 8280W        W24354  11.327   2.010   2.723  0.0116  0.1150 -0.0385
 8281W        W24355   0.434   5.016   1.875 -0.0711 -0.0802 -0.3040
 8282W        W24356  10.980   2.600  14.765  0.1724  0.1434 -0.1452
 8283W        W24357  15.009  13.317   5.159 -0.0046  0.1768 -0.0719
 8284W        W24358  12.523   6.562   1.223 -0.0417 -0.1547 -0.0663
 8285W        W24359  13.483  16.819   6.238  0.0127 -0.1224  0.0801
 8286W        W24360  14.803  17.465   5.195  0.1038 -0.0509  0.0470
 8287W        W24361   0.004   0.066  11.672  0.0047  0.4410 -0.0733
 8288W        W24362  17.506  12.133   3.269 -0.2543 -0.1535  0.0821
 8289W        W24363  11.168   5.773   3.702  0.0223 -0.1118  0.0267
 8290W        W24364  12.328  14.484  13.378  0.2904 -0.1660  0.0072
 8291W        W24365   5.124   2.858  11.596 -0.3048  0.1348 -0.2508
 8292W        W24366   5.490   4.919   0.203  0.2150 -0.0147 -0.0376
 8293W        W24367  11.669   9.679   2.512 -0.0262 -0.1343 -0.0668
 8294W        W24368  14.237  17.491  14.888 -0.0481  0.0902  0.2305
 8295W        W24369   8.387  17.553  13.041 -0.1089  0.0973  0.0833
 8296W        W24370   4.454   6.361  12.577 -0.0098 -0.0170  0.0097
 8297W        W24371  12.690  11.402   1.677  0.0973 -0.0997  0.2299
 8298W        W24372   0.922   2.460   2.716 -0.0957  0.0698 -0.1052
 8299W        W24373  12.113  14.333   4.839 -0.1089  0.0856  0.1478
 8300W        W24374   4.128   1.863  11.521  0.0761 -0.0328  0.1186
 8301W        W24375  13.412   9.436   4.288  0.1049 -0.2823 -0.1797
 8302W        W24376   1.093   9.145   4.702 -0.0518  0.2783 -0.0290
 8303W        W24377  15.636  11.092   5.225  0.0137 -0.1437 -0.3785
 8304W        W24378  13.010  12.069   1.144 -0.2032 -0.1172  0.3921
 8305W        W24379  16.934  15.255   1.413 -0.1389 -0.0745  0.0398
 8306W        W24380  17.658  16.802   1.796  0.2269  0.2664  0.2850
 8307W        W24381   7.503  15.092   2.303  0.0925  0.0064 -0.0443
 8308W        W24382  12.954  15.769   2.113 -0.0937  0.1638  0.1029
 8309W        W24383   1.632  13.131   4.878  0.0325 -0.3936  0.0026
 8310W        W24384  13.549   7.309   4.511 -0.1459 -0.3887  0.1253
 8311W        W24385   5.346  10.199   4.959 -0.0341 -0.2432  0.0937
 8312W        W24386   5.548  15.176  13.167  0.0869 -0.1094  0.2066
 8313W        W24387   5.240   4.436   4.448 -0.1409 -0.0326 -0.2193
 8314W        W24388   7.479  11.253  12.238  0.0336 -0.0492  0.1558
 8315W        W24389   0.010  13.209  11.827 -0.0199 -0.0782 -0.1555
 8316W        W24390  10.605   0.154   2.192 -0.1779  0.0042  0.3092
 8317W        W24391  15.109   5.610  12.624  0.1306  0.0779  0.3002
 8318W        W24392  17.724   8.098   3.427 -0.3201  0.0612 -0.0903
 8319W        W24393   7.875  10.827  16.144 -0.0094 -0.0171 -0.0600
 8320W        W24394  17.171   6.825  11.921  0.2082  0.0794  0.0197
 8321W        W24395  12.582  14.825  15.285  0.1094 -0.0059 -0.1504
 8322W        W24396   6.151   8.522  11.419  0.1087  0.1124 -0.1392
 8323W        W24397  14.969   7.481   0.020  0.0878  0.2966  0.2794
 8324W        W24398  14.040  15.093  15.684  0.0258  0.2185  0.0236
 8325W        W24399   5.893   9.794  11.370 -0.1025 -0.0118 -0.2353
 8326W        W24400  11.254   9.362  12.521 -0.1658  0.0514  0.0784
 8327W        W24401  11.666  17.266   2.210 -0.1286  0.1012 -0.2973
 8328W        W24402   3.444  17.286  15.052  0.0603 -0.1115  0.1111
 8329W        W24403   8.259   1.321   0.984 -0.4316  0.2278 -0.0137
 8330W        W24404   4.826   4.180   2.329  0.0153 -0.1143 -0.2315
 8331W        W24405   8.879   8.082   2.244 -0.0915 -0.0470  0.1609
 8332W        W24406   3.759  11.763   1.640 -0.3339  0.0755 -0.3813
 8333W        W24407   3.528   3.228  11.361 -0.1223 -0.1154  0.2693
 8334W        W24408   8.113   3.424   5.684  0.1530 -0.3356  0.0441
 8335W        W24409   7.414   1.564   4.795  0.1239  0.1822  0.1362
 8336W        W24410   5.526  10.753   0.103  0.0393  0.3230 -0.2868
 8337W        W24411   0.138   7.651  16.205 -0.1235 -0.2409  0.2099
 8338W        W24412  11.608   9.585  13.557  0.0566  0.0546 -0.1227
 8339W        W24413  13.125  15.170   1.422  0.1808 -0.1849 -0.4124
 8340W        W24414   0.147  14.061   1.040  0.3507  0.2926 -0.0892
 8341W        W24415   3.083   9.179  15.533 -0.2341 -0.2832 -0.0867
 8342W        W24416   8.106   5.036  11.601  0.3020  0.0636  0.3286
 8343W        W24417  14.375   8.630   6.520 -0.0179  0.4218 -0.1147
 8344W        W24418  11.395  15.766   4.737  0.0686  0.0446  0.4694
 8345W        W24419   5.742   7.898  14.718 -0.2781 -0.0295  0.0088
 8346W        W24420   5.471  17.402  13.907  0.1625 -0.0104  0.0038
 8347W        W24421   5.351  17.919  16.432 -0.0005 -0.0469  0.0434
 8348W        W24422  12.701  15.652   2.539  0.2930  0.1592 -0.0832
 8349W        W24423   1.171  17.929  13.695 -0.6557 -0.1107 -0.0065
 8350W        W24424   7.250  10.897   1.505 -0.2754 -0.3220  0.1501
 8351W        W24425  10.937  14.093  14.075 -0.1469  0.1119  0.2123
 8352W        W24426  13.735  16.068   6.154  0.4290  0.2337 -0.1078
 8353W        W24427   8.482   1.565   5.608 -0.0879 -0.0663  0.3179
 8354W        W24428  13.051   4.047  14.107 -0.2268 -0.0380 -0.2909
 8355W        W24429  14.656  12.815  14.384  0.2509  0.0322 -0.2037
 8356W        W24430  11.712  14.784   0.877  0.0740 -0.3019  0.0891
 8357W        W24431   8.791   2.008   0.562  0.1003 -0.1441  0.0653
 8358W        W24432  16.056   2.423  13.757  0.2887  0.2017  0.3439
 8359W        W24433  10.923  11.652   4.417  0.1742 -0.1786 -0.4553
 8360W        W24434   1.600   8.118  14.718  0.1746 -0.1876 -0.1590
 8361W        W24435   2.822  12.616   1.397  0.0545 -0.2564 -0.0379
 8362W        W24436  14.757   6.592  14.714 -0.0862 -0.4758  0.3887
 8363W        W24437   2.429   9.122   1.852  0.0805  0.1687 -0.2563
 8364W        W24438   1.721   2.943  13.545 -0.1169 -0.0103 -0.0563
 8365W        W24439   4.318   4.719  13.788 -0.1872  0.2621  0.0233
 8366W        W24440   3.861   8.831  16.351 -0.0716  0.3010  0.2202
 8367W        W24441   0.722   0.694   4.375  0.1588  0.0418  0.0040
 8368W        W24442   1.871   4.169  14.347 -0.0844 -0.3471  0.0206
 8369W        W24443  12.109   0.575  14.784  0.0063 -0.2163 -0.2348
 8370W        W24444   8.893  11.921   0.246  0.2084  0.0175  0.1018
 8371W        W24445  11.970   4.773  13.833  0.0542  0.0403  0.0579
 8372W        W24446   6.159   2.430   1.066  0.0260  0.1824  0.2387
 8373W        W24447  10.123   3.040   3.284 -0.3172 -0.1136 -0.3734
 8374W        W24448   2.413  17.921   3.262 -0.2355  0.3629 -0.1835
 8375W        W24449   3.301   1.496   2.406 -0.3293 -0.1336 -0.2175
 8376W        W24450  13.059   9.083   4.051  0.1685 -0.0153 -0.1165
 8377W        W24451  13.237  13.890  16.346  0.2752  0.2679 -0.1154
 8378W        W24452   1.288   0.220  11.136 -0.2894  0.0496  0.1638
 8379W        W24453  12.574  13.767  14.801 -0.2203  0.0419  0.0446
 8380W        W24454  17.408   7.481   3.811  0.0353  0.0308 -0.0218
 8381W        W24455  14.574  17.839  13.153 -0.1862  0.2258  0.0299
 8382W        W24456   9.645  17.086  14.393 -0.2815 -0.0281  0.1341
 8383W        W24457   8.196   1.721  11.354  0.1397  0.1907  0.0400
 8384W        W24458  15.227   7.484   5.123  0.0246  0.1336  0.0909
 8385W        W24459  14.388   7.101   3.981 -0.0526 -0.2523  0.3029
 8386W        W24460  15.252   4.190  15.470  0.1900  0.1435  0.1517
 8387W        W24461   0.192   1.870   4.211 -0.0409 -0.0286  0.4833
 8388W        W24462   2.448   2.774  16.290 -0.0453  0.1676 -0.0574
 8389W        W24463  14.989  16.236   3.761 -0.2970 -0.3218 -0.1339
 8390W        W24464  17.847  16.025  15.205 -0.1088 -0.0415 -0.1376
 8391W        W24465  18.111  11.050  12.038  0.3128  0.2207  0.2827
 8392W        W24466  11.996  10.055   0.788 -0.0435  0.0470  0.0856
 8393W        W24467   0.724   6.243  12.237  0.0251 -0.2152  0.1037
 8394W        W24468   1.801  14.699  14.753  0.2034 -0.0593  0.0309
 8395W        W24469   8.007   0.042   6.562 -0.0936  0.0324  0.0212
 8396W        W24470  15.235   4.078  13.284 -0.3486 -0.0598  0.3636
 8397W        W24471  17.577  10.075   3.555 -0.1750 -0.3074  0.1351
 8398W        W24472  13.763  15.504  15.741  0.2534 -0.0161 -0.5354
 8399W        W24473  10.575   7.896   5.271  0.1093  0.1417 -0.0825
 8400W        W24474  12.361   7.459   3.865  0.2006 -0.0758 -0.2594
 8401W        W24475  17.931   9.900  12.212 -0.1555  0.1020 -0.4686
 8402W        W24476  16.019   1.966   0.673  0.0565  0.0273  0.0787
 8403W        W24477   0.680   0.817   2.986  0.1366  0.1695  0.2024
 8404W        W24478  15.474  10.410   3.957  0.1781 -0.1446 -0.2696
 8405W        W24479  17.278  10.970  16.366 -0.1934  0.1309 -0.0596
 8406W        W24480   4.927   3.683  15.090 -0.2270  0.0074 -0.1355
 8407W        W24481   4.012   9.494   1.400 -0.2241 -0.0805 -0.0256
 8408W        W24482   0.061  13.911  13.219  0.2138  0.1413 -0.0894
 8409W        W24483  11.591  14.260   0.725  0.1302 -0.1579 -0.3017
 8410W        W24484   8.546   9.928   1.934 -0.1483  0.5405 -0.1226
 8411W        W24485  16.137  13.473   1.883 -0.1248 -0.1836 -0.1010
 8412W        W24486  18.096   4.899   4.622 -0.1128 -0.2964 -0.0319
 8413W        W24487   8.394  14.141  15.247 -0.0956 -0.0550 -0.2491
 8414W        W24488  17.626   0.494  13.543 -0.1633 -0.1103  0.0527
 8415W        W24489   7.975  17.746   4.320 -0.0448 -0.0451  0.1662
 8416W        W24490  12.891  12.964  12.503 -0.2245  0.1058 -0.2495
 8417W        W24491   8.789  17.798   4.040  0.3606  0.0649  0.0261
 8418W        W24492   9.620  10.746  12.620  0.0293 -0.4452 -0.1271
 8419W        W24493   0.647  15.627   3.777 -0.0571 -0.2166 -0.0982
 8420W        W24494   1.608  14.990  15.222  0.1892  0.3027 -0.0443
 8421W        W24495  16.453  12.565   1.741 -0.3141 -0.0324  0.1481
 8422W        W24496  17.756  12.704   1.705 -0.0057 -0.3458 -0.2059
 8423W        W24497  11.584  14.293   5.055 -0.0250  0.2244 -0.2078
 8424W        W24498   0.350  17.395  15.946 -0.3766  0.1719 -0.1627
 8425W        W24499  13.736  10.044   2.953 -0.2176 -0.2881 -0.0995
 8426W        W24500  10.174   8.043   0.549 -0.0659 -0.1764  0.0071
 8427W        W24501  12.608   4.480   0.467 -0.2975 -0.3002 -0.0605
 8428W        W24502   3.136   1.637  12.353 -0.0815  0.3077 -0.1056
 8429W        W24503   7.674  12.570   0.063 -0.1938 -0.1229 -0.0074
 8430W        W24504   8.910   1.892   2.596 -0.1038  0.3776 -0.1181
 8431W        W24505  12.418  17.810   4.402 -0.1579  0.2585  0.1833
 8432W        W24506   3.350  15.272   0.282  0.2103 -0.5104 -0.1078
 8433W        W24507   4.814   3.490   0.144 -0.0157  0.3448 -0.0552
 8434W        W24508   5.406   4.232   1.398  0.1196  0.1672  0.0535
 8435W        W24509   0.628  17.393  14.738 -0.1757 -0.0873  0.0014
 8436W        W24510   0.972  15.449  12.066  0.2186  0.0796  0.0456
 8437W        W24511   0.168   1.508   6.002 -0.0080 -0.0940 -0.0875
 8438W        W24512  15.778   4.238   3.445  0.2135  0.3377 -0.0769
 8439W        W24513  11.003   0.880   1.355  0.0338 -0.0240 -0.0468
 8440W        W24514   7.308  12.234  13.675  0.0448 -0.0269  0.1594
 8441W        W24515  13.087   0.896   5.450  0.1679 -0.1638  0.2489
 8442W        W24516   9.292  14.309  12.832  0.1588 -0.0592 -0.0877
 8443W        W24517  17.965   3.915   2.437  0.1149  0.1080 -0.1023
 8444W        W24518  13.489   0.238  14.597 -0.1110 -0.2105  0.2878
 8445W        W24519  17.775   2.925  13.365 -0.0320 -0.0589 -0.0416
 8446W        W24520  16.969   8.534   5.774 -0.1367 -0.1373  0.2906
 8447W        W24521  10.388  11.756   3.172 -0.1013  0.1632  0.1159
 8448W        W24522   4.699   2.741   2.872  0.0649  0.0629  0.0578
 8449W        W24523   3.570  10.504  14.881 -0.0334  0.0899 -0.0100
 8450W        W24524   0.735   1.370  12.520  0.0516  0.1841 -0.2333
 8451W        W24525   3.111   0.238  14.171  0.0906  0.1856  0.2460
 8452W        W24526   7.629   3.487  15.686  0.0582 -0.0022  0.0626
 8453W        W24527   2.196   1.017  15.901  0.0452 -0.3310  0.4367
 8454W        W24528  15.598  17.852   2.011  0.0817  0.2098  0.6480
 8455W        W24529   0.227  13.141   5.893 -0.1012 -0.1830  0.0361
 8456W        W24530  13.125  10.725   3.173 -0.1547  0.4882 -0.1000
 8457W        W24531   4.809   0.781   3.630  0.2242 -0.0010 -0.0827
 8458W        W24532   4.425  11.268  11.757  0.0112  0.2522 -0.1100
 8459W        W24533  13.946  11.593  14.396  0.3139  0.0726  0.4469
 8460W        W24534   1.969  16.057  15.190 -0.0407  0.1530  0.3142
 8461W        W24535  15.013  14.564   1.331  0.3054 -0.1446 -0.1651
 8462W        W24536  11.580  13.109  12.583  0.0286 -0.0860  0.0810
 8463W        W24537  15.312   9.877   1.701  0.0550 -0.0511 -0.1371
 8464W        W24538   7.474   0.846   5.829  0.1179  0.0358  0.0789
 8465W        W24539  12.952  11.148   1.363 -0.0452  0.1430 -0.1950
 8466W        W24540   4.191   9.222  10.426 -0.0391  0.1198  0.0278
 8467W        W24541  11.624   9.196  13.932  0.2483 -0.1543 -0.2357
 8468W        W24542   5.249   7.374   5.008  0.1031  0.0123  0.1031
 8469W        W24543  10.477  16.772   2.333 -0.0465  0.0051  0.1593
 8470W        W24544   5.765   1.145   4.346 -0.1896 -0.0140 -0.4584
 8471W        W24545   5.448   4.745  11.919 -0.0031 -0.1146  0.2188
 8472W        W24546   6.267  18.103   2.615 -0.2497 -0.4013 -0.3864
 8473W        W24547   3.999  16.849   5.952  0.1465 -0.0563  0.1671
 8474W        W24548  14.716   7.305  15.305  0.1987  0.1591  0.0638
 8475W        W24549  16.198   1.933   5.809  0.1723 -0.0844 -0.1134
 8476W        W24550   6.695  10.084  16.314 -0.0862  0.3107  0.0356
 8477W        W24551  15.581  15.692  15.174 -0.0681  0.0680  0.1241
 8478W        W24552  16.303  11.637   5.492 -0.3173  0.2650  0.1580
 8479W        W24553   6.000   0.667  12.196 -0.1179  0.4378 -0.1510
 8480W        W24554   7.908  16.564   2.282  0.1157 -0.3325  0.3556
 8481W        W24555   0.717   2.076  12.260 -0.2549  0.2417 -0.0412
 8482W        W24556   5.536   2.428  14.924  0.2155  0.0871  0.1370
 8483W        W24557   0.110  11.809  12.429  0.0662  0.1079 -0.1422
 8484W        W24558   1.285   1.239   4.882  0.0694  0.4674  0.2185
 8485W        W24559   9.365   9.322   2.114  0.1935 -0.1120 -0.1202
 8486W        W24560   7.782   4.772  16.302  0.1544 -0.0999 -0.0999
 8487W        W24561   0.963  16.776   3.133  0.2105  0.4325 -0.0222
 8488W        W24562  10.769   2.347  14.303  0.0603  0.1406 -0.2223
 8489W        W24563   8.216   5.211  15.005 -0.1914  0.3493  0.1170
 8490W        W24564   5.007  17.095  12.520  0.1867 -0.2261  0.2219
 8491W        W24565   8.554   5.657   3.495 -0.2110  0.3852 -0.1413
 8492W        W24566   9.493  16.154  12.416  0.0516 -0.1884 -0.2594
 8493W        W24567  10.986  11.755   5.022 -0.1112  0.0480 -0.0641
 8494W        W24568  11.676   9.200  12.708  0.2886  0.0275 -0.2434
 8495W        W24569  11.406   7.249  13.871  0.2274 -0.2137 -0.3299
 8496W        W24570  10.868  10.472   1.868 -0.0561 -0.1101  0.5048
 8497W        W24571  15.982  14.113   4.544 -0.2088 -0.3465 -0.3898
 8498W        W24572   1.420  14.828  14.482  0.1614 -0.0908 -0.1508
 8499W        W24573   6.340  10.233   3.568 -0.1606 -0.3217  0.3712
 8500W        W24574  11.983   9.213   4.229 -0.2366 -0.4304  0.0654
 8501W        W24575  15.643  17.227   5.518 -0.0869  0.0610 -0.0603
 8502W        W24576  16.747   2.659  15.847  0.0044  0.1144 -0.1556
 8503W        W24577  18.059   9.362  14.253 -0.0034  0.1375 -0.2336
 8504W        W24578   0.026  15.743  13.465  0.1736 -0.2539  0.0805
 8505W        W24579  17.527   7.788   1.867 -0.2030 -0.0175 -0.0833
 8506W        W24580   3.942  14.270   2.232  0.3715 -0.0179  0.1604
 8507W        W24581   0.421  10.198   0.936  0.1363 -0.1246  0.0040
 8508W        W24582  16.967   8.413  13.770 -0.1576  0.1437  0.2204
 8509W        W24583  14.221  10.005  14.218 -0.1145  0.0116 -0.0703
 8510W        W24584  15.220  15.179   0.190 -0.1408 -0.1119  0.1678
 8511W        W24585   5.597   9.675  14.663  0.2269  0.0838 -0.0425
 8512W        W24586  13.657   5.557  13.910  0.0681 -0.1787  0.1264
 8513W        W24587   2.819  15.962  16.489  0.1668  0.1940  0.2424
 8514W        W24588   0.247   9.509   5.022  0.0557 -0.0085  0.0219
 8515W        W24589   6.157   4.861  16.406  0.0442  0.0687  0.0532
 8516W        W24590  13.932  15.639  14.748 -0.1946  0.2499 -0.2446
 8517W        W24591   3.910   6.472  14.757 -0.2693  0.2178 -0.3537
 8518W        W24592   7.519   0.671   3.347  0.2238 -0.1183 -0.0242
 8519W        W24593  10.936   9.826  14.156  0.2809 -0.2454 -0.2164
 8520W        W24594   9.758  17.126   5.877 -0.0041  0.0550 -0.2772
 8521W        W24595   8.875  16.787   3.167 -0.1831  0.0566 -0.1216
 8522W        W24596   3.506  12.886   0.832 -0.1818  0.0006  0.1903
 8523W        W24597   8.157  14.666   5.668  0.2162  0.1281  0.2608
 8524W        W24598   1.743   0.885  11.259 -0.1274  0.1909  0.2648
 8525W        W24599   8.943  14.693   4.927  0.0071  0.0020  0.1872
 8526W        W24600  10.489   6.995  11.861 -0.1009 -0.1104  0.1787
 8527W        W24601   4.698  12.267   1.076 -0.1428 -0.0088 -0.1347
 8528W        W24602   2.660  12.959  12.086 -0.0882 -0.2361  0.1703
 8529W        W24603   8.055  11.914  10.370 -0.1657 -0.2796  0.0720
 8530W        W24604   6.712  10.265   4.372 -0.1579  0.1225  0.3374
 8531W        W24605  10.241   1.140  16.240  0.0618  0.1466 -0.2173
 8532W        W24606  11.110  16.065   6.160  0.0650 -0.0187  0.1675
 8533W        W24607  17.678   9.806  16.172  0.0792  0.2004 -0.0168
 8534W        W24608   3.928   7.610  12.382  0.0204 -0.0101 -0.2522
 8535W        W24609  12.743  15.874   5.878 -0.2480 -0.0066 -0.2949
 8536W        W24610  15.639   3.049   2.725 -0.2875  0.1421 -0.0001
 8537W        W24611   6.793   3.850  12.427  0.1715 -0.2710 -0.0682
 8538W        W24612  13.041  17.765  14.994  0.3241 -0.2083  0.2734
 8539W        W24613   0.143   4.295   2.403 -0.0315  0.1188  0.0690
 8540W        W24614   0.576   7.998   5.119  0.1220  0.1416  0.1031
 8541W        W24615   7.644   6.747   5.095 -0.5081 -0.1472 -0.0280
 8542W        W24616  14.412  17.098   6.001  0.0289 -0.2893  0.2115
 8543W        W24617  11.974  14.400   2.097  0.0120 -0.1340 -0.2686
 8544W        W24618  12.886   6.750   1.444 -0.0406  0.1386 -0.0454
 8545W        W24619   8.120   8.622  13.497  0.0516 -0.2736  0.1651
 8546W        W24620   2.604  13.812  12.926  0.1579 -0.2509 -0.3103
 8547W        W24621   6.359   8.966   3.441  0.3527  0.2005  0.1060
 8548W        W24622  12.860   9.605   0.731  0.1276  0.2675 -0.1577
 8549W        W24623   2.518  16.973   2.542  0.2076  0.2168 -0.1091
 8550W        W24624   1.373  12.525  14.894 -0.2292 -0.2035 -0.0445
 8551W        W24625  17.012   1.368   6.342  0.1354  0.1503 -0.0733
 8552W        W24626  17.181  10.313  13.189 -0.0752  0.0071 -0.0142
 8553W        W24627  14.994  14.238  12.387 -0.1410  0.0048 -0.2808
 8554W        W24628   8.223  12.789   0.909  0.0411 -0.2316  0.1607
 8555W        W24629  13.885  16.174  16.428 -0.4025 -0.0319 -0.0204
 8556W        W24630  14.979   7.428   1.271  0.1159 -0.1476 -0.0774
 8557W        W24631   1.872   0.400   5.067  0.0108  0.1270  0.2934
 8558W        W24632   4.371  13.540  12.483  0.0142  0.0209 -0.1007
 8559W        W24633  10.912   8.189   2.578 -0.3832 -0.0655  0.4268
 8560W        W24634  10.483   8.935  12.247  0.2357  0.1813  0.0066
 8561W        W24635   6.052   2.563  12.185  0.2566 -0.0215  0.3363
 8562W        W24636  12.063   4.442   0.384 -0.2590 -0.3749 -0.4246
 8563W        W24637   6.977  17.406   0.045 -0.0295 -0.1537 -0.0275
 8564W        W24638   4.102  15.389  16.391 -0.2756 -0.1653 -0.0428
 8565W        W24639   7.437   2.975   1.217  0.0399  0.2691  0.1048
 8566W        W24640  16.709  14.865   5.624 -0.0670 -0.2235 -0.0174
 8567W        W24641   3.145   4.415  16.415 -0.1231  0.2019  0.2155
 8568W        W24642   3.623   8.357  12.688 -0.0842 -0.0535 -0.6051
 8569W        W24643  13.070  10.538  14.273 -0.1389  0.2592 -0.1963
 8570W        W24644  12.975  16.555   3.713  0.0178  0.1245 -0.1877
 8571W        W24645  17.649  18.034   5.260 -0.0461  0.2662  0.0918
 8572W        W24646  14.870   0.848   5.255  0.1173  0.3763 -0.0372
 8573W        W24647   2.834  12.108  15.076  0.0488 -0.1792 -0.2591
 8574W        W24648  12.780   4.928  16.134  0.2285 -0.1106  0.3686
 8575W        W24649  14.670   5.570  11.705 -0.1268  0.2033 -0.0457
 8576W        W24650  18.078   0.887  12.217  0.2344 -0.2582  0.1424
 8577W        W24651  11.714   8.915  13.554  0.0959 -0.0013 -0.0235
 8578W        W24652   6.839   5.955   3.661 -0.4060  0.3080  0.0364
 8579W        W24653  13.930   4.093   2.372 -0.0819 -0.0603  0.2341
 8580W        W24654  15.300   7.919  14.180  0.0080  0.1335  0.0234
 8581W        W24655   7.244   6.488   4.362 -0.1625 -0.0542  0.1941
 8582W        W24656   3.555   7.502   4.825 -0.1249 -0.2903 -0.1999
 8583W        W24657  12.671  12.567   1.904 -0.1951 -0.2027  0.2873
 8584W        W24658   3.501   7.708   1.265  0.0032  0.2279 -0.1001
 8585W        W24659   4.639   9.508   4.894 -0.3266  0.0115 -0.3094
 8586W        W24660   5.708   7.027   1.266  0.0417 -0.0132 -0.1283
 8587W        W24661  14.273  13.127   1.452 -0.2272  0.0521 -0.0927
 8588W        W24662   4.320   1.797  12.499 -0.0594  0.0710 -0.2011
 8589W        W24663  11.748   1.032  13.425 -0.0759  0.1961 -0.0389
 8590W        W24664   7.895  15.284   3.459 -0.2241  0.2706  0.2052
 8591W        W24665   1.315  15.574   2.534  0.2861 -0.3162  0.3522
 8592W        W24666   0.758   6.907   0.277  0.0456 -0.1965 -0.1127
 8593W        W24667   0.219   6.234  13.613  0.0863  0.2928  0.2918
 8594W        W24668   7.126   6.867  16.229  0.0330 -0.1282 -0.1824
 8595W        W24669   1.316  15.792  15.961  0.0819 -0.2879  0.0586
 8596W        W24670   4.120   6.217   1.426 -0.0995  0.2686 -0.0204
 8597W        W24671  12.501  17.173  15.267 -0.3722  0.1118  0.1750
 8598W        W24672  16.453   6.452   0.531 -0.1305 -0.2005 -0.0542
 8599W        W24673  15.601   9.391   3.141 -0.0119  0.2129 -0.0877
 8600W        W24674  14.797   3.466  16.115 -0.0081  0.2016  0.1711
 8601W        W24675  10.407   6.676   3.082 -0.0837 -0.2037  0.2292
 8602W        W24676  11.527   6.928   3.355  0.1299 -0.1977 -0.0700
 8603W        W24677   7.985  13.799  15.105  0.0288  0.0238  0.1782
 8604W        W24678  15.825  11.171  15.633  0.0456  0.1337  0.0043
 8605W        W24679  13.076   3.022   4.415 -0.0586  0.0720  0.3451
 8606W        W24680  17.020   5.891  16.104 -0.5071  0.0691  0.1280
 8607W        W24681   3.194   7.078  13.612  0.2827  0.1103 -0.0897
 8608W        W24682  18.053  17.209  15.962  0.1368  0.0705 -0.0364
 8609W        W24683   7.390  11.722  14.551  0.1461  0.0255 -0.0767
 8610W        W24684   1.107   3.769   0.348 -0.0431  0.0732  0.1047
 8611W        W24685  10.217  10.318  12.070 -0.1721 -0.1007 -0.1708
 8612W        W24686   1.575  16.729  11.319 -0.0990 -0.0165 -0.3203
 8613W        W24687   7.534  10.987   2.542 -0.0935 -0.2377  0.1985
 8614W        W24688   6.330  16.719   2.852  0.3037 -0.1208 -0.0476
 8615W        W24689  12.990   6.879   3.805  0.0278 -0.0310 -0.1768
 8616W        W24690  16.038   4.853  13.300  0.0051 -0.0763  0.1033
 8617W        W24691   9.008  10.239  14.850 -0.4448 -0.1989  0.1364
 8618W        W24692   6.538   0.294  16.219  0.0161 -0.0540 -0.2021
 8619W        W24693  17.081   3.842   3.663 -0.4163 -0.2362  0.0883
 8620W        W24694  11.323  13.243  14.454 -0.1613 -0.2806  0.1523
 8621W        W24695   4.700   6.096  14.124  0.2343  0.0238 -0.3222
 8622W        W24696  18.061   3.096  12.500  0.3772 -0.1373 -0.1741
 8623W        W24697   9.892  12.630   2.099 -0.4641  0.1198 -0.1714
 8624W        W24698   3.046   1.046   5.395  0.1809 -0.0321 -0.1859
 8625W        W24699   3.451  17.492  11.305  0.0496 -0.1253 -0.2305
 8626W        W24700   2.000  14.273   4.158 -0.2723 -0.1654  0.0443
 8627W        W24701   4.239  17.549   1.950 -0.5603 -0.0733  0.0374
 8628W        W24702  11.841   0.866   3.396 -0.1233  0.1196  0.2618
 8629W        W24703  11.740   6.129   1.339  0.3302  0.2069 -0.1328
 8630W        W24704  17.868  10.906   5.146 -0.1333 -0.1793 -0.0323
 8631W        W24705   2.103   9.730  16.369 -0.3282 -0.0058 -0.1146
 8632W        W24706  13.890  13.756  12.853 -0.0821 -0.0577  0.1084
 8633W        W24707   8.617   5.311  15.284  0.1231  0.1028  0.0852
 8634W        W24708   1.247   4.623   0.230  0.4173 -0.0945 -0.2125
 8635W        W24709  16.849  15.730  13.450  0.3524 -0.2086 -0.0306
 8636W        W24710   0.306   8.305  14.413 -0.1764  0.0455 -0.2749
 8637W        W24711  13.045  13.666   0.774 -0.1170  0.2640 -0.2809
 8638W        W24712   5.334  17.581   0.976 -0.0398 -0.0297  0.2790
 8639W        W24713   1.025   6.111  15.650 -0.2467 -0.3881  0.2192
 8640W        W24714   6.864   9.729   4.297  0.2601 -0.1622 -0.0824
 8641W        W24715  14.582   8.901   0.452 -0.1414 -0.0627 -0.3535
 8642W        W24716  16.211  15.440  10.328 -0.0752 -0.0014 -0.1162
 8643W        W24717  10.875   2.261   1.430 -0.1707 -0.0004 -0.0566
 8644W        W24718  14.899   4.694   3.194  0.2375 -0.1163  0.2568
 8645W        W24719  14.480   6.762   2.572 -0.2839 -0.0504 -0.1958
 8646W        W24720   3.132   4.508   2.049 -0.5327 -0.2317  0.0323
 8647W        W24721  17.189   6.443   5.008 -0.1616  0.2607 -0.0010
 8648W        W24722   5.309  16.074  16.138  0.1596 -0.0991 -0.0507
 8649W        W24723  13.494  14.313   1.607  0.2060 -0.1646  0.1226
 8650W        W24724  11.048  10.608  15.822 -0.0228  0.0670  0.3577
 8651W        W24725   7.353  10.784  15.539  0.1169  0.2265 -0.2918
 8652W        W24726   2.567   1.058   3.455  0.0979 -0.0161 -0.3665
 8653W        W24727   0.982   4.400   5.245  0.2871  0.2793  0.1055
 8654W        W24728  18.077   4.516  12.963 -0.3117  0.0684 -0.1897
 8655W        W24729   0.248   0.711   3.384  0.2917 -0.2773  0.0817
 8656W        W24730   0.331   3.143  14.984  0.1875 -0.1450 -0.0146
 8657W        W24731  12.007   9.310   1.657  0.1823  0.1197 -0.0138
 8658W        W24732   5.528   7.342  13.186 -0.1467  0.1617 -0.0957
 8659W        W24733  15.892  11.934   2.238 -0.0623  0.0692  0.3247
 8660W        W24734   8.535   3.237   0.844  0.1546 -0.2133  0.1237
 8661W        W24735  18.062   8.878  11.823 -0.1204  0.0083  0.0067
 8662W        W24736   7.307   6.521   6.033  0.2767  0.1500 -0.0342
 8663W        W24737   7.254   7.947   3.782 -0.1173  0.0120  0.2532
 8664W        W24738  16.503  18.040  11.330 -0.2670 -0.2193 -0.1737
 8665W        W24739   2.452   7.092  16.056  0.0824 -0.1503 -0.3078
 8666W        W24740   3.204  16.020   4.360  0.1070 -0.1575 -0.1448
 8667W        W24741  13.801   7.836   3.295  0.1918  0.0194 -0.1040
 8668W        W24742   4.150   3.498   4.433 -0.3254  0.0692  0.1025
 8669W        W24743  14.589   3.065   4.923  0.0620  0.0049 -0.1230
 8670W        W24744  14.211   1.048  11.860 -0.1390  0.0566 -0.2331
 8671W        W24745  11.419   7.607   1.833 -0.0681 -0.0927 -0.1197
 8672W        W24746   9.251   6.467  12.101  0.1708  0.0152 -0.4503
 8673W        W24747   9.713  12.214  12.794 -0.3007 -0.1613  0.3174
 8674W        W24748  12.415   7.462  11.909 -0.0636  0.1847  0.1863
 8675W        W24749  17.293   8.854  13.773 -0.1957 -0.1987  0.3123
 8676W        W24750   6.631   9.614  16.111  0.1836 -0.1499  0.4108
 8677W        W24751   9.351  17.657  15.640 -0.0853 -0.0664 -0.2223
 8678W        W24752   6.287  16.197  11.671  0.0040 -0.1286  0.1576
 8679W        W24753   8.870  10.265   3.636  0.3091 -0.2078  0.2429
 8680W        W24754   7.911   2.439  12.073 -0.0771  0.0302  0.0630
 8681W        W24755  18.156  17.744  10.967  0.1847  0.1799  0.0582
 8682W        W24756   6.114  15.880   5.490 -0.0807 -0.2042  0.0798
 8683W        W24757   4.564   0.332   1.400  0.0987  0.2881  0.1079
 8684W        W24758  16.087   4.468   3.156 -0.0253 -0.0478 -0.0813
 8685W        W24759  14.936   8.796   0.764 -0.3962  0.2914 -0.3654
 8686W        W24760  10.771   5.861  13.544 -0.0233  0.0572 -0.0115
 8687W        W24761  14.549   9.548  14.336  0.0342 -0.0830  0.0593
 8688W        W24762  15.922   5.879  11.942 -0.1704 -0.1736 -0.1771
 8689W        W24763  14.573   0.666   0.452 -0.3804 -0.1378  0.0129
 8690W        W24764   4.872   9.253  14.760  0.1076  0.3060 -0.2762
 8691W        W24765  12.932  16.081  12.751 -0.1334 -0.1243 -0.5586
 8692W        W24766  15.804   1.576  11.660 -0.0179  0.2005  0.0785
 8693W        W24767  11.909   8.485  12.240  0.0020  0.0596 -0.0121
 8694W        W24768  13.269  15.224  15.859  0.3566  0.1030 -0.0555
 8695W        W24769  10.869   1.003   4.527 -0.1559  0.1262 -0.4258
 8696W        W24770   6.665   3.094  13.795 -0.0050  0.0334  0.5295
 8697W        W24771  17.083  12.716   4.699 -0.1557 -0.2185 -0.1508
 8698W        W24772  17.392  16.550  13.770 -0.2657 -0.1774 -0.0385
 8699W        W24773  15.258  14.778   2.173 -0.0996 -0.1951 -0.2097
 8700W        W24774  12.063   4.701  14.729  0.0605  0.1663 -0.0161
 8701W        W24775   2.677  18.099  12.620 -0.6171 -0.0438  0.0494
 8702W        W24776   6.039   8.607   2.085  0.2250 -0.4023 -0.5235
 8703W        W24777  13.969   1.888   2.914  0.0751 -0.0524  0.0111
 8704W        W24778   4.352  10.929  12.142 -0.2935 -0.1544  0.0358
 8705W        W24779   0.634   2.063  14.618  0.0159 -0.0110  0.2432
 8706W        W24780  16.832   6.720   0.754  0.1262  0.2181 -0.1456
 8707W        W24781  17.058   4.207  16.469 -0.0953 -0.0884  0.1678
 8708W        W24782  15.136  15.932  14.560  0.1250 -0.4079  0.0818
 8709W        W24783  11.978   5.837   4.194 -0.0863  0.1206  0.0713
 8710W        W24784   5.846   0.456   0.794 -0.1246 -0.1580  0.2083
 8711W        W24785  13.138   4.274   2.713  0.0442  0.0168  0.0976
 8712W        W24786   1.447   4.521  14.230 -0.2728 -0.1513  0.0602
 8713W        W24787   5.413   2.481   6.504 -0.0727 -0.0296  0.1728
 8714W        W24788   2.214  14.532  16.445 -0.2763 -0.0314 -0.0829
 8715W        W24789   2.851  10.082  15.522 -0.2376 -0.1515  0.1178
 8716W        W24790  11.110   9.421  11.252  0.1991  0.0225  0.2144
 8717W        W24791   9.933   8.853  11.223 -0.2752  0.1815  0.1511
 8718W        W24792   3.473  13.986   3.646  0.0250 -0.1634  0.0770
 8719W        W24793   4.155   2.573   2.118  0.1641 -0.0406  0.0824
 8720W        W24794   9.363  13.115   4.643  0.3482  0.1035 -0.2842
 8721W        W24795  10.819   6.102   2.693  0.2829  0.0941  0.3955
 8722W        W24796   4.337  10.110  12.440  0.2564  0.3099 -0.3305
 8723W        W24797   9.286  13.348  14.016 -0.0354  0.1394 -0.1851
 8724W        W24798  13.326   6.409   0.695 -0.0249  0.0216 -0.4948
 8725W        W24799  12.222   5.480  15.208 -0.1578 -0.0921 -0.3128
 8726W        W24800  11.946   7.236  16.365  0.0366 -0.0140 -0.2673
 8727W        W24801  13.381  11.275   5.137  0.2600  0.0522 -0.2561
 8728W        W24802   1.514   2.947  14.991  0.1067  0.0721 -0.0081
 8729W        W24803  17.120   4.509   3.368  0.0723  0.1946 -0.4187
 8730W        W24804  11.261   4.754  11.637 -0.0365  0.1094 -0.0545
 8731W        W24805   5.207  12.912  12.680 -0.1039 -0.1061  0.1177
 8732W        W24806   3.803  11.736  11.285  0.3372  0.1338  0.1016
 8733W        W24807  15.545   8.497   2.705  0.0566 -0.1467  0.4471
 8734W        W24808   3.582   3.426  12.412  0.0093  0.2102 -0.1956
 8735W        W24809   9.757  13.388   5.848 -0.0119  0.0286 -0.1887
 8736W        W24810   6.672  11.373  16.357  0.1415 -0.2186 -0.0331
 8737W        W24811   5.697  15.467  15.193 -0.3490  0.1293 -0.0075
 8738W        W24812  15.278   5.896   2.247 -0.3086  0.0346  0.1637
 8739W        W24813  13.450  10.247   1.114  0.0789  0.1958  0.2670
 8740W        W24814  17.413  13.300  12.732  0.2191  0.0123  0.1337
 8741W        W24815   6.878   8.105   4.581 -0.1948 -0.0764 -0.0159
 8742W        W24816   0.780   5.146  14.040 -0.0179  0.1479  0.0269
 8743W        W24817  12.984   7.346   2.861 -0.0865 -0.0843  0.0285
 8744W        W24818   3.813  17.167   2.920 -0.1662  0.1133 -0.1385
 8745W        W24819  16.655   4.162  13.958 -0.1687 -0.0850 -0.3005
 8746W        W24820  15.938   4.986   3.118 -0.3243  0.1487 -0.0165
 8747W        W24821   7.607  17.601  15.280  0.2899 -0.1599 -0.2320
 8748W        W24822  18.215   2.667  14.944 -0.1623 -0.0779  0.0869
 8749W        W24823   3.468  15.236  13.332 -0.0146  0.0287  0.1725
 8750W        W24824   8.280  14.342   3.865  0.2767 -0.0404 -0.0772
 8751W        W24825  16.802   8.894  13.894 -0.0248  0.0174 -0.3695
 8752W        W24826   8.311   2.970   1.879  0.0872 -0.1242 -0.4038
 8753W        W24827   3.621  16.253  12.353  0.0155  0.0794 -0.3148
 8754W        W24828  12.243  16.090   1.405 -0.0736  0.2423  0.1719
 8755W        W24829   1.470  10.469   5.753  0.0917 -0.3748  0.1213
 8756W        W24830  10.040   7.564   1.895  0.1064  0.4376 -0.0373
 8757W        W24831  11.055  11.108  11.290 -0.1110  0.2331 -0.1620
 8758W        W24832   9.564   2.705   4.071  0.0672  0.4735  0.2858
 8759W        W24833   4.267   4.963   5.188 -0.2909  0.2444  0.0933
 8760W        W24834   9.652  17.749  13.703  0.0963 -0.1475 -0.0882
 8761W        W24835   8.084   9.208   3.363  0.0967 -0.2117  0.0159
 8762W        W24836  14.678  11.936  13.148 -0.0962  0.1266  0.1113
 8763W        W24837  16.413   0.925  14.090  0.1955  0.2720 -0.1661
 8764W        W24838  12.973   4.035  12.491 -0.0999 -0.0955 -0.2664
 8765W        W24839  13.727   7.454  13.812 -0.0205 -0.0425 -0.2084
 8766W        W24840  10.417   5.860   1.224 -0.3806  0.2891  0.1933
 8767W        W24841   3.661   6.328  15.863  0.1469  0.0022  0.1492
 8768W        W24842  16.021  11.372  14.734 -0.3037  0.0074  0.2100
 8769W        W24843   4.313   8.258  14.750 -0.0176  0.1781  0.4013
 8770W        W24844  14.068   5.269  13.790  0.2254  0.2942  0.2034
 8771W        W24845  11.993   0.926   0.488 -0.0570  0.0976 -0.1031
 8772W        W24846   4.315  12.983  14.545  0.0539  0.4225  0.0570
 8773W        W24847   7.762  13.963  14.064 -0.1245  0.3478  0.1369
 8774W        W24848  17.094  17.795   3.776 -0.1802  0.2202 -0.0033
 8775W        W24849  17.290  13.100  14.271  0.1280 -0.0277  0.0032
 8776W        W24850   0.591  11.982   3.945  0.2278 -0.0913  0.1912
 8777W        W24851   6.535   4.342   4.784 -0.1715 -0.0986 -0.1582
 8778W        W24852  10.489   8.545  13.013  0.1915 -0.2682 -0.1811
 8779W        W24853  16.243  16.679  14.778  0.2093  0.2527 -0.1545
 8780W        W24854   6.893  18.005  14.052 -0.1214  0.1121 -0.2169
 8781W        W24855   9.662   8.332   1.381  0.0428 -0.4083  0.0733
 8782W        W24856  17.149   0.434  13.816 -0.1051 -0.1405 -0.0453
 8783W        W24857   4.166  15.660   3.300 -0.2155  0.0696  0.0555
 8784W        W24858   5.389  11.337  13.041 -0.1164 -0.3217  0.1232
 8785W        W24859  12.285   2.919  12.971  0.1179  0.1200 -0.0363
 8786W        W24860  17.561   4.611   2.784  0.1680  0.2701  0.2270
 8787W        W24861  12.528   7.902  15.655  0.1123 -0.2530 -0.1345
 8788W        W24862   1.520   8.111  12.263 -0.4577  0.0425 -0.0047
 8789W        W24863   9.436  10.428   2.819 -0.2125 -0.1392  0.1245
 8790W        W24864   5.606  12.593   3.718  0.3976  0.2327 -0.3669
 8791W        W24865   3.173   8.651  13.579  0.0366  0.3247 -0.1548
 8792W        W24866  11.114  17.477   0.693  0.2789 -0.0766  0.3931
 8793W        W24867   5.503   4.727  12.425  0.2376  0.2105  0.1742
 8794W        W24868   9.601  11.847  13.167  0.1252  0.0307 -0.0170
 8795W        W24869  13.332   9.545  14.101 -0.2886 -0.1236  0.0322
 8796W        W24870  16.175  11.684   0.344  0.2341  0.0165  0.0728
 8797W        W24871   6.208  16.293  13.459 -0.1664  0.1748 -0.1812
 8798W        W24872   9.272  10.923  15.342 -0.0519 -0.2571  0.0405
 8799W        W24873   3.768  10.965   5.068 -0.0772  0.1306  0.2864
 8800W        W24874  11.588  16.334   3.838  0.0958 -0.2710  0.1900
 8801W        W24875   2.572   5.616   1.232 -0.0754  0.0978  0.1268
 8802W        W24876  18.064   9.253   4.011 -0.2109  0.0121 -0.0008
 8803W        W24877  15.578   1.798  15.313 -0.0640 -0.2375  0.0947
 8804W        W24878   1.231  14.746   1.873  0.0904  0.4519  0.0878
 8805W        W24879   2.962   5.540  11.835  0.0023 -0.1060  0.2741
 8806W        W24880  16.078  16.429  10.663 -0.4806  0.2361 -0.0836
 8807W        W24881  11.231   0.587  14.873  0.3135  0.0643 -0.1054
 8808W        W24882   1.655   1.259   4.033  0.2656  0.0363 -0.0388
 8809W        W24883  11.633  11.994  12.840 -0.1233  0.4104 -0.4050
 8810W        W24884   8.849   7.830  16.246  0.1423 -0.1457 -0.1631
 8811W        W24885   8.591  12.637   6.006 -0.1324  0.0428  0.0394
 8812W        W24886  17.073  18.115   1.739 -0.1540  0.1738  0.4267
 8813W        W24887  18.210  16.802   5.866 -0.3070  0.2038 -0.2264
 8814W        W24888  16.965   9.097   4.731  0.1951 -0.3668  0.2072
 8815W        W24889  16.757   7.744   4.358 -0.0494  0.2518  0.1009
 8816W        W24890   5.050  15.392  11.754 -0.2088  0.0431  0.2639
 8817W        W24891   2.700  13.397   3.796  0.1639 -0.1662  0.1083
 8818W        W24892   6.238  10.260  11.946  0.2213 -0.0795  0.2900
 8819W        W24893  18.186   2.540   3.518 -0.3903  0.2265 -0.0204
 8820W        W24894   0.187  11.288  13.241  0.3345  0.0692  0.1848
 8821W        W24895  12.372   2.805   4.769  0.0481  0.0044  0.0188
 8822W        W24896   9.430   4.013  14.199  0.4847  0.0517 -0.0536
 8823W        W24897   6.419   7.571   3.609  0.2520 -0.0212 -0.0987
 8824W        W24898   0.462   8.924  12.451  0.3757 -0.0357  0.0793
 8825W        W24899   6.804   7.179   1.161 -0.1307 -0.3013 -0.0228
 8826W        W24900  15.926   3.954  14.581  0.1012  0.1818  0.2283
 8827W        W24901  15.775  11.052   3.979  0.0727  0.0580  0.2312
 8828W        W24902   3.362  17.275   2.190  0.1853 -0.2289 -0.1681
 8829W        W24903  12.092  17.516   5.223 -0.0666  0.0360  0.2518
 8830W        W24904  18.207   0.422  11.369 -0.0062 -0.2073  0.1839
 8831W        W24905   1.465   9.407  15.085  0.4095  0.2439 -0.3051
 8832W        W24906   0.792  10.443  10.294  0.1339  0.1363  0.0926
 8833W        W24907   4.006   5.531   3.425 -0.2236 -0.0740  0.0061
 8834W        W24908   5.859  15.885  15.412 -0.1967  0.2609 -0.0246
 8835W        W24909  16.216  16.553   1.933 -0.1025 -0.0211  0.1538
 8836W        W24910  12.410  13.469  15.157 -0.0880  0.1527  0.1603
 8837W        W24911  15.401   7.460   2.362  0.1082  0.0195 -0.1189
 8838W        W24912  17.165  13.975   3.601  0.2976  0.0630 -0.0813
 8839W        W24913   1.073   6.873  14.128 -0.0061 -0.0057  0.0394
 8840W        W24914   6.587  12.762  12.372  0.0390  0.0857 -0.4139
 8841W        W24915   7.334   7.143   2.290  0.0606  0.0158 -0.2122
 8842W        W24916   6.331   9.293  16.332  0.1951 -0.1246 -0.0430
 8843W        W24917   8.036  16.353  12.899  0.0595  0.3401  0.1438
 8844W        W24918  12.229  13.246   4.012 -0.1150  0.0945  0.1160
 8845W        W24919   6.291  10.266   5.825  0.1322 -0.0602  0.1790
 8846W        W24920  12.048  16.848   1.194  0.1262 -0.1638  0.0203
 8847W        W24921   1.000   0.185  11.870  0.2048 -0.1575 -0.2285
 8848W        W24922   5.414   2.091   1.023 -0.1408  0.1722  0.3333
 8849W        W24923   3.285   2.414   5.273 -0.2725 -0.1529  0.2596
 8850W        W24924  14.520   6.257  15.066  0.0243 -0.4089 -0.0685
 8851W        W24925   0.982  12.053   5.289 -0.1862 -0.1069  0.1586
 8852W        W24926   6.444   7.649  16.480 -0.0128 -0.2437  0.1649
 8853W        W24927  10.478  17.169  11.768  0.2889 -0.1360 -0.1005
 8854W        W24928  16.033   3.570   1.835  0.0311  0.3059 -0.0832
 8855W        W24929  17.647   6.812  14.644  0.0854 -0.4889 -0.0402
 8856W        W24930   9.002   8.324   4.494 -0.0139  0.0398  0.1132
 8857W        W24931   4.544  11.768   4.368  0.3087  0.0217  0.1403
 8858W        W24932   1.577   2.065   1.662 -0.0968 -0.0913  0.1520
 8859W        W24933   4.424  17.362  15.337 -0.2689 -0.1274 -0.0220
 8860W        W24934  14.295  16.021   2.504  0.0002 -0.0307  0.0302
 8861W        W24935   6.224   6.773   1.278  0.1034 -0.5421  0.0381
 8862W        W24936   0.673   9.048  10.911  0.2257  0.3390 -0.0728
 8863W        W24937   2.037   8.649   2.072  0.0073  0.0832 -0.3973
 8864W        W24938   6.514  17.193   2.832  0.0054  0.0529  0.3381
 8865W        W24939  15.278  14.247   1.039 -0.2241 -0.5386 -0.1977
 8866W        W24940   0.776  11.175   1.008  0.1348  0.0467  0.3133
 8867W        W24941   6.883   7.649   4.414 -0.0934  0.1147 -0.4364
 8868W        W24942  12.233  12.465   2.709  0.0349 -0.1300 -0.0853
 8869W        W24943  15.463   6.501   5.574  0.2626 -0.0891 -0.2759
 8870W        W24944  10.500  17.719  11.743 -0.0516  0.0867 -0.4906
 8871W        W24945  11.703   4.115  16.047 -0.2507  0.4400 -0.1084
 8872W        W24946  15.923   7.677  14.654 -0.1504  0.2681  0.0902
 8873W        W24947   2.298   4.316   0.129 -0.3225 -0.0930 -0.1005
 8874W        W24948  17.949   6.870  13.100 -0.1793 -0.0827 -0.1225
 8875W        W24949  17.340  10.904   1.299  0.0337 -0.3679  0.0328
 8876W        W24950  11.594   5.055   3.365 -0.1473 -0.1775  0.3054
 8877W        W24951  12.301   0.358  12.369  0.0956  0.0530 -0.2128
 8878W        W24952   5.596  11.644  14.112  0.1090  0.2204  0.0497
 8879W        W24953   8.767   5.065   5.257 -0.1336  0.0415 -0.3040
 8880W        W24954  11.915   8.887  11.191  0.0976 -0.0243  0.0855
 8881W        W24955   5.215  12.315   3.286 -0.0643 -0.0931  0.2041
 8882W        W24956  18.207  13.031  11.327  0.0387  0.4149  0.0669
 8883W        W24957   9.776  12.451   2.639  0.0098 -0.2145 -0.0260
 8884W        W24958   9.262  13.119  13.476 -0.0285  0.1806  0.3260
 8885W        W24959  16.810   1.887   0.135 -0.1288  0.1643  0.0466
 8886W        W24960   8.452   6.644  12.823  0.1556  0.1814 -0.1807
 8887W        W24961  14.760   2.083  15.046 -0.1013  0.1605 -0.3252
 8888W        W24962  14.719   5.006   4.205  0.0027  0.3014 -0.0824
 8889W        W24963  13.941  14.205  15.419 -0.0371 -0.1154 -0.0626
 8890W        W24964  12.041   5.233   1.306 -0.1182 -0.1976 -0.1360
 8891W        W24965  16.154   6.921  15.484  0.0418 -0.2093  0.1749
 8892W        W24966  17.463   0.169   4.899  0.0955  0.2539  0.0225
 8893W        W24967  18.217   6.283   3.612 -0.1490 -0.4092  0.2680
 8894W        W24968  14.032  11.028   2.767 -0.0251  0.0254 -0.2250
 8895W        W24969   2.669  13.450   2.876  0.0378 -0.2606  0.0174
 8896W        W24970  17.183  14.324   0.514  0.0156 -0.1832 -0.0657
 8897W        W24971   2.116   3.297   5.279 -0.1951 -0.0393  0.0896
 8898W        W24972   2.863  11.812   3.194  0.1828 -0.0070  0.0817
 8899W        W24973   7.874  11.381  11.986  0.1546  0.0942 -0.0220
 8900W        W24974   2.348   5.624   3.891  0.0103 -0.0569  0.1520
 8901W        W24975  11.267   2.584  12.657 -0.0113  0.0428 -0.2930
 8902W        W24976  14.403   7.751   0.644  0.0586 -0.4107 -0.0242
 8903W        W24977   9.665  13.828   6.102 -0.0719 -0.0271  0.2131
 8904W        W24978   0.150   4.152  11.694  0.5354 -0.3667 -0.1940
 8905W        W24979  16.522   5.161  12.425 -0.2759  0.2619 -0.6368
 8906W        W24980  16.760  13.908   4.886  0.0738 -0.1450 -0.1188
 8907W        W24981  13.038  14.786  15.722  0.3432  0.0080  0.2013
 8908W        W24982   4.565   8.772   2.717 -0.0073  0.1392 -0.0601
 8909W        W24983  11.546  16.356   0.700  0.1826  0.0643 -0.0876
 8910W        W24984  12.753   1.334   5.445  0.1735 -0.1527 -0.3033
 8911W        W24985  13.475   0.674  11.898 -0.1088  0.0609 -0.1988
 8912W        W24986  15.818  15.394  11.428 -0.1313  0.0343  0.0587
 8913W        W24987   4.102   5.801   4.423 -0.0391  0.1272 -0.0680
 8914W        W24988  11.531   5.676   2.069 -0.2120  0.1210 -0.1151
 8915W        W24989   9.177  10.407  14.403  0.3448  0.0008 -0.0176
 8916W        W24990   9.747   1.529   3.512 -0.2365  0.0004  0.4078
 8917W        W24991   6.498   0.507   4.355  0.2655  0.0376 -0.3327
 8918W        W24992   1.396   8.192   1.313 -0.0097 -0.0070 -0.1825
 8919W        W24993   2.503  16.105   2.234 -0.1121 -0.0419  0.1255
 8920W        W24994   8.493   9.285   4.717  0.3036  0.2243 -0.0014
 8921W        W24995  17.575  18.120   0.885 -0.0770 -0.1114  0.0786
 8922W        W24996  11.013  17.444  10.644 -0.1971 -0.0145 -0.0846
 8923W        W24997   5.562   1.571   4.234  0.0919 -0.0424  0.2768
 8924W        W24998   8.770   9.301   0.890 -0.1519  0.1414  0.0773
 8925W        W24999   8.872   1.995  15.668 -0.0796  0.1391 -0.0595
 8926W        W25000   1.894   3.214  14.623  0.0357  0.0052 -0.2075
 8927W        W25001   9.283  14.822  13.914 -0.0773  0.2006  0.0124
 8928W        W25002   2.235   5.379   0.900 -0.1509  0.5685 -0.1150
 8929W        W25003  12.113  14.832  13.708 -0.1770 -0.2283  0.0168
 8930W        W25004  12.013   4.096  15.442 -0.1073  0.0974 -0.0288
 8931W        W25005   5.071   6.685   5.146 -0.0238  0.1210 -0.1814
 8932W        W25006   0.407  13.760  15.792  0.1614  0.1081 -0.2880
 8933W        W25007  17.456  12.884  15.484  0.2567 -0.0173  0.2224
 8934W        W25008   7.106   2.593   1.143 -0.0435  0.0809  0.0807
 8935W        W25009   0.604  11.339  15.481 -0.0991 -0.2857  0.0069
 8936W        W25010   7.770  13.144   5.114 -0.0445  0.2878 -0.0831
 8937W        W25011  16.455   3.113   4.448  0.3130 -0.1398  0.0469
 8938W        W25012   6.015   4.417  15.992 -0.0954  0.3484 -0.0274
 8939W        W25013   3.810   3.040   0.485 -0.0487 -0.2787  0.1164
 8940W        W25014  12.079  15.700  15.085  0.1161  0.2320  0.1973
 8941W        W25015  12.007  12.884   2.478  0.0750 -0.2274  0.1775
 8942W        W25016  11.240   9.178  13.520  0.2608  0.0339  0.1130
 8943W        W25017  12.342   7.130  15.136 -0.2001  0.0613  0.2719
 8944W        W25018   8.911  17.723   2.140  0.1177 -0.0835  0.0391
 8945W        W25019  15.179   6.289   5.270 -0.2968 -0.2285 -0.0548
 8946W        W25020  17.167  13.587  12.338 -0.0779  0.0920  0.0308
 8947W        W25021   9.751   1.964  13.873  0.0050 -0.2692 -0.0203
 8948W        W25022  11.065   8.130   3.995 -0.1201 -0.1162  0.0314
 8949W        W25023   4.635   6.649   5.407 -0.2224 -0.1054 -0.4755
 8950W        W25024   2.330  15.119  10.793  0.0980 -0.1609  0.2084
 8951W        W25025   3.532   9.358   0.613  0.1965 -0.1999  0.0435
 8952W        W25026   2.314   7.258  15.223  0.2168 -0.2045 -0.0734
 8953W        W25027  14.689  10.704  11.397 -0.0108  0.1706  0.1074
 8954W        W25028  15.939   0.043  15.229  0.0325  0.0726  0.0796
 8955W        W25029  14.668   3.940  16.198  0.1643 -0.0445 -0.1008
 8956W        W25030  17.796   9.919  12.693  0.0239  0.1224  0.2441
 8957W        W25031  10.880   4.774   5.428  0.2204  0.1188 -0.3036
 8958W        W25032   9.839  12.261   0.251 -0.4159  0.0354 -0.0048
 8959W        W25033   3.903   8.975  13.859  0.0149  0.1550 -0.2743
 8960W        W25034  16.351  10.534   0.247  0.1332  0.2099 -0.0278
 8961W        W25035  13.659   3.726   1.384  0.0397  0.1079 -0.1833
 8962W        W25036   0.376  10.966   0.115  0.1889  0.1651 -0.0037
 8963W        W25037  10.266   3.762  14.557  0.1235  0.3129 -0.0248
 8964W        W25038  14.324   6.518   2.056  0.1264 -0.0977  0.0089
 8965W        W25039  13.661   5.089  12.880 -0.0603 -0.3000 -0.1941
 8966W        W25040   9.739  16.731  12.474  0.1244  0.0563  0.1604
 8967W        W25041   0.983  13.878   4.610 -0.0337  0.0863 -0.0052
 8968W        W25042  12.575   5.954   3.328  0.0758  0.1062 -0.0749
 8969W        W25043   9.618  11.685  16.096  0.2833 -0.1377 -0.1569
 8970W        W25044  17.323   6.910   4.951  0.1083 -0.1103 -0.0361
 8971W        W25045  15.547   0.274   5.107 -0.2652  0.1404 -0.2832
 8972W        W25046  14.847   7.341   6.064 -0.2567  0.2654 -0.0471
 8973W        W25047   9.001   2.935  14.603  0.1586  0.3390  0.1420
 8974W        W25048   8.559   7.589   2.806  0.1178  0.0540 -0.1490
 8975W        W25049   5.920  15.584  12.996 -0.0515 -0.0365 -0.3486
 8976W        W25050   7.519  11.700  11.868 -0.2546  0.2193 -0.0949
 8977W        W25051   3.199   3.053  14.537 -0.1462 -0.1291 -0.2535
 8978W        W25052  12.858   8.795   5.561 -0.0229  0.0144 -0.0824
 8979W        W25053   6.577   1.632  15.461  0.2968 -0.1749  0.1162
 8980W        W25054  17.054  11.107   4.995  0.0586  0.2656 -0.4218
 8981W        W25055   8.879  16.987  14.702  0.1515 -0.0836  0.2418
 8982W        W25056   9.733   7.442  11.788 -0.0519 -0.0717  0.0238
 8983W        W25057  11.907   7.389  12.608  0.3013 -0.0240  0.1423
 8984W        W25058  10.189   4.567  14.538  0.2152 -0.4395 -0.1369
 8985W        W25059   4.554   5.877   1.664  0.2586 -0.1281 -0.0765
 8986W        W25060  10.821   9.975   1.967  0.1881  0.0515  0.1338
 8987W        W25061   0.987  12.907   3.242  0.0109  0.0892 -0.3575
 8988W        W25062   8.043   9.134  13.709 -0.1048  0.0419 -0.0972
 8989W        W25063  18.250   7.301   5.112  0.2101  0.1717 -0.1565
 8990W        W25064   7.983  16.538  11.533 -0.2878 -0.1371 -0.3165
 8991W        W25065   0.907   3.724   1.755  0.2689  0.0878 -0.0896
 8992W        W25066  11.434   1.804   6.156  0.0655  0.0162 -0.1213
 8993W        W25067   8.382   6.923  14.099 -0.1351  0.1788  0.0395
 8994W        W25068  11.768   5.574   3.681 -0.2937 -0.2350  0.0529
 8995W        W25069   1.246  14.363  12.969  0.1918 -0.2494  0.0836
 8996W        W25070   4.074   0.904   5.635 -0.1724  0.0601 -0.2458
 8997W        W25071   5.565  11.389   2.948  0.0074  0.2639 -0.0699
 8998W        W25072  12.935   1.722  13.480 -0.1257  0.0315 -0.2279
 8999W        W25073   6.167  11.520   2.508 -0.1021 -0.1452 -0.0083
 9000W        W25074  14.147  12.051   2.656  0.0012 -0.0892  0.3581
 9001W        W25075  17.314  14.629   5.011  0.0852  0.2346  0.0964
 9002W        W25076   3.958  12.658  13.341  0.2667  0.0067 -0.0077
 9003W        W25077   4.884  18.140   4.739 -0.0770 -0.1431 -0.0021
 9004W        W25078  11.318   2.490  16.251 -0.0805 -0.0901  0.0610
 9005W        W25079  10.771   4.831  14.515  0.3082  0.0767  0.1976
 9006W        W25080   7.076   2.088  11.934  0.0244 -0.1318  0.0235
 9007W        W25081   7.184  18.025   3.678  0.3116  0.1960 -0.0315
 9008W        W25082   5.872   6.869   3.937  0.1563  0.4593  0.2180
 9009W        W25083  12.430  11.111  11.668  0.0741 -0.1333 -0.3833
 9010W        W25084   3.230  10.843   0.854  0.0674 -0.3411  0.2280
 9011W        W25085   7.660  17.058  15.941 -0.0589 -0.4512 -0.3071
 9012W        W25086   1.239  17.979   5.377  0.1049 -0.0232  0.0780
 9013W        W25087   4.266   6.170   6.174 -0.4305  0.0241 -0.0124
 9014W        W25088   5.547  17.995   4.109 -0.0296 -0.1433 -0.1995
 9015W        W25089  11.675   0.503  13.598  0.1085 -0.2109  0.2656
 9016W        W25090   7.690   0.280   1.150  0.0325 -0.3388  0.1846
 9017W        W25091   9.818   7.275   4.646  0.0220  0.1247 -0.1606
 9018W        W25092  11.318   7.319   5.072  0.0049 -0.2715 -0.0148
 9019W        W25093   5.631  18.016  15.961  0.2401 -0.1980 -0.0910
 9020W        W25094  13.404   6.754   6.452 -0.0920  0.2883 -0.1623
 9021W        W25095  11.049  10.335  12.482 -0.0342  0.0411  0.2806
 9022W        W25096   6.818  13.711  15.684  0.0223  0.2143 -0.2833
 9023W        W25097   5.349  16.441  14.082  0.0794  0.2163  0.1320
 9024W        W25098   0.751   2.779   0.234  0.3800 -0.0349  0.1251
 9025W        W25099   2.114   2.097  12.479 -0.2440 -0.1538 -0.0169
 9026W        W25100  14.727  13.859   0.513  0.2625  0.1694  0.1243
 9027W        W25101  10.657  15.477   0.637  0.1238  0.1191  0.1290
 9028W        W25102  13.371  14.190  13.121 -0.2961  0.0365 -0.1348
 9029W        W25103   0.734   9.844   1.683  0.0287 -0.1011  0.1652
 9030W        W25104  12.156   1.795   4.517 -0.0184  0.1417  0.1395
 9031W        W25105  15.904   6.565   5.385 -0.1656 -0.1718 -0.1154
 9032W        W25106  17.291  12.855   1.534  0.0711  0.0651  0.4845
 9033W        W25107  16.858  13.551  12.832 -0.1800 -0.0112  0.2229
 9034W        W25108  15.421   5.118  15.262 -0.1786 -0.2173 -0.3262
 9035W        W25109   3.685  10.780  12.597 -0.2257 -0.0462  0.3133
 9036W        W25110  15.550  16.377  12.218 -0.3666  0.0895  0.0150
 9037W        W25111   7.562  10.264   3.755 -0.0660 -0.0880 -0.2110
 9038W        W25112  10.415  10.717   0.001 -0.2774 -0.0689  0.0230
 9039W        W25113  15.361   6.005   3.313  0.0736  0.1935  0.2128
 9040W        W25114  12.274   2.724   1.255 -0.0801 -0.2261  0.2766
 9041W        W25115   8.915  16.292   2.879 -0.0526  0.1351 -0.0964
 9042W        W25116   3.023  11.724   6.226 -0.1361  0.3997 -0.2012
 9043W        W25117   8.558   0.476   3.827 -0.1305  0.0759  0.1664
 9044W        W25118   8.092  14.561  13.654  0.1318 -0.1774  0.1937
 9045W        W25119   6.907   1.109  13.326 -0.0072 -0.0452 -0.1025
 9046W        W25120   8.302  12.536   5.568 -0.0458 -0.1738  0.2525
 9047W        W25121  11.680   3.795  14.601 -0.0584  0.0570  0.0544
 9048W        W25122   8.077  15.775   3.459  0.2336  0.2230 -0.1519
 9049W        W25123  17.557  13.556   0.137  0.3500 -0.0230  0.1180
 9050W        W25124  16.346  12.383  14.254  0.0172  0.1089  0.0791
 9051W        W25125  12.654   0.036   0.364  0.4062 -0.1981 -0.0818
 9052W        W25126   3.334  11.574  12.628  0.0184 -0.0052  0.1478
 9053W        W25127   9.085  16.009   3.194  0.0402 -0.1154 -0.0387
 9054W        W25128   4.124  13.187   1.393  0.1387 -0.0466 -0.0819
 9055W        W25129  12.779  13.239   4.310 -0.0386 -0.1682 -0.3091
 9056W        W25130  16.604  11.454   3.645 -0.0451 -0.0553  0.0446
 9057W        W25131   4.547  12.911   5.324  0.1266  0.2279  0.0645
 9058W        W25132   3.635   8.898   4.703  0.0056 -0.0119  0.1018
 9059W        W25133   6.564   2.736  15.713 -0.1301 -0.1497 -0.2747
 9060W        W25134   3.031  15.576  13.741  0.5602  0.1627 -0.0945
 9061W        W25135   7.501   0.117   2.327 -0.4036 -0.2259  0.1712
 9062W        W25136  16.784  15.354   3.208 -0.3611 -0.2285 -0.0229
 9063W        W25137   3.072   7.205  13.098 -0.2612 -0.0185 -0.3497
 9064W        W25138   1.877  11.236  11.486 -0.6061  0.0229  0.1542
 9065W        W25139   7.402  11.310   0.888  0.1210 -0.2582  0.3843
 9066W        W25140  13.377   8.609  12.176  0.1615  0.2689  0.4946
 9067W        W25141  17.120   3.440  13.783 -0.1691  0.0073 -0.0294
 9068W        W25142  15.728   7.382  11.943 -0.1499  0.3141  0.0664
 9069W        W25143  10.054  10.496   0.325  0.0038  0.3429 -0.0064
 9070W        W25144  16.464  16.277   3.626 -0.0705  0.2242  0.3560
 9071W        W25145  11.049   9.598   0.009 -0.1339  0.1767 -0.0719
 9072W        W25146  10.835  10.051   3.039 -0.2739 -0.0916  0.0674
 9073W        W25147   7.732   3.530  16.471 -0.2202 -0.0254 -0.0847
 9074W        W25148  14.445  16.617   6.227  0.0949  0.0794  0.1292
 9075W        W25149   5.664   6.051  14.585 -0.0963  0.0445  0.2318
 9076W        W25150   8.204   4.548   4.844 -0.3191  0.3457  0.2019
 9077W        W25151  14.953  17.273  13.490 -0.2224 -0.0506  0.1010
 9078W        W25152   9.874  14.955   5.109  0.1100 -0.2739 -0.0132
 9079W        W25153  16.168  17.030   4.027  0.1946 -0.1703 -0.0557
 9080W        W25154   2.337   9.069  13.861  0.1081  0.0527 -0.2968
 9081W        W25155   9.705  16.548   4.860 -0.2254  0.1497  0.2150
 9082W        W25156   9.815  11.810  14.374  0.2354 -0.3430  0.0430
 9083W        W25157   2.906   4.515  10.925 -0.0413  0.0418  0.2210
 9084W        W25158   8.471   0.710   0.818  0.1308  0.0913  0.0464
 9085W        W25159  12.534  10.876   1.007  0.0225 -0.2680 -0.1233
 9086W        W25160  17.749   9.022   3.548 -0.0480  0.1189  0.2501
 9087W        W25161   5.386  16.333   4.829  0.1749 -0.1760 -0.2031
 9088W        W25162   7.604  14.405  13.921  0.0622 -0.0460 -0.0026
 9089W        W25163   9.573  16.569  14.195  0.0849  0.1882  0.1500
 9090W        W25164   3.082   9.939  14.242 -0.2650  0.1428  0.0098
 9091W        W25165   0.204   7.165  11.645 -0.1290 -0.0225  0.0400
 9092W        W25166   5.313  11.854   5.667 -0.3375 -0.0568 -0.0022
 9093W        W25167   8.297  10.502  16.000  0.4222  0.1444 -0.1487
 9094W        W25168   6.692   1.214  15.182 -0.1880 -0.3371 -0.0443
 9095W        W25169  15.545   6.539   5.064 -0.0104 -0.3455 -0.5146
 9096W        W25170   8.051   4.559   3.690  0.1854 -0.3327 -0.1309
 9097W        W25171   2.389  10.141   0.055 -0.2198 -0.0859 -0.1295
 9098W        W25172   4.942   0.061   3.862  0.2372  0.1818 -0.1797
 9099W        W25173  14.383   9.343   3.926 -0.0160 -0.1503  0.2913
 9100W        W25174  12.672  10.553  16.162  0.1298 -0.2214 -0.0833
 9101W        W25175   6.309   5.606  14.091 -0.1899 -0.1960  0.1435
 9102W        W25176   4.704   0.904  13.847  0.0979 -0.0557  0.2479
 9103W        W25177   4.925  14.612   0.095  0.0369 -0.2675 -0.0092
 9104W        W25178   1.161  13.556   5.960  0.2092 -0.2045  0.1612
 9105W        W25179   8.058  15.271   4.988  0.0813 -0.0003  0.0114
 9106W        W25180  13.435  10.808   1.605  0.0100 -0.1114  0.1277
 9107W        W25181   6.344   0.657  12.512 -0.2257 -0.3109  0.2758
 9108W        W25182   4.663   8.114  13.125  0.2812  0.2864 -0.2490
 9109W        W25183   5.433   7.313   3.041  0.3126  0.1045 -0.0268
 9110W        W25184   8.997  15.658   4.268  0.0222  0.1121  0.0865
 9111W        W25185   4.261  12.551   5.059  0.0517  0.4550 -0.2678
 9112W        W25186   4.657   2.862  15.476  0.0135  0.2938 -0.0018
 9113W        W25187  11.996   6.266  11.915  0.1170 -0.0203 -0.3126
 9114W        W25188   5.320  13.664   3.360 -0.1011  0.0585  0.0051
 9115W        W25189   4.608  13.435  13.868 -0.2543 -0.0115 -0.0549
 9116W        W25190   0.768  13.488  12.521  0.2635 -0.2745  0.2138
 9117W        W25191  10.325  16.520   4.237 -0.2046 -0.1443  0.4722
 9118W        W25192  15.335  13.000   5.446  0.0001 -0.0081 -0.0947
 9119W        W25193  15.379  11.696   2.386  0.0334  0.1454 -0.2827
 9120W        W25194   0.427  15.953   3.354 -0.0456 -0.1820  0.2384
 9121W        W25195  17.343   9.579   1.909 -0.2269 -0.2350 -0.2036
 9122W        W25196  13.965   3.950  13.612  0.0040  0.3435 -0.2219
 9123W        W25197  14.272   0.040   2.056 -0.1660  0.0550  0.1407
 9124W        W25198   7.619   6.248  13.883  0.1887 -0.0502 -0.0575
 9125W        W25199  13.756  12.217  14.885  0.0453 -0.0610 -0.0606
 9126W        W25200  12.347   6.444   4.511  0.1999  0.1577  0.1677
 9127W        W25201   3.117   3.548   2.485  0.1488 -0.3153 -0.2131
 9128W        W25202   6.425   2.339  16.130  0.3406 -0.0340 -0.2547
 9129W        W25203  13.333   4.421  11.264 -0.1072 -0.2166  0.1919
 9130W        W25204   4.972   4.507   3.906 -0.1959 -0.0667  0.1932
 9131W        W25205   0.431  17.517   1.556  0.2774  0.2316 -0.1434
 9132W        W25206   1.386   0.949   1.366 -0.3772  0.0443 -0.0012
 9133W        W25207   3.703  17.463   1.422  0.1503 -0.2733  0.0766
 9134W        W25208  12.522   2.165  15.239  0.1904 -0.1830  0.3998
 9135W        W25209   4.762   9.082  11.221  0.1467  0.0367  0.3331
 9136W        W25210   3.902   3.951   4.410 -0.1759 -0.2436 -0.0738
 9137W        W25211  14.125   0.016   3.897 -0.2304 -0.3028 -0.2448
 9138W        W25212  13.533   2.509   4.483  0.0615  0.0407 -0.3169
 9139W        W25213   2.132  13.320  16.295 -0.0815 -0.0393 -0.0365
 9140W        W25214   5.248   9.445   0.029 -0.0771 -0.0890  0.2622
 9141W        W25215   7.707   7.135   0.167  0.4537  0.2747 -0.1787
 9142W        W25216   5.913  12.613   4.233 -0.0738  0.0115  0.0374
 9143W        W25217   0.160  15.974  15.716  0.2039 -0.3760 -0.0030
 9144W        W25218  11.319   6.465   1.214  0.0539 -0.3077  0.2552
 9145W        W25219  13.857   1.386   3.171 -0.0744  0.2896 -0.3127
 9146W        W25220  17.973   6.298   4.506 -0.1837 -0.2200 -0.0224
 9147W        W25221   9.849  17.040  13.946  0.0165  0.1665 -0.1565
 9148W        W25222   1.929   6.815   1.795  0.1180  0.1368  0.2380
 9149W        W25223   9.318   6.461   1.713 -0.0811  0.0093  0.1909
 9150W        W25224  13.533   7.712   4.241  0.1278  0.1884  0.1680
 9151W        W25225   0.574  17.701  13.952 -0.0299  0.1982  0.0806
 9152W        W25226   7.754   1.892   1.572  0.2344 -0.0435  0.1652
 9153W        W25227  15.508  11.259   0.819 -0.1127  0.0488 -0.1877
 9154W        W25228  16.693   8.728  11.576  0.0928 -0.0908  0.1164
 9155W        W25229   5.473  17.492   5.438 -0.1888  0.1079  0.2247
 9156W        W25230  15.326  17.993  10.865 -0.2666 -0.1208 -0.0958
 9157W        W25231  14.744  16.604  15.067  0.0063  0.1978  0.2277
 9158W        W25232   7.146  10.278  11.910  0.1117  0.2180  0.0031
 9159W        W25233  14.192   3.838  12.766  0.3810 -0.0698  0.3649
 9160W        W25234  13.266  17.329  12.109  0.0313  0.1650 -0.0074
 9161W        W25235   2.368  13.079   3.694  0.1179  0.0261  0.1532
 9162W        W25236   8.133   6.332   2.989 -0.1803 -0.0458 -0.1946
 9163W        W25237  11.356  14.615  13.014 -0.2867  0.0305 -0.0631
 9164W        W25238   4.780   3.367   3.556 -0.3994 -0.0384  0.1039
 9165W        W25239   4.423   7.013  10.965  0.1238  0.0585 -0.0445
 9166W        W25240   2.333  10.322   3.951  0.1153  0.0605 -0.4613
 9167W        W25241  13.664  17.768  16.241 -0.0341  0.1702  0.1999
 9168W        W25242   4.233  12.198  14.233  0.0520  0.0862  0.0021
 9169W        W25243  16.173  17.307   5.426 -0.0599  0.0247 -0.2415
 9170W        W25244  16.638  18.036  14.798  0.0327 -0.0351 -0.0447
 9171W        W25245  17.920   8.952   4.373 -0.0923 -0.1032  0.3923
 9172W        W25246  11.466   7.263  14.984  0.0783  0.2765  0.1747
 9173W        W25247  11.062   0.838  15.370 -0.2215 -0.2747 -0.1412
 9174W        W25248   6.337  14.468  16.094  0.2698  0.0861 -0.2369
 9175W        W25249   1.969  12.897   3.406  0.0056 -0.0225 -0.3677
 9176W        W25250   5.376  17.038   0.820  0.0800 -0.0956 -0.2034
 9177W        W25251  12.362   7.980   5.754  0.1710  0.2546 -0.2612
 9178W        W25252  13.632   6.047  13.569 -0.1251 -0.0822  0.3034
 9179W        W25253   3.752   0.362   0.346  0.1673  0.2126 -0.0703
 9180W        W25254  10.970   3.765   3.427 -0.1136 -0.2299 -0.0061
 9181W        W25255   3.405  17.465  14.508 -0.0765  0.1306 -0.2594
 9182W        W25256   5.643   4.923   2.510  0.1286  0.0055 -0.1463
 9183W        W25257   3.363  12.576  16.151 -0.0147 -0.1517  0.1290
 9184W        W25258  17.090   9.609   4.589  0.2824  0.2198  0.0164
 9185W        W25259  13.339   7.272  15.979 -0.2242  0.0220  0.1366
 9186W        W25260   3.842  15.386   0.359 -0.4430 -0.1378 -0.1305
 9187W        W25261   3.496   4.220   0.380 -0.0740 -0.0266 -0.0564
 9188W        W25262   4.296   7.857  14.121  0.2759  0.2785  0.0725
 9189W        W25263  18.036   8.035   4.822  0.2052  0.2276 -0.0589
 9190W        W25264  13.189   9.023  13.141 -0.1856  0.1236  0.1904
 9191W        W25265  17.130  16.106   4.238  0.1627 -0.1176  0.2554
 9192W        W25266  11.373   3.990   4.068 -0.0285 -0.0266 -0.2617
 9193W        W25267   7.755   1.174  11.975  0.2047  0.0604  0.0958
 9194W        W25268   1.172   0.875   5.509  0.0282 -0.2923 -0.1944
 9195W        W25269   5.405  17.646   3.843 -0.4423  0.0926  0.1034
 9196W        W25270  11.943  16.620   5.206 -0.2843  0.0380 -0.2525
 9197W        W25271   0.284  13.228   1.439  0.1086  0.2525 -0.0694
 9198W        W25272  13.191   5.834  13.380  0.0318 -0.1720 -0.2138
 9199W        W25273  10.823   5.272  11.800 -0.2301  0.1365  0.2217
 9200W        W25274  13.866  11.554  12.224 -0.0731 -0.0780 -0.0084
 9201W        W25275   2.219   2.853  11.168 -0.0905 -0.0623 -0.0639
 9202W        W25276  10.418  12.144  13.630 -0.0612 -0.1579 -0.1317
 9203W        W25277  14.518  15.361   3.310 -0.0559 -0.1557 -0.1457
 9204W        W25278   1.839   5.151   2.196 -0.2078  0.1567  0.0557
 9205W        W25279  14.811  10.911   2.990  0.2060  0.1887 -0.1101
 9206W        W25280  17.917  12.453  12.010  0.1954 -0.2477  0.1300
 9207W        W25281   2.335  11.756  13.440 -0.1720  0.0040  0.0097
 9208W        W25282   4.522   5.950  14.957 -0.1759  0.1061  0.1023
 9209W        W25283   5.156  17.522  11.003 -0.1849  0.0832 -0.1144
 9210W        W25284   4.985   2.507  11.959  0.3068 -0.0821 -0.0193
 9211W        W25285   8.267   6.900  14.624 -0.0935 -0.0062 -0.1855
 9212W        W25286   8.125   5.867  13.575  0.0863  0.1835  0.3950
 9213W        W25287  11.042  16.113  13.782 -0.0540  0.2032 -0.0372
 9214W        W25288   2.878   7.439   0.300 -0.0493  0.0105  0.2124
 9215W        W25289  11.815   3.108  11.324 -0.1698 -0.0755  0.1001
 9216W        W25290   9.364   3.349   3.727 -0.2406 -0.4443  0.0237
 9217W        W25291   4.185  16.691   0.307 -0.1567  0.1397  0.2693
 9218W        W25292   0.149  15.856   5.185  0.2418  0.2078  0.0087
 9219W        W25293  16.771  16.633   4.420 -0.4108  0.2208 -0.1432
 9220W        W25294   4.621   2.084   4.887  0.2930 -0.0324 -0.3902
 9221W        W25295  10.889  13.387  14.121  0.1094  0.2533 -0.0541
 9222W        W25296  16.107  15.129   2.923 -0.0618 -0.3062  0.4458
 9223W        W25297  18.244   3.777   1.954  0.0955 -0.1191 -0.0625
 9224W        W25298   7.584   5.930   1.604 -0.2065  0.1386  0.2139
 9225W        W25299   6.444  10.702  14.238 -0.1251 -0.0503  0.1298
 9226W        W25300  16.274   9.782  12.263 -0.0894  0.0426 -0.3442
 9227W        W25301   3.812  11.392  15.229 -0.0330  0.2817  0.1977
 9228W        W25302   0.242  13.958   0.563 -0.1760 -0.1175  0.1889
 9229W        W25303   4.778  14.148  15.232 -0.2136 -0.0371  0.1578
 9230W        W25304   4.633  14.605   4.862  0.3094  0.0635  0.2143
 9231W        W25305  13.053   3.168  14.607 -0.1154 -0.0699  0.1949
 9232W        W25306  11.047  13.936   1.719 -0.4489 -0.0814  0.1601
 9233W        W25307   4.278   1.862  13.180 -0.0481  0.2202 -0.0244
 9234W        W25308  14.414   1.588  11.963 -0.2419 -0.2070  0.3117
 9235W        W25309  16.641   1.082  12.826  0.0215  0.1417  0.0752
 9236W        W25310  12.818   7.296   4.186 -0.0784  0.1518 -0.2185
 9237W        W25311  16.822  16.573   1.935  0.3323  0.0475 -0.1123
 9238W        W25312   1.634   8.596   1.235  0.1053 -0.1392 -0.2178
 9239W        W25313   0.497  12.365  16.433 -0.3154 -0.1256 -0.1051
 9240W        W25314   0.794   8.408   2.478 -0.0008  0.3929  0.0370
 9241W        W25315   0.241   3.960   4.550 -0.1524  0.4114 -0.2734
 9242W        W25316   6.310   8.435   1.541 -0.4946 -0.4951  0.0284
 9243W        W25317  15.867   8.281   0.531 -0.1082 -0.0434  0.3944
 9244W        W25318   0.106  11.305  12.418 -0.0900 -0.1730  0.0642
 9245W        W25319   9.112  11.643  15.979  0.1390 -0.0039  0.1090
 9246W        W25320   6.956   2.461  14.507  0.0286  0.2147  0.1070
 9247W        W25321   7.173   1.178  16.268 -0.0194 -0.0609 -0.0242
 9248W        W25322   9.449  12.326  13.226 -0.1118  0.0146  0.1992
 9249W        W25323   9.345  15.188  16.030  0.1296  0.0768  0.4640
 9250W        W25324   4.252  17.774  14.981 -0.2619  0.1149 -0.1148
 9251W        W25325  14.808  13.035  14.867  0.1609  0.2693 -0.0795
 9252W        W25326   3.499   5.343   3.003  0.0105 -0.1468  0.1396
 9253W        W25327   7.013   7.588  14.097 -0.2062  0.0699 -0.0716
 9254W        W25328  11.511  14.913  13.795 -0.0246 -0.1141  0.2463
 9255W        W25329   7.523   1.475   5.373  0.2100 -0.0997 -0.1998
 9256W        W25330   6.142   6.270   0.231 -0.1095  0.0442 -0.0066
 9257W        W25331  13.132   9.372  16.431 -0.4001  0.1224  0.1604
 9258W        W25332  10.100   9.267  12.998  0.0420 -0.2805 -0.0510
 9259W        W25333  16.777  10.503   3.199  0.0156 -0.3870 -0.0600
 9260W        W25334   7.547  14.323   1.881  0.2367  0.1497 -0.2379
 9261W        W25335  14.523   4.182   0.334  0.0023  0.2371  0.1897
 9262W        W25336  17.116  18.215   4.584 -0.2308  0.0052 -0.0284
 9263W        W25337   6.448  12.969  11.926 -0.1860  0.2886  0.1001
 9264W        W25338  11.796   3.531   2.960  0.1484 -0.0935 -0.1654
 9265W        W25339  16.182  14.179   1.334 -0.1325  0.4636  0.0401
 9266W        W25340   9.531  13.488  13.362  0.0878 -0.1374 -0.0680
 9267W        W25341   3.553  12.216   4.520  0.0503 -0.0212 -0.0154
 9268W        W25342  16.495   5.173   0.720 -0.4333  0.1826  0.1862
 9269W        W25343  13.701   4.107   5.713 -0.1662  0.0017 -0.0970
 9270W        W25344  13.334   5.383   5.234  0.0594 -0.1253  0.1241
 9271W        W25345   2.554  10.750   6.017  0.0289  0.1552  0.2154
 9272W        W25346   3.382   7.082   3.492  0.2879 -0.0474 -0.1364
 9273W        W25347  15.357  17.836   5.901  0.2218 -0.1086  0.1206
 9274W        W25348  11.952   8.073   4.605  0.0712  0.0802  0.0192
 9275W        W25349  14.334   9.823  11.423  0.1419  0.1669 -0.2675
 9276W        W25350   7.883  12.664  12.533  0.0007  0.0434 -0.2313
 9277W        W25351   1.458  17.034   0.428  0.0283 -0.2299  0.0312
 9278W        W25352   9.171   6.487   2.230 -0.1061  0.0076 -0.1335
 9279W        W25353  15.958  16.283   2.309  0.0448 -0.2065 -0.0664
 9280W        W25354   5.783  14.905   4.549 -0.2505 -0.0230  0.1140
 9281W        W25355   1.210   0.523   4.486 -0.0606 -0.1386  0.2378
 9282W        W25356   6.626   2.892  16.178  0.0966 -0.2220 -0.0356
 9283W        W25357  15.175  14.472  15.279 -0.0919  0.0359  0.1897
 9284W        W25358   7.609   3.173   4.132  0.1660 -0.0170  0.0956
 9285W        W25359   0.928  17.865  11.798 -0.2525  0.1082  0.4101
 9286W        W25360   9.910   2.848  12.508  0.2981  0.0222  0.0314
 9287W        W25361  15.783  18.243  16.259 -0.0792 -0.0021  0.0159
 9288W        W25362   9.065   3.239   3.254  0.0136  0.0278 -0.0840
 9289W        W25363  10.926   5.950   3.188  0.0155  0.2060  0.1071
 9290W        W25364   4.347  15.269   0.306  0.1624  0.2644  0.1337
 9291W        W25365  14.531   0.993  16.378  0.3654  0.2352  0.1305
 9292W        W25366   6.325  12.955   3.525 -0.1259  0.2561  0.2851
 9293W        W25367  13.733   4.984   2.706  0.1902 -0.1936 -0.1300
 9294W        W25368   9.787   8.215   5.665  0.0952  0.0581 -0.0428
 9295W        W25369   2.988   2.095  12.080 -0.1527 -0.0767  0.0829
 9296W        W25370   8.049  17.180  13.685 -0.0702  0.1344  0.1707
 9297W        W25371  16.270  11.609  13.937 -0.3259 -0.1966  0.1198
 9298W        W25372  10.183   1.585   1.678  0.1287 -0.2995 -0.2080
 9299W        W25373  14.426   5.886   4.415 -0.0233  0.2171  0.1899
 9300W        W25374  17.615   2.393  15.215 -0.3749  0.1416  0.3075
 9301W        W25375   2.758   2.456   1.190  0.1678  0.3139 -0.1509
 9302W        W25376   4.278   7.898   3.293 -0.0562  0.1697 -0.1958
 9303W        W25377   9.819   5.110   3.767  0.1294 -0.0539  0.3879
 9304W        W25378   1.717  12.681  11.353 -0.1741  0.1952  0.2635
 9305W        W25379  14.287   8.430   1.492  0.0470 -0.0733  0.0040
 9306W        W25380   2.106  16.263  15.662  0.0115 -0.1859  0.0782
 9307W        W25381  18.100  15.788  11.063  0.1572 -0.4018  0.0372
 9308W        W25382   8.900   3.884   4.989  0.2226  0.1545  0.3205
 9309W        W25383   4.468  10.917   4.515  0.3363 -0.2235  0.1964
 9310W        W25384   2.982   6.334   4.581  0.1185  0.0239  0.2715
 9311W        W25385  10.934  13.220  13.594 -0.1808  0.0650 -0.0191
 9312W        W25386   1.638   1.469   1.916 -0.3484 -0.4135  0.1358
 9313W        W25387   5.612  13.593   4.762  0.4289 -0.1489  0.0040
 9314W        W25388  15.615   4.552   2.289 -0.1002 -0.1460  0.0751
 9315W        W25389  16.778  13.841  15.490 -0.0874 -0.0257  0.0751
 9316W        W25390   8.206   0.019   3.127 -0.2705 -0.0469  0.2786
 9317W        W25391   0.197  12.571  16.056  0.0313  0.2377  0.3271
 9318W        W25392   2.256   9.130  13.376  0.2430  0.1025 -0.0013
 9319W        W25393   7.582  17.500   2.023 -0.0824  0.4317 -0.0654
 9320W        W25394   6.901   1.548  12.027 -0.0341 -0.2333 -0.0362
 9321W        W25395  13.983  14.344   3.996 -0.1417  0.0595  0.2461
 9322W        W25396   5.175   0.710   2.627 -0.2754 -0.0414 -0.2706
 9323W        W25397   2.385   6.577   2.918  0.1885  0.2112 -0.2864
 9324W        W25398   6.801  15.969  12.704  0.0750  0.1957 -0.0428
 9325W        W25399   2.010  10.403  10.902  0.0954  0.1045 -0.1665
 9326W        W25400  13.547  13.149  11.945  0.0901  0.3442  0.2036
 9327W        W25401   1.350   2.150  13.891 -0.1186  0.0090 -0.1398
 9328W        W25402   3.901  16.500  14.772  0.0982  0.1191  0.2051
 9329W        W25403  11.165  13.665  15.391 -0.1001 -0.2691  0.1943
 9330W        W25404   2.145   6.531   0.124 -0.1440 -0.0870 -0.2918
 9331W        W25405  16.288  13.355  14.305 -0.0504  0.0655  0.3590
 9332W        W25406  13.970   0.107   2.751 -0.3784 -0.0913 -0.0190
 9333W        W25407  11.601  16.425   2.535  0.0055 -0.1683 -0.0148
 9334W        W25408  16.382   7.318   1.361  0.0656 -0.0346  0.0597
 9335W        W25409  17.733   0.920   0.194  0.0488  0.3531  0.2310
 9336W        W25410   8.927  16.465  13.936 -0.3820 -0.1845  0.0139
 9337W        W25411  10.002   9.043  14.197  0.0159 -0.1550 -0.0363
 9338W        W25412  17.244   8.093  12.382  0.2827  0.0691 -0.1336
 9339W        W25413   8.253  12.995   5.284  0.1482  0.1670  0.1036
 9340W        W25414  13.541   2.280  16.038 -0.3432 -0.1047  0.0951
 9341W        W25415   9.978   7.191  16.235  0.2103  0.1507  0.1596
 9342W        W25416  16.434   9.306   4.808 -0.1012 -0.3889  0.0556
 9343W        W25417   5.980  17.053   3.169  0.0613  0.0969  0.2759
 9344W        W25418   8.297  13.141   3.834  0.2086  0.2433 -0.0638
 9345W        W25419   9.937   6.855  11.768 -0.1282 -0.2459  0.1096
 9346W        W25420   5.224  11.382  13.587 -0.0732  0.0645  0.0912
 9347W        W25421  11.964  14.878  14.569  0.1997 -0.0285  0.0097
 9348W        W25422  12.405   9.106  12.815 -0.1277  0.3236 -0.0008
 9349W        W25423  11.292   2.209   2.254  0.0404  0.1521 -0.1620
 9350W        W25424   3.759   4.855  12.787  0.2217  0.3178 -0.2047
 9351W        W25425   2.884   9.359   5.759 -0.1622  0.2665 -0.2171
 9352W        W25426  10.722   5.725   2.429  0.0398  0.1964  0.1625
 9353W        W25427  14.266   8.174  13.309  0.0327 -0.1692 -0.0443
 9354W        W25428   0.305   4.868  14.185  0.0503 -0.1011 -0.0161
 9355W        W25429   3.254   2.254   3.999  0.0977 -0.0694  0.1096
 9356W        W25430  14.315   4.964  16.443  0.2037 -0.1141 -0.1321
 9357W        W25431  17.471   5.694   5.590 -0.3681 -0.2740 -0.0491
 9358W        W25432  16.845  17.960   4.228  0.1210 -0.0748  0.0392
 9359W        W25433   1.984  15.053  12.117 -0.0338  0.2572  0.0200
 9360W        W25434   6.720   9.320  13.689 -0.0535  0.0181 -0.0118
 9361W        W25435  10.579  16.784   5.397 -0.1308  0.1408  0.0415
 9362W        W25436  16.288   0.304   0.441  0.0053 -0.1194  0.2091
 9363W        W25437   4.229   1.580   2.150  0.2049 -0.2348  0.0028
 9364W        W25438   8.667  10.947  15.332 -0.1837  0.0843 -0.2407
 9365W        W25439   6.803  16.396   0.945 -0.2037  0.0268  0.0325
 9366W        W25440  11.731   8.320   5.061  0.0518 -0.1950  0.4282
 9367W        W25441  10.011  14.443   2.520 -0.3808  0.1349 -0.2620
 9368W        W25442  12.902  14.032   0.337  0.0643 -0.1515  0.1432
 9369W        W25443   4.364   7.107   5.359  0.1617  0.0178  0.1161
 9370W        W25444  11.703   5.352   2.668  0.0408 -0.2885  0.0857
 9371W        W25445   5.616   2.415   3.216 -0.1231  0.0448  0.1722
 9372W        W25446   3.489   0.792  13.286 -0.5652 -0.1513 -0.1014
 9373W        W25447   7.692   9.362  13.411  0.2620  0.0833  0.1000
 9374W        W25448   9.177  12.204   5.552  0.0077  0.1673 -0.0142
 9375W        W25449  14.267  12.472  14.500  0.0441  0.1317  0.3409
 9376W        W25450  13.688  17.894  13.740  0.1590  0.1019 -0.2840
 9377W        W25451  10.793   8.741  14.567  0.1218  0.1724 -0.1652
 9378W        W25452   8.397  13.043   5.808  0.1440  0.3509 -0.1122
 9379W        W25453   5.879   9.851  14.252 -0.2127 -0.1515  0.1023
 9380W        W25454   6.761  17.708   3.532  0.1975  0.1179  0.0235
 9381W        W25455   3.405   4.680  13.523 -0.1535 -0.1244 -0.1367
 9382W        W25456  17.124   7.598   3.439  0.0786 -0.0533  0.0145
 9383W        W25457  12.068  16.962   4.512  0.1917 -0.1465 -0.1846
 9384W        W25458   8.002   6.871   4.764  0.1209  0.1000 -0.0027
 9385W        W25459   7.302   3.913  12.778  0.0444  0.0703 -0.0301
 9386W        W25460  13.470   6.055  14.098 -0.2065 -0.0650  0.0270
 9387W        W25461  18.128  13.273  14.472  0.1090 -0.1776 -0.0479
 9388W        W25462  11.854   7.391   2.222  0.0119 -0.1911 -0.0074
 9389W        W25463   5.223  11.020   5.107  0.1403 -0.1662  0.1123
 9390W        W25464   3.851  12.069   5.308 -0.1440 -0.1030 -0.0200
 9391W        W25465   2.587   9.251  11.023  0.1441  0.2691  0.0208
 9392W        W25466  17.963  11.839   4.175 -0.0385  0.0944  0.0298
 9393W        W25467  10.976   0.933  11.687  0.1144 -0.3587  0.0116
 9394W        W25468  12.936   4.179  10.648 -0.0561 -0.1542 -0.1805
 9395W        W25469  11.430  15.385  12.023  0.0092  0.2176  0.3956
 9396W        W25470  18.038   5.743  15.521 -0.1356 -0.0109  0.4737
 9397W        W25471  12.060  17.638   1.790  0.0957  0.1341 -0.1491
 9398W        W25472   6.245   5.806   5.089  0.4009 -0.2574 -0.1887
 9399W        W25473   0.743  16.432  12.066 -0.1816 -0.1533  0.0512
 9400W        W25474  16.280  17.101   4.951  0.0896 -0.1323 -0.1481
 9401W        W25475   4.593  16.881   1.170  0.0370 -0.1288  0.0603
 9402W        W25476  11.891   8.225  13.885  0.5219 -0.1464  0.1447
 9403W        W25477   3.656   5.957   3.434 -0.0490 -0.2063 -0.0517
 9404W        W25478  15.584  15.923   4.567 -0.3557  0.0323  0.2826
 9405W        W25479   8.114   3.354  15.591 -0.0133  0.0245 -0.0468
 9406W        W25480   1.892  18.027  11.962  0.0125 -0.0656  0.0924
 9407W        W25481  13.328   2.352  12.308 -0.0283  0.3045  0.1293
 9408W        W25482  14.013   2.396   1.976 -0.0633  0.1010  0.0476
 9409W        W25483   4.184   7.903  10.843 -0.2634  0.1304  0.3000
 9410W        W25484   0.287  15.408   5.429  0.2011 -0.0649 -0.0229
 9411W        W25485   1.937  15.222  16.077 -0.0252 -0.1714 -0.0432
 9412W        W25486  17.006   4.424   5.570 -0.0451  0.0637  0.0954
 9413W        W25487   7.669   7.208   0.692  0.0257 -0.2870 -0.4273
 9414W        W25488   8.559  10.195  14.578 -0.2450 -0.1282  0.0733
 9415W        W25489  11.834  10.049   4.792  0.1844  0.1108  0.0706
 9416W        W25490   8.930   8.897  13.647  0.3029 -0.1341  0.0900
 9417W        W25491   5.650  14.176   0.738 -0.4043 -0.2465  0.0849
 9418W        W25492  15.830   7.693  15.919 -0.0688  0.0918 -0.1652
 9419W        W25493   3.759   1.272   5.408  0.2086 -0.0851 -0.2882
 9420W        W25494  13.328   4.623  14.743 -0.0012 -0.2013 -0.1983
 9421W        W25495  14.559   2.617  15.049  0.1797  0.0024  0.0924
 9422W        W25496  12.779   3.526   1.678 -0.4138  0.2827 -0.0144
 9423W        W25497   9.028   5.454  11.797 -0.1149  0.2274  0.0249
 9424W        W25498   7.867  18.191  12.721  0.0790 -0.0817 -0.0239
 9425W        W25499   2.680   4.853   0.936  0.0077  0.1972  0.0742
 9426W        W25500   7.286   4.151  16.227 -0.0448  0.0576  0.2000
 9427W        W25501   9.624  13.262  12.884 -0.0574  0.0079  0.0303
 9428W        W25502  15.954   0.988  13.134  0.1383  0.1587  0.0824
 9429W        W25503  13.226   8.659   0.429 -0.2192  0.1797 -0.3226
 9430W        W25504   4.183  14.567  12.693 -0.2214 -0.3545  0.4349
 9431W        W25505  14.395   3.900   5.298  0.1073 -0.1728 -0.1630
 9432W        W25506  11.423   1.689  14.163 -0.0154 -0.1788  0.2857
 9433W        W25507   3.901  17.598   5.006 -0.1532 -0.1655  0.1884
 9434W        W25508  14.291   0.520   0.084  0.2497 -0.1182  0.0949
 9435W        W25509   5.404   9.397   4.686  0.0429 -0.1644  0.3798
 9436W        W25510   2.527   9.406   4.117  0.1202 -0.1287  0.4324
 9437W        W25511  14.191   4.983  14.508  0.2092  0.1624 -0.1307
 9438W        W25512  14.105  14.607  12.560 -0.0688 -0.0174  0.1013
 9439W        W25513  17.960   1.122  15.269  0.0321  0.2826  0.1463
 9440W        W25514  16.513  16.829   3.703  0.0283 -0.4256  0.0870
 9441W        W25515   2.070  15.425   0.565 -0.0807  0.0532 -0.0635
 9442W        W25516  13.174  14.502   3.021  0.0268 -0.0502  0.1962
 9443W        W25517  16.916   3.182  11.701 -0.1196  0.1600  0.2490
 9444W        W25518   3.308  10.219  15.722  0.1147  0.1302 -0.1768
 9445W        W25519  12.166   6.686   5.562  0.1938  0.2004 -0.1976
 9446W        W25520  10.702  13.856   5.193  0.1245 -0.3457 -0.2224
 9447W        W25521   9.055  14.374  14.018  0.3172  0.2006  0.1674
 9448W        W25522   0.226  11.310   5.272  0.3207  0.0683 -0.0331
 9449W        W25523  16.962   8.534   3.056 -0.0280  0.1271  0.1737
 9450W        W25524  18.219  10.704   2.464  0.0659 -0.1486  0.2195
 9451W        W25525   6.357  17.155   5.771  0.0549  0.1725 -0.1104
 9452W        W25526  14.182  16.072  15.302  0.1884  0.0018  0.0058
 9453W        W25527  10.025  16.338  14.281  0.3492  0.1396 -0.2488
 9454W        W25528   1.934  10.621   4.037 -0.0688 -0.0337 -0.0016
 9455W        W25529  11.286  13.019  15.744  0.1379 -0.0691 -0.1069
 9456W        W25530  18.109  17.550   3.727 -0.2853  0.0376 -0.1349
 9457W        W25531   9.202  16.203   1.990  0.0325  0.4110 -0.0124
 9458W        W25532  15.999   3.219   4.695  0.0008 -0.1046  0.3915
 9459W        W25533  11.989   1.799   5.593  0.3507 -0.0688  0.2224
 9460W        W25534  11.468   2.722  11.357  0.1461 -0.0314 -0.2450
 9461W        W25535   3.333   5.561  16.458  0.1788  0.3401 -0.0346
 9462W        W25536   7.753  16.111  15.606  0.2343  0.0502 -0.3571
 9463W        W25537   2.689  10.410   4.579  0.0118  0.1083  0.2431
 9464W        W25538  16.874   9.008   3.375 -0.0947  0.1222  0.0451
 9465W        W25539   0.159  17.549   5.379  0.0985  0.1568 -0.1255
 9466W        W25540  17.955   3.242   1.394 -0.2738 -0.1990 -0.1512
 9467W        W25541  12.208   6.063   1.487 -0.1249 -0.2105 -0.2805
 9468W        W25542   4.481  13.049  15.538 -0.2515 -0.2908  0.0085
 9469W        W25543  14.268  13.839  15.940  0.0497  0.1654  0.4020
 9470W        W25544  10.009  14.098   2.044 -0.1024  0.2509 -0.4595
 9471W        W25545  12.630  15.204   4.918  0.0226  0.0753 -0.2742
 9472W        W25546  12.352   6.458  14.308  0.0988  0.2067  0.1257
 9473W        W25547   0.592   1.059   3.455  0.2194 -0.3153 -0.0685
 9474W        W25548  10.692  11.134   3.249  0.1674 -0.1873 -0.0321
 9475W        W25549   2.215   5.065  12.521  0.2234 -0.2055 -0.2214
 9476W        W25550  14.542   4.858  12.676 -0.1233 -0.0634  0.0161
 9477W        W25551  11.726   1.840  14.942 -0.5087  0.0208 -0.1088
 9478W        W25552  10.748   9.593  12.609  0.0423  0.0441  0.2270
 9479W        W25553   4.457  14.013   5.299 -0.2823 -0.2313  0.0057
 9480W        W25554   5.547  10.867  15.149 -0.0661 -0.3710  0.0074
 9481W        W25555   0.180  12.799   2.780 -0.3478  0.1313 -0.2158
 9482W        W25556   8.872  15.812  13.990 -0.1366  0.1281 -0.1758
 9483W        W25557   6.438  16.636  11.650  0.1484 -0.2018  0.0959
 9484W        W25558   2.147  15.598   4.153  0.1725  0.0488 -0.1997
 9485W        W25559   1.859  16.638  11.693  0.1353 -0.0638 -0.0251
 9486W        W25560  17.106   7.249   4.215 -0.1357 -0.1920  0.0147
 9487W        W25561  15.152  14.058  11.448  0.1596  0.0101  0.0006
 9488W        W25562   8.427   7.783   0.782 -0.4841  0.1885  0.2569
 9489W        W25563   7.757   5.936   6.467  0.1879 -0.1507 -0.3241
 9490W        W25564   9.378  13.632   0.838  0.3620 -0.2149  0.0686
 9491W        W25565   3.623   5.339   0.816 -0.2057 -0.1078  0.1629
 9492W        W25566  16.567  14.738  14.305 -0.0070  0.0503 -0.2306
 9493W        W25567   9.602  13.567  10.958 -0.1696  0.0314 -0.1960
 9494W        W25568   8.861  13.318   1.838  0.2953  0.0435  0.0257
 9495W        W25569   8.517  13.686   1.338  0.2720  0.0528  0.0025
 9496W        W25570  15.140  14.675   4.606 -0.0865 -0.0414 -0.2149
 9497W        W25571  16.372  12.742   2.331  0.0752 -0.1383 -0.1503
 9498W        W25572  16.721  16.707   2.817  0.1532  0.3842 -0.1279
 9499W        W25573  10.235   2.877   2.013 -0.2654  0.0495  0.1110
 9500W        W25574  18.063   9.414  12.658 -0.0082 -0.1052 -0.1218
 9501W        W25575   8.834  17.024  12.672 -0.1279 -0.5106 -0.2029
 9502W        W25576  16.395  14.105   2.651  0.0762 -0.0514  0.1253
 9503W        W25577  17.704  13.210  11.214  0.0329 -0.0666 -0.2238
 9504W        W25578  13.293   1.347   5.401 -0.0542  0.0630  0.0394
 9505W        W25579   4.856   8.772   2.235  0.0256  0.1607  0.0964
 9506W        W25580  11.137   9.402  15.225  0.1789 -0.1570 -0.1976
 9507W        W25581   1.884   6.902   4.584 -0.0265  0.0937 -0.3157
 9508W        W25582  14.047   7.543  12.694  0.1657 -0.0303  0.2808
 9509W        W25583  13.470   9.940   1.793 -0.1780 -0.2637  0.1199
 9510W        W25584  13.155   6.751  13.903  0.1008  0.0367 -0.0027
 9511W        W25585  12.543   9.024  13.794  0.1976 -0.3017  0.2891
 9512W        W25586   2.349   4.760  14.984 -0.0193 -0.0370  0.0601
 9513W        W25587  14.125  16.122   3.163  0.0134  0.0322  0.3549
 9514W        W25588   4.156  15.008   2.812 -0.0957 -0.1457  0.0761
 9515W        W25589   0.944  14.240  13.332  0.1676  0.0452  0.1952
 9516W        W25590   2.798  13.988   2.584  0.0210  0.0316  0.2365
 9517W        W25591   8.600   2.480  15.693 -0.3123  0.1615 -0.2784
 9518W        W25592  10.118  15.061   6.049 -0.0515  0.0419  0.2703
 9519W        W25593  14.838   4.361   3.585 -0.1171 -0.0430  0.1494
 9520W        W25594   2.949  10.297   1.406  0.1381  0.2605  0.1489
 9521W        W25595   0.474  14.405   0.789  0.2390  0.0180 -0.0084
 9522W        W25596   2.537  10.948  15.499 -0.3205  0.0572 -0.2078
 9523W        W25597  13.875  12.909   5.247  0.3298  0.1111  0.5550
 9524W        W25598   9.701  13.129  15.802 -0.0681 -0.2877 -0.0456
 9525W        W25599  16.450  10.924  15.235  0.1750  0.3546 -0.2496
 9526W        W25600   9.176  16.773   3.665  0.0655 -0.0942 -0.1948
 9527W        W25601  18.125   9.892   2.124  0.0136  0.1809 -0.1117
 9528W        W25602   5.467   1.678  16.467 -0.1089  0.2732 -0.0936
 9529W        W25603   3.127   7.770   2.141 -0.0070  0.1887 -0.1778
 9530W        W25604   0.604  18.000   4.164  0.0757  0.2462 -0.2000
 9531W        W25605   8.685   0.137   4.840  0.0133 -0.1910 -0.1748
 9532W        W25606   3.547  13.478   3.822 -0.1952  0.2201  0.3561
 9533W        W25607  13.727   7.288  12.294 -0.2493 -0.0103 -0.0231
 9534W        W25608   5.058  11.648  14.859  0.1646  0.0734 -0.1875
 9535W        W25609   0.007  16.595   3.028  0.0893 -0.0982 -0.0046
 9536W        W25610   3.393   4.917   2.132  0.0144 -0.1543  0.1138
 9537W        W25611  10.136   8.750  13.332 -0.1935  0.0423 -0.0913
 9538W        W25612   0.089  12.303   3.556  0.3052 -0.2062  0.0220
 9539W        W25613   9.182   1.533   1.752 -0.2894  0.3117 -0.1712
 9540W        W25614  15.601  12.971  12.242  0.0084 -0.1149 -0.1369
 9541W        W25615   7.683   9.843  11.180 -0.0029 -0.1720 -0.1833
 9542W        W25616  16.650  13.026  13.509  0.0448  0.0787 -0.1093
 9543W        W25617   1.940  18.055   1.194  0.3698 -0.0232 -0.0425
 9544W        W25618  12.466   3.591  11.805 -0.1602 -0.0605 -0.2490
 9545W        W25619   2.651   9.068  14.347 -0.1901  0.0542 -0.0679
 9546W        W25620  11.456  14.629  11.971 -0.0229  0.1278 -0.1320
 9547W        W25621  11.889   5.487  12.620 -0.1097 -0.1624 -0.0428
 9548W        W25622  13.002  12.295  13.091 -0.0783 -0.0889  0.2528
 9549W        W25623   7.730  14.915  15.090 -0.3068 -0.0746 -0.0654
 9550W        W25624  12.405  15.602   1.350  0.4129 -0.1612 -0.2542
 9551W        W25625  16.329   4.639  15.150 -0.2973  0.1297 -0.1494
 9552W        W25626  11.738  12.465   0.092 -0.1328  0.1396 -0.2588
 9553W        W25627   2.249  12.446  12.392  0.0779 -0.4312 -0.2168
 9554W        W25628   7.984   1.288   5.520  0.1973  0.0365  0.0875
 9555W        W25629   5.064  14.542   3.613  0.0179  0.1693 -0.1446
 9556W        W25630   0.222   6.530  15.946 -0.0209 -0.0850 -0.1232
 9557W        W25631  14.437   0.740  13.509  0.2576  0.1140  0.2643
 9558W        W25632  15.774   3.451   6.154  0.2541  0.0805  0.0267
 9559W        W25633   5.837  13.542  12.595  0.1790 -0.0771  0.0674
 9560W        W25634  17.813   0.848   0.673 -0.1539  0.0117 -0.1319
 9561W        W25635   9.853  15.076  16.121  0.3297  0.2369 -0.1285
 9562W        W25636   9.256   3.457   6.330  0.2473  0.5941  0.1840
 9563W        W25637   8.276   3.072   1.264  0.0567 -0.0826  0.2304
 9564W        W25638   3.586  14.703   6.289  0.0676  0.1800 -0.0250
 9565W        W25639   2.955  11.217   2.145  0.2467  0.1404 -0.1256
 9566W        W25640  14.749   2.915  15.440 -0.1994  0.0793 -0.0886
 9567W        W25641   0.231  11.176   0.640  0.2586  0.0631  0.0340
 9568W        W25642   1.231   2.013  12.114 -0.4241 -0.0669 -0.1351
 9569W        W25643   5.051  12.395   1.443  0.0332  0.0466 -0.1173
 9570W        W25644  13.107   0.393  12.208 -0.1122 -0.3323  0.1077
 9571W        W25645   3.519  15.780   3.920  0.2713 -0.0877 -0.0101
 9572W        W25646  10.716   1.700   0.266  0.0293  0.0135  0.0429
 9573W        W25647  15.700   6.802   3.064 -0.0627 -0.0374  0.0273
 9574W        W25648  16.454   9.773   1.172 -0.3820  0.1165 -0.3450
 9575W        W25649  15.512   7.241  13.808  0.0689  0.1215 -0.0820
 9576W        W25650   9.687   4.152   5.812  0.3017 -0.2249 -0.2718
 9577W        W25651  12.691   4.387  12.825 -0.2771  0.0029 -0.1289
 9578W        W25652  15.373  12.468   4.577 -0.1500  0.1636  0.0565
 9579W        W25653  12.603  12.316   1.387  0.0807  0.0922  0.1941
 9580W        W25654  15.796   0.457   3.767  0.2660  0.1139 -0.3399
 9581W        W25655  10.774   2.536  11.959 -0.0255  0.3161 -0.2271
 9582W        W25656  13.825  11.319   0.263  0.1208  0.2569  0.2444
 9583W        W25657  18.091   7.511  14.331  0.2821  0.1504 -0.0592
 9584W        W25658  12.837  16.593   4.640 -0.0595  0.1623 -0.1075
 9585W        W25659   6.730  15.597   1.743 -0.0936 -0.1210  0.1688
 9586W        W25660  12.881   4.914   4.494  0.1976 -0.0496  0.1053
 9587W        W25661   3.573   8.259   1.395 -0.3599  0.0018  0.2068
 9588W        W25662   2.393   5.977  10.944  0.2498 -0.2594 -0.1783
 9589W        W25663   6.988  12.157   0.762 -0.2109 -0.0327  0.1699
 9590W        W25664   6.062   9.319  12.013 -0.1076 -0.3907 -0.0913
 9591W        W25665  12.364  11.562  10.233 -0.0630  0.0919 -0.0683
 9592W        W25666   2.109  13.099   5.076 -0.0297  0.1497 -0.0360
 9593W        W25667   7.695  11.147   1.282  0.1033 -0.0619  0.1734
 9594W        W25668  14.138  10.328  15.568  0.1090  0.1480  0.0058
 9595W        W25669   6.600  12.096  16.399  0.0609  0.0030  0.0431
 9596W        W25670  16.279   1.313  15.472 -0.2610  0.2900  0.1304
 9597W        W25671   1.796  11.993   5.911  0.1761  0.2073 -0.1007
 9598W        W25672   1.897   8.080   1.445  0.0782 -0.0517 -0.0956
 9599W        W25673   2.541   7.190  14.367  0.1099 -0.0416  0.1332
 9600W        W25674  15.763  17.062   1.627 -0.1466  0.2284  0.0987
 9601W        W25675   6.131  14.022   3.365 -0.1231 -0.0365 -0.0731
 9602W        W25676  17.267   6.121  15.088  0.3142 -0.0646  0.1040
 9603W        W25677  13.543  12.883  14.144 -0.0181  0.3306 -0.0421
 9604W        W25678   4.533  11.316  13.585 -0.1880  0.0142  0.1191
 9605W        W25679  18.149   6.069  13.318  0.0331  0.1196 -0.2438
 9606W        W25680   9.258   6.424   3.476 -0.1520  0.1245  0.1508
 9607W        W25681   3.423  17.815   4.970 -0.1566  0.1158  0.0654
 9608W        W25682  17.545  11.845  14.876  0.0102  0.2402  0.0463
 9609W        W25683  14.898   3.848  15.695  0.2459  0.0216  0.4126
 9610W        W25684   4.345   8.285   4.130  0.0549  0.1229  0.1046
 9611W        W25685   2.961   8.342   4.339 -0.1750 -0.0090  0.2117
 9612W        W25686  12.485   7.198  15.625 -0.1420 -0.1356  0.3496
 9613W        W25687  11.599  12.716  11.549 -0.3579 -0.0043 -0.3490
 9614W        W25688   1.233   4.139  11.522  0.0409 -0.2761  0.1105
 9615W        W25689  14.689  17.369  11.171 -0.1427 -0.0221 -0.3169
 9616W        W25690   9.054   7.938   3.226  0.0622 -0.2789  0.0474
 9617W        W25691  17.048  15.091   1.898 -0.0990 -0.0522  0.4087
 9618W        W25692  16.756   8.243   4.855 -0.0395 -0.0597  0.1110
 9619W        W25693   3.264  11.253   3.983  0.1478 -0.3047 -0.3250
 9620W        W25694   0.503  12.180  11.874  0.2020  0.0231  0.0911
 9621W        W25695   2.431   1.648  14.711  0.1270 -0.0362 -0.1333
 9622W        W25696  15.836  13.835  15.497 -0.0550  0.0402  0.0623
 9623W        W25697  11.772  17.806  15.706  0.1356  0.1534  0.0257
 9624W        W25698  11.905   5.314  13.938 -0.0915 -0.1931 -0.1481
 9625W        W25699  11.893  11.555   0.261 -0.0810 -0.3924 -0.1171
 9626W        W25700   0.781   3.470   2.177 -0.0307 -0.3783 -0.0035
 9627W        W25701  11.950   2.534  13.135  0.1180  0.1060  0.0555
 9628W        W25702  14.381   3.087   2.781  0.0367  0.1842 -0.0729
 9629W        W25703   2.968   2.377   5.699 -0.1649  0.2124 -0.2731
 9630W        W25704   1.993   7.994  12.124  0.0275 -0.2316 -0.3080
 9631W        W25705   2.908   7.160   1.048  0.3450  0.0600  0.4051
 9632W        W25706   4.266  14.829  11.090  0.0596 -0.0189  0.0772
 9633W        W25707   0.066   3.584  12.993  0.2127  0.0821  0.0942
 9634W        W25708   8.576  15.241  11.958  0.1587  0.2009 -0.1655
 9635W        W25709  18.124   0.594  16.003 -0.1636  0.2121  0.2113
 9636W        W25710   5.265   8.913  15.636  0.3738  0.0798 -0.2426
 9637W        W25711  11.227  11.963  14.774  0.0127  0.1938  0.0425
 9638W        W25712  16.011  15.289   0.655  0.1182  0.2107 -0.3362
 9639W        W25713  10.900  11.345   1.487 -0.2495  0.0751  0.1454
 9640W        W25714  13.083  16.926   2.479  0.1277 -0.1152 -0.3580
 9641W        W25715  12.247   9.124  12.023 -0.2342  0.0882 -0.0442
 9642W        W25716  18.162   9.122  13.841 -0.0236  0.3093  0.0157
 9643W        W25717   3.129   5.815   4.672  0.1579  0.0201 -0.1436
 9644W        W25718   9.116   8.182   6.199  0.3641  0.4505  0.0917
 9645W        W25719  14.240  10.745  12.734 -0.1549  0.2845  0.0376
 9646W        W25720  16.389  15.641  12.206  0.0307 -0.0316 -0.3844
 9647W        W25721  16.776   8.051   3.077 -0.1276  0.1356  0.1660
 9648W        W25722   5.996   6.225   2.347  0.0971  0.0253  0.0569
 9649W        W25723   7.864   8.807  16.172  0.2773 -0.2058 -0.0339
 9650W        W25724   0.534   6.502  16.464 -0.0248  0.2271  0.1409
 9651W        W25725   0.006  16.735  15.088  0.1526  0.1408  0.1208
 9652W        W25726  16.785   1.806   1.525  0.2021  0.2874 -0.2319
 9653W        W25727   8.099   9.072  15.788 -0.2329  0.0287 -0.0074
 9654W        W25728   5.675  17.649   4.952 -0.1056 -0.1212  0.1362
 9655W        W25729  18.186   8.255   5.868 -0.1818 -0.1745 -0.0023
 9656W        W25730  10.192   3.225  15.698  0.1770 -0.1267 -0.1482
 9657W        W25731  13.297   3.561  14.918 -0.3845 -0.0723 -0.1901
 9658W        W25732  12.098  15.171  12.585  0.0423 -0.1275  0.1288
 9659W        W25733   5.756   5.381   0.747 -0.3836 -0.4437  0.0266
 9660W        W25734   9.267   5.159   3.322  0.1794 -0.3565 -0.1283
 9661W        W25735  10.034   9.578  13.927  0.0846 -0.3000  0.1935
 9662W        W25736  11.596  14.857   1.872 -0.1087 -0.1657  0.0097
 9663W        W25737   3.308   8.725  14.151 -0.2153  0.1367  0.1314
 9664W        W25738   0.963   6.269   5.041  0.0729  0.0476 -0.0862
 9665W        W25739  17.162   0.454   2.622  0.3775  0.3471  0.3168
 9666W        W25740   5.903  12.495  16.388  0.0849 -0.0071 -0.2082
 9667W        W25741   9.102  16.103   0.479 -0.1420  0.2575  0.0118
 9668W        W25742  17.683  13.560   4.407 -0.0157  0.1741  0.1815
 9669W        W25743   9.259   2.191   3.948  0.0707  0.1468 -0.0212
 9670W        W25744  15.351   2.465   4.752  0.2357  0.3014  0.0663
 9671W        W25745   6.953  13.035  13.089  0.0748  0.1836 -0.3268
 9672W        W25746   2.999  10.075  10.866 -0.0773 -0.0368  0.1513
 9673W        W25747  15.297   9.247   1.953 -0.0992 -0.2646  0.0055
 9674W        W25748   7.346   5.914   1.053 -0.0710  0.1339  0.1570
 9675W        W25749  14.518   5.641  16.433 -0.1564 -0.2674  0.0428
 9676W        W25750  12.350   9.713  13.856  0.1319 -0.0292 -0.0853
 9677W        W25751  13.212   1.927  16.037 -0.1735  0.0233  0.0092
 9678W        W25752  13.786  17.796   4.547  0.1043 -0.0137 -0.3842
 9679W        W25753   0.454   1.047  13.555 -0.1212  0.1918 -0.0350
 9680W        W25754  13.017   2.601  11.699 -0.0370 -0.0805 -0.0700
 9681W        W25755   2.352  16.165   0.931 -0.2389  0.0419  0.0008
 9682W        W25756  18.060  14.902   0.469  0.2055  0.3624  0.0624
 9683W        W25757  12.097   5.579   1.777  0.1908  0.0321 -0.2900
 9684W        W25758   2.013  12.990   4.532 -0.0268  0.2686 -0.0585
 9685W        W25759  16.173   5.498  13.300 -0.0933  0.1751 -0.2306
 9686W        W25760  18.151  14.889   1.885  0.0375  0.0172  0.0504
 9687W        W25761  15.509   9.489   0.162  0.0090 -0.0915  0.3810
 9688W        W25762  14.987  13.939   0.003  0.2358  0.1924  0.1907
 9689W        W25763   0.703   7.299   4.464 -0.0467  0.0611 -0.0015
 9690W        W25764  11.661   7.167   4.402  0.1821 -0.7113  0.2669
 9691W        W25765  18.044  11.205  11.545 -0.3744  0.0637  0.1184
 9692W        W25766  16.748   0.345   0.753 -0.1226  0.1686  0.2120
 9693W        W25767   8.014  10.138   4.518 -0.2895 -0.3306  0.1300
 9694W        W25768   8.033   8.359   2.388 -0.0846 -0.3221 -0.1770
 9695W        W25769   6.526   7.825   3.213  0.0030 -0.1658  0.0775
 9696W        W25770  11.512   6.947   2.703 -0.2448  0.0679 -0.3497
 9697W        W25771   3.478   1.162  15.151  0.1834  0.1291  0.0170
 9698W        W25772   4.016   5.473  11.960  0.0715  0.1975 -0.1278
 9699W        W25773   8.258  17.248  12.625 -0.5650  0.1234 -0.0122
 9700W        W25774  11.926   3.927   1.929 -0.1109 -0.1430 -0.2523
 9701W        W25775   0.097   9.897   1.064  0.0684 -0.0820 -0.0675
 9702W        W25776   3.500  11.844   3.329 -0.3803  0.2401  0.1405
 9703W        W25777  15.715  10.652   0.690 -0.0568 -0.2407 -0.2318
 9704W        W25778   0.489   4.291  14.149  0.0574  0.1114 -0.0466
 9705W        W25779   4.393   2.468   4.534  0.1565  0.0801  0.3219
 9706W        W25780  12.310   2.153  12.178  0.1682  0.3003 -0.1577
 9707W        W25781  16.395   5.866   6.343 -0.1713  0.0611 -0.2568
 9708W        W25782   2.254   9.947  11.130  0.1112  0.0919  0.0679
 9709W        W25783   5.701   0.699   2.317  0.0660  0.2994 -0.3528
 9710W        W25784   2.430  10.852  14.976  0.1638  0.0304 -0.0560
 9711W        W25785  16.525   8.855  13.104  0.1753 -0.2494 -0.0321
 9712W        W25786   1.051   2.437   0.606  0.1716 -0.1988  0.0527
 9713W        W25787   1.496   3.988  14.070  0.0874  0.1716 -0.3035
 9714W        W25788  10.743  10.002   0.099  0.0017  0.1349 -0.1858
 9715W        W25789   8.937  15.840   1.651  0.3384  0.0763  0.2667
 9716W        W25790  15.874  16.897   2.777  0.2056 -0.0462 -0.0606
 9717W        W25791   2.506   8.726  12.502  0.1851  0.1803 -0.1856
 9718W        W25792   7.342   8.962   1.272  0.2310 -0.0283 -0.1192
 9719W        W25793  12.892   8.103   1.893  0.1902 -0.1323  0.1914
 9720W        W25794   8.431   5.531  14.077 -0.0026 -0.4443  0.0127
 9721W        W25795   0.066   5.890   0.278 -0.2835 -0.1999 -0.0531
 9722W        W25796  13.610   0.952   5.269 -0.0956  0.3403 -0.0299
 9723W        W25797   7.989  10.507  12.125  0.1238 -0.0334 -0.0532
 9724W        W25798   6.527   9.909  12.424  0.0010 -0.1127  0.1902
 9725W        W25799  18.043  14.594  14.846  0.0941 -0.2631 -0.1947
 9726W        W25800   5.228   8.122  15.726  0.1998 -0.2457  0.1639
 9727W        W25801   5.138  14.223   2.097  0.0009 -0.0947  0.1689
 9728W        W25802   5.279  10.668  14.341  0.2103 -0.0018 -0.0977
 9729W        W25803  17.170   2.476  10.232 -0.1852  0.0359 -0.1082
 9730W        W25804  11.907   3.040   3.138  0.0156  0.2747 -0.1389
 9731W        W25805  13.110  13.204  15.842  0.2350 -0.4825  0.0950
 9732W        W25806   7.241   8.464  14.812 -0.0719 -0.2939 -0.0018
 9733W        W25807   9.085  11.873   3.760  0.1443  0.0046  0.1115
 9734W        W25808   8.627   5.800   4.303  0.0760  0.0868 -0.1267
 9735W        W25809   2.444  11.392  15.208  0.1176  0.2152 -0.0393
 9736W        W25810  16.598  11.069   3.938 -0.1644  0.0247 -0.0485
 9737W        W25811   3.369  17.765  15.296  0.0652 -0.2292  0.2762
 9738W        W25812   0.072  16.508   0.997  0.1842 -0.1646  0.2046
 9739W        W25813   1.061  15.767   3.635 -0.1274 -0.1332  0.0160
 9740W        W25814  14.506  12.844   2.106 -0.2790 -0.0238  0.4035
 9741W        W25815   0.021   3.129  16.081  0.0311  0.1837 -0.1019
 9742W        W25816   6.976  11.437  12.158 -0.2243  0.3081  0.1918
 9743W        W25817   6.967   9.822   1.144 -0.2198  0.2046 -0.0049
 9744W        W25818  11.357  15.040   2.255  0.1026  0.0294 -0.1217
 9745W        W25819  18.174   5.323   5.326  0.1145  0.1842 -0.1920
 9746W        W25820  17.860   1.390   0.657  0.2188  0.3154  0.0873
 9747W        W25821   6.720   7.371  14.963  0.1884 -0.2366  0.2486
 9748W        W25822  16.083  17.845   3.317  0.1686 -0.0048 -0.0637
 9749W        W25823  12.110  13.868  15.384  0.3271  0.2471 -0.3950
 9750W        W25824  10.593   1.047  15.431  0.0324  0.1612  0.2010
 9751W        W25825   1.022  17.188   0.225 -0.1515 -0.1501  0.1186
 9752W        W25826   5.164   5.927   6.315  0.0756 -0.0396 -0.2139
 9753W        W25827   9.661  12.322  14.450 -0.0749 -0.0387  0.3683
 9754W        W25828  12.940   0.800  16.226  0.2103 -0.0954 -0.0376
 9755W        W25829   9.485  16.376   0.342 -0.0457 -0.3647 -0.2635
 9756W        W25830   1.425   5.616   4.069  0.2889  0.0325 -0.0775
 9757W        W25831   0.817  12.540  15.550  0.0327 -0.0963 -0.1033
 9758W        W25832  12.435  17.364   1.510 -0.1439  0.2085  0.3013
 9759W        W25833   1.338  13.824  13.308 -0.1287  0.2461 -0.2443
 9760W        W25834   1.573   7.587  12.169  0.1314 -0.2630  0.3841
 9761W        W25835   4.991   8.156  13.519 -0.0199 -0.2833 -0.2511
 9762W        W25836   5.619  15.423   4.881 -0.2481  0.1035  0.0288
 9763W        W25837   7.264   3.283  13.388  0.1427  0.1523 -0.0703
 9764W        W25838   9.897   1.186   6.535 -0.2748 -0.0353  0.0029
 9765W        W25839   7.874  16.345   4.095 -0.1523 -0.4185 -0.1592
 9766W        W25840  16.051   7.641  11.610 -0.2105  0.0996  0.1057
 9767W        W25841   0.818  11.679  15.157  0.1575  0.0068 -0.3137
 9768W        W25842  12.321  16.454   2.945 -0.1208  0.2271 -0.0762
 9769W        W25843   0.657   8.931  14.977  0.3420  0.1243 -0.2077
 9770W        W25844  17.146  16.921   3.456  0.1438  0.0847  0.0330
 9771W        W25845  18.033  14.122  13.952  0.2730  0.1475 -0.1989
 9772W        W25846  12.165  13.657   4.907  0.2289 -0.0304 -0.0936
 9773W        W25847   0.464   9.842   4.732  0.0960  0.1224 -0.0919
 9774W        W25848   6.496  17.039  15.294 -0.1173 -0.2487 -0.0017
 9775W        W25849   0.720   6.478   4.065 -0.1542 -0.0508 -0.1187
 9776W        W25850   8.956   1.249   2.728  0.0446 -0.0475 -0.0296
 9777W        W25851  15.226   6.803  14.512 -0.0907  0.1844 -0.3176
 9778W        W25852   4.770   2.337  15.566 -0.2814 -0.2042 -0.4648
 9779W        W25853  11.748   9.228   3.350 -0.0502 -0.4164  0.0335
 9780W        W25854   3.836  13.050   0.398 -0.1270 -0.0275 -0.2932
 9781W        W25855   0.365   3.983  12.600 -0.3321  0.0663  0.0204
 9782W        W25856  12.875   8.062   5.276 -0.0546 -0.0214  0.1594
 9783W        W25857  11.720   2.895  12.418 -0.0812 -0.1045  0.0406
 9784W        W25858  15.597   1.635   4.993 -0.3950  0.0207 -0.1251
 9785W        W25859   9.935  11.978  14.790  0.0110 -0.2194 -0.2351
 9786W        W25860   8.770   5.778  14.942 -0.0078 -0.1128 -0.5237
 9787W        W25861   8.221  11.557   2.069  0.2322 -0.1712  0.0415
 9788W        W25862  14.347  11.056   0.541  0.4524  0.1020  0.1752
 9789W        W25863   1.961  16.583   4.722 -0.0728  0.1121  0.3125
 9790W        W25864  13.508  11.273  14.803 -0.2351 -0.4860  0.1451
 9791W        W25865  16.101  12.826   2.752  0.1187  0.1318 -0.4340
 9792W        W25866  10.777   9.139   0.155  0.0635 -0.3339 -0.0730
 9793W        W25867   1.254  14.971   4.725 -0.0596 -0.1723 -0.0813
 9794W        W25868   5.379  15.743  14.919  0.1185  0.4365  0.0887
 9795W        W25869  12.927   5.705   1.087 -0.2630  0.0870  0.2178
 9796W        W25870  10.448  13.485   2.259 -0.1630  0.0825  0.2318
 9797W        W25871   5.474   7.476   2.571 -0.1621  0.3200  0.5468
 9798W        W25872   5.933  16.453   0.581 -0.1574 -0.1137  0.3736
 9799W        W25873   6.936  12.684   4.146  0.2464 -0.3122  0.1505
 9800W        W25874   1.286   3.594   3.836 -0.0049  0.3534  0.0688
 9801W        W25875  15.766   3.600  15.390  0.2728  0.1024 -0.1586
 9802W        W25876   5.629   9.251  15.808  0.0837  0.0228 -0.1123
 9803W        W25877  13.267   3.484  13.317  0.1151  0.2714  0.0774
 9804W        W25878   5.596   2.782  15.970 -0.0543 -0.0887  0.0622
 9805W        W25879   2.043   8.158   1.957  0.0907  0.2036 -0.0411
 9806W        W25880   2.449  13.781   1.157  0.2234  0.0828 -0.0735
 9807W        W25881   0.908  17.636   2.297 -0.2435  0.0614  0.0754
 9808W        W25882  10.760   1.181  16.365  0.0472 -0.2716  0.4144
 9809W        W25883   2.562  16.769   0.323 -0.1140  0.3861 -0.0604
 9810W        W25884  16.635   0.411  10.488  0.3866 -0.4302 -0.3776
 9811W        W25885  17.553  15.255  15.857 -0.0243 -0.1557  0.1002
 9812W        W25886  14.041  17.909   3.531 -0.1714  0.2763  0.1488
 9813W        W25887   2.609   5.760   4.348 -0.2311  0.0100  0.1989
 9814W        W25888   4.522   5.326   0.887  0.2724  0.3213  0.3823
 9815W        W25889  14.011   8.307   3.098 -0.1052  0.3374 -0.3446
 9816W        W25890   1.946  14.074   1.182 -0.2145 -0.1546  0.1093
 9817W        W25891  13.149  11.083  15.341 -0.1072  0.4045 -0.0073
 9818W        W25892  10.657   7.128   5.870  0.3715  0.0160  0.1324
 9819W        W25893   4.898   1.285   4.633  0.4181 -0.0299  0.3614
 9820W        W25894   7.653   6.912   4.469 -0.1976 -0.0815  0.0143
 9821W        W25895   2.396  15.373  12.250 -0.2334 -0.0952  0.2623
 9822W        W25896  13.805   9.178  15.223  0.0251 -0.0584  0.1445
 9823W        W25897   1.583  14.376  15.099  0.1303  0.0435  0.0531
 9824W        W25898   5.171  12.889  11.041 -0.1067 -0.1407 -0.2876
 9825W        W25899   2.676   0.964  12.631 -0.0305  0.2993 -0.2933
 9826W        W25900   4.644  13.014  11.186 -0.0298  0.2112 -0.0938
 9827W        W25901  16.724  16.575  13.492  0.1695 -0.0696 -0.2423
 9828W        W25902   8.673   0.808  12.058 -0.0914 -0.3787 -0.1021
 9829W        W25903   7.214   7.737  14.591  0.3665  0.2342  0.1502
 9830W        W25904  13.317  13.893  14.273 -0.1227 -0.0408  0.1812
 9831W        W25905   5.585  16.778   0.430  0.1219  0.0187  0.2305
 9832W        W25906   4.903   7.005  13.779 -0.2013  0.0650  0.1483
 9833W        W25907   2.131   7.386   0.485  0.1956 -0.0471 -0.1773
 9834W        W25908   5.032   4.347  13.295  0.3486 -0.4455  0.1034
 9835W        W25909  16.506   5.909  13.797 -0.2716  0.0955  0.2162
 9836W        W25910   2.148  17.862  16.373 -0.1877  0.0321  0.0361
 9837W        W25911   9.757   5.305   2.139  0.2012  0.2220  0.1445
 9838W        W25912  12.086   0.237   3.805  0.0913 -0.0541 -0.3907
 9839W        W25913  11.297   0.160  12.333  0.1743  0.0248  0.1558
 9840W        W25914   8.346   7.455  14.335 -0.1823  0.0938  0.0258
 9841W        W25915   4.851   9.515  15.842 -0.1974  0.4123 -0.1117
 9842W        W25916  13.904  15.499  15.207 -0.0011  0.1110  0.0432
 9843W        W25917   9.306   6.796  12.622  0.0524  0.0180 -0.1704
 9844W        W25918  17.412   6.528   1.385 -0.2189 -0.0566 -0.0217
 9845W        W25919  12.613  15.105   1.324 -0.2391 -0.0801 -0.4049
 9846W        W25920  14.784   3.510   4.640 -0.3393  0.1485  0.1780
 9847W        W25921   2.774  14.613   3.407  0.3772  0.1455  0.2008
 9848W        W25922   6.719   0.040   1.561 -0.4080 -0.1025  0.0072
 9849W        W25923   2.770   1.977  12.557  0.2192  0.2520  0.1009
 9850W        W25924  10.326   7.334   4.603  0.0312 -0.1527  0.0658
 9851W        W25925   2.515   1.665   1.846  0.0666 -0.1761 -0.0722
 9852W        W25926  14.965  14.953  11.684  0.1922  0.2704 -0.0609
 9853W        W25927  15.877  15.073   5.581 -0.3557 -0.0939  0.2675
 9854W        W25928  15.852  14.040  12.086 -0.4402  0.0714  0.0149
 9855W        W25929  15.257   4.656  10.593 -0.0029  0.2228  0.0188
 9856W        W25930   0.615  12.920  13.229 -0.0437  0.1017  0.0983
 9857W        W25931   2.292  11.607   4.812 -0.3695 -0.3562  0.0271
 9858W        W25932   6.832   0.173   3.685 -0.0138 -0.4210  0.1295
 9859W        W25933   0.176  13.547   1.872 -0.1824 -0.0084  0.0835
 9860W        W25934  11.218   6.875  14.122  0.2429  0.1346 -0.1368
 9861W        W25935   3.996  13.151  15.459  0.0473 -0.3007  0.4751
 9862W        W25936   1.164   6.715   5.150 -0.0455  0.2197 -0.1272
 9863W        W25937   6.634  16.312  12.044  0.1395 -0.1090 -0.0004
 9864W        W25938  10.529   1.190  14.961  0.1400 -0.1087  0.2327
 9865W        W25939  16.990   3.443  15.250 -0.1385  0.0029  0.2053
 9866W        W25940   0.444   1.141   5.017 -0.0947 -0.0579  0.3156
 9867W        W25941   9.504  16.158  15.060  0.0382 -0.0511  0.0486
 9868W        W25942   2.376  14.349   3.272 -0.3747  0.1332 -0.0233
 9869W        W25943   0.471   1.226  11.280 -0.2835 -0.2126  0.3313
 9870W        W25944  16.898   5.949   4.395  0.2370  0.0970 -0.2054
 9871W        W25945   1.564   0.761   4.160  0.0946  0.1472 -0.0771
 9872W        W25946  10.526   3.856   5.518  0.0764  0.1025  0.1950
 9873W        W25947  15.178  17.948   4.447  0.3415  0.1898  0.2567
 9874W        W25948   9.761   0.354   1.463  0.1257  0.0470  0.1575
 9875W        W25949  13.460   1.292  14.271  0.1498 -0.2315  0.0002
 9876W        W25950  15.156   7.783   0.889 -0.0551 -0.2051  0.0011
 9877W        W25951  12.957  10.789   1.854 -0.1391  0.0965 -0.1300
 9878W        W25952  17.249   1.344   1.529 -0.0592  0.1381  0.1678
 9879W        W25953   7.497   1.922   5.104 -0.0802  0.1154  0.2434
 9880W        W25954   8.600   8.059   4.586  0.0658 -0.1578 -0.0049
 9881W        W25955   3.259  18.208   3.876 -0.1949  0.2850  0.0715
 9882W        W25956  16.896   0.669   1.931 -0.1864 -0.0764 -0.0031
 9883W        W25957   5.334   0.247   1.241  0.1524 -0.0471  0.0757
 9884W        W25958  11.548  13.900   1.532  0.0042 -0.3130  0.0473
 9885W        W25959  18.227  16.928  12.593  0.1169 -0.1295  0.3240
 9886W        W25960  12.562   6.875   4.248  0.0376 -0.1260  0.0431
 9887W        W25961  14.499  17.519  12.718 -0.2064  0.2403 -0.1456
 9888W        W25962   5.957  16.029  14.321 -0.2401 -0.1422  0.1920
 9889W        W25963  11.116  12.386   0.731  0.0647  0.0143  0.1085
 9890W        W25964   8.221   1.110  11.655 -0.1874  0.4012 -0.0310
 9891W        W25965   9.513   2.777  11.757 -0.1358  0.0795 -0.2923
 9892W        W25966   6.286  13.552   5.278  0.0455 -0.0898 -0.0578
 9893W        W25967   7.067   1.013   1.339  0.1061  0.0949 -0.1211
 9894W        W25968   7.435   5.630  11.724 -0.3729 -0.1566 -0.0421
 9895W        W25969   1.273  16.321  15.672 -0.0474 -0.3002 -0.3210
 9896W        W25970  13.836  14.847  13.100 -0.0728 -0.3205 -0.3159
 9897W        W25971   0.849   7.668  13.895 -0.3279 -0.0932  0.1127
 9898W        W25972   6.390  14.451   3.291 -0.3295  0.1099  0.2731
 9899W        W25973  17.793   7.595   0.306  0.1448  0.1789 -0.1866
 9900W        W25974   4.245   5.201  13.843 -0.0834 -0.0558  0.1055
 9901W        W25975   0.893  17.101   5.348 -0.0420  0.0252  0.0407
 9902W        W25976   0.619   4.660  16.019 -0.2741  0.2296 -0.1299
 9903W        W25977   3.970   5.197  13.076  0.3160 -0.1292  0.1099
 9904W        W25978  17.316  16.891  15.287 -0.2120 -0.1582  0.2828
 9905W        W25979   8.134   7.601  15.591 -0.3067  0.0326  0.1373
 9906W        W25980  13.686   5.915   0.132 -0.4050  0.1247  0.3728
 9907W        W25981  18.203   9.211  13.121 -0.3651 -0.3460  0.0491
 9908W        W25982  18.098   2.627   4.013  0.2256  0.2687 -0.0479
 9909W        W25983  10.208   5.334  11.955  0.1603  0.0085  0.0638
 9910W        W25984   3.733   1.939   0.558 -0.2560  0.0881  0.0353
 9911W        W25985  12.660  16.406   5.714  0.0196 -0.2078 -0.1919
 9912W        W25986   4.330  16.571   2.191  0.1237 -0.0790 -0.2925
 9913W        W25987  14.096   3.376  12.642 -0.2284 -0.2954  0.3765
 9914W        W25988   2.030   8.225  16.166  0.1671 -0.1134  0.0026
 9915W        W25989  11.824  13.537   1.824  0.0267 -0.0992  0.1634
 9916W        W25990   2.243   8.766  14.495 -0.1109  0.0259  0.1010
 9917W        W25991   7.850  13.599   0.565  0.0861  0.0935  0.1122
 9918W        W25992  17.708  14.217  15.524  0.0708  0.0829 -0.2472
 9919W        W25993   5.059   7.843   4.868  0.1936 -0.1010 -0.1000
 9920W        W25994  15.541   2.979   4.558  0.1372 -0.0979 -0.2407
 9921W        W25995   8.692  17.443   1.740  0.1847 -0.1233  0.0250
 9922W        W25996   4.295   3.663   0.447  0.0643  0.0332  0.1228
 9923W        W25997   7.953   9.839   0.594 -0.0859  0.1488  0.0580
 9924W        W25998  14.576   6.340   4.478 -0.1776  0.2478  0.0473
 9925W        W25999   1.496  13.895   0.809 -0.1237  0.0382 -0.1629
 9926W        W26000   3.938  13.832   1.779  0.0837  0.0913 -0.0153
 9927W        W26001   5.064  12.292   4.707 -0.0537 -0.2265 -0.0159
 9928W        W26002  13.806   6.668   0.803  0.1651 -0.1631 -0.2024
 9929W        W26003   1.280  13.940  15.803  0.2788  0.2030 -0.2288
 9930W        W26004   1.276  16.737   3.533  0.0620  0.1319  0.1058
 9931W        W26005   2.748   7.925  13.208  0.2661 -0.1124 -0.1957
 9932W        W26006  10.436  16.799  14.022 -0.2131  0.2224  0.0587
 9933W        W26007  14.706  15.683  14.101 -0.0269  0.1121 -0.1870
 9934W        W26008  11.212   8.675   2.733 -0.2620  0.1619 -0.0269
 9935W        W26009  12.652   1.977   1.667  0.0742  0.3556  0.3072
 9936W        W26010   4.342  10.044   2.859  0.4199 -0.3531 -0.1010
 9937W        W26011  16.789  11.905  15.139 -0.0552  0.0095  0.2894
 9938W        W26012  16.340   8.994   3.553  0.0681 -0.2461  0.1887
 9939W        W26013   6.726  14.199  15.789 -0.0458  0.1557 -0.2445
 9940W        W26014  16.378   6.011   4.724 -0.0210 -0.0340 -0.0325
 9941W        W26015   8.810  11.304  14.490 -0.4260  0.3534 -0.0862
 9942W        W26016   2.190   8.871  15.400  0.0499  0.1165  0.1322
 9943W        W26017   0.632  11.635  14.674 -0.1353  0.1253  0.0123
 9944W        W26018   1.632  17.144   2.410 -0.2215 -0.0853 -0.1478
 9945W        W26019   3.194  16.572  14.084  0.0339  0.1289 -0.1954
 9946W        W26020   1.203   1.326   2.140  0.2327 -0.0652  0.0447
 9947W        W26021   3.721  12.601  11.360  0.0322  0.0428 -0.3553
 9948W        W26022   7.979   6.003  12.723  0.0899 -0.1560  0.1710
 9949W        W26023   5.008  10.540   0.712  0.1371  0.1162 -0.2183
 9950W        W26024   6.435  18.042   1.167 -0.1199 -0.0383 -0.0480
 9951W        W26025  17.892  12.240   1.968  0.1595  0.2193 -0.1732
 9952W        W26026   4.979   3.739  13.381  0.0172 -0.1756  0.0003
 9953W        W26027  11.624  18.006   2.920  0.0611  0.0773 -0.0013
 9954W        W26028   5.474  16.992   3.219 -0.0369  0.0552  0.2742
 9955W        W26029   8.391   4.917   5.539  0.2261  0.0749  0.0992
 9956W        W26030   1.553  15.873  13.738 -0.0234 -0.1261  0.1067
 9957W        W26031  15.370   5.035  13.070  0.0394  0.2551 -0.0896
 9958W        W26032  12.767   9.122   4.963  0.0023  0.1361  0.2935
 9959W        W26033  11.911  11.854  11.464 -0.0060 -0.0001 -0.1401
 9960W        W26034   8.105  15.687  14.656 -0.1182 -0.1208  0.0592
 9961W        W26035   7.894   5.216   5.365 -0.0624  0.1714 -0.0959
 9962W        W26036   7.500  14.176  15.092 -0.1076 -0.2854 -0.1495
 9963W        W26037   2.475  17.574  13.502 -0.0549 -0.1743  0.2519
 9964W        W26038   6.772   9.019   1.911 -0.2966  0.0758  0.1528
 9965W        W26039   8.948   8.573  14.339  0.1006  0.0727 -0.3202
 9966W        W26040   2.411   0.002   4.161 -0.0474  0.1326 -0.1602
 9967W        W26041  11.246  11.672  15.188  0.0888  0.1876  0.0553
 9968W        W26042  10.518   0.204  11.299 -0.1486  0.0573  0.1774
 9969W        W26043   2.870  12.591  15.194  0.0267 -0.2519 -0.2759
 9970W        W26044   2.421  14.337  10.084 -0.0281  0.3207  0.3583
 9971W        W26045   4.043  15.548   2.829 -0.0173  0.0448  0.1764
 9972W        W26046   5.343   3.725  12.557  0.0431  0.0150  0.1955
 9973W        W26047   4.341   1.919  13.724  0.0697  0.2993  0.3188
 9974W        W26048   1.282   2.657  14.048  0.0741  0.0217  0.0522
 9975W        W26049  10.146   9.493  11.536  0.0546  0.1874 -0.4516
 9976W        W26050  14.881  14.905   3.377  0.2484 -0.0033 -0.1393
 9977W        W26051   1.286   2.019   3.850  0.2356 -0.2029  0.2795
 9978W        W26052   4.318  10.273   3.338  0.1573  0.0556 -0.3531
 9979W        W26053   9.929   2.177   1.609  0.2004  0.0788  0.0374
 9980W        W26054  17.369   2.231   0.817  0.3110 -0.1068 -0.1780
 9981W        W26055   5.326   3.289   2.359  0.0070  0.0488  0.0629
 9982W        W26056   9.365  10.153  11.445 -0.1234  0.1407 -0.2504
 9983W        W26057   0.093   4.174   0.606  0.2105 -0.3307 -0.6931
 9984W        W26058  12.865   5.480   5.531 -0.0498  0.0314 -0.1826
 9985W        W26059   4.032  12.070   6.043  0.0904 -0.0845 -0.0299
 9986W        W26060  12.931   0.627  14.192  0.4971  0.0318 -0.0167
 9987W        W26061  13.156  18.151  14.317 -0.0062 -0.0697 -0.1963
 9988W        W26062  14.905  17.186   4.732 -0.2672 -0.0068 -0.1288
 9989W        W26063  12.921  10.688  10.110 -0.2917 -0.1950  0.0586
 9990W        W26064  12.297   1.169  14.128 -0.1639  0.0214 -0.1238
 9991W        W26065  12.941  13.816  11.650  0.1091 -0.1585  0.0355
 9992W        W26066  14.397  11.774  12.507 -0.0256  0.1464 -0.0841
 9993W        W26067  15.223  16.583   3.994 -0.3502 -0.1673 -0.0137
 9994W        W26068   5.549   6.116  11.502  0.1801 -0.2214 -0.2197
 9995W        W26069   2.557   4.070  15.328  0.0346 -0.2135  0.3400
 9996W        W26070  17.784  16.612  15.106  0.0459 -0.2503 -0.0494
 9997W        W26071   2.778  16.844  14.241  0.0634 -0.0823  0.0275
 9998W        W26072   8.229  14.823  12.163 -0.0911  0.0083 -0.0819
 9999W        W26073   4.904   9.889   2.501  0.0451  0.0075  0.3776
10000W        W26074  11.334   5.838  12.154 -0.0111  0.0607 -0.0288
10001W        W26075   0.603  14.818   5.467  0.1835  0.2444 -0.3500
10002W        W26076   5.900  15.898   2.188 -0.1885 -0.2180 -0.0012
10003W        W26077   5.651  12.965  16.223  0.1372 -0.1957  0.4000
10004W        W26078   7.057  12.129  11.545  0.0822 -0.2449  0.4194
10005W        W26079  15.733   3.015   1.391  0.0615  0.0702  0.1704
10006W        W26080  10.319  14.374  12.323 -0.1020  0.0562 -0.1494
10007W        W26081   0.602   7.351  14.294 -0.3274  0.0826  0.4386
10008W        W26082   3.328   1.247   4.061 -0.1626  0.4235  0.0626
10009W        W26083   0.190  12.905  15.136 -0.0642 -0.0534  0.3377
10010W        W26084  14.363   2.761   4.053  0.3988 -0.0316 -0.0128
10011W        W26085   1.278   9.462  14.611  0.3440 -0.3354 -0.0628
10012W        W26086   4.186   6.742  13.640 -0.2811 -0.2344 -0.0102
10013W        W26087   3.785   0.771  13.939 -0.2635 -0.2080 -0.4848
10014W        W26088   5.651   8.302  11.440  0.1416 -0.1757 -0.2121
10015W        W26089  10.576  11.656   0.009  0.0620 -0.0313 -0.3686
10016W        W26090   2.079   0.526  11.592  0.1854 -0.2014  0.1307
10017W        W26091   1.237   2.351  12.584  0.0227 -0.0591  0.2234
10018W        W26092  14.786  14.150  11.950 -0.0368 -0.0651 -0.2237
10019W        W26093   7.552  13.724  13.181 -0.0269  0.0479 -0.0468
10020W        W26094   5.727  17.531  15.687  0.1548 -0.0982 -0.0575
10021W        W26095  16.290  13.375  13.413  0.2010  0.2706 -0.2266
10022W        W26096  16.641   9.682  16.330  0.2239 -0.1862 -0.2351
10023W        W26097   1.367  10.639  16.300  0.0335 -0.1562 -0.0109
10024W        W26098   5.997  10.043   2.817  0.1637 -0.1079  0.3978
10025W        W26099  11.296   8.295  15.213  0.0834 -0.2690 -0.0154
10026W        W26100   0.099  12.295   4.067  0.0821 -0.0607  0.1146
10027W        W26101   0.800   6.116  11.257  0.2599  0.3226  0.1339
10028W        W26102   9.348   3.638  12.682  0.2869  0.0416  0.1084
10029W        W26103   1.385   6.094  13.005  0.2879  0.2173 -0.0737
10030W        W26104   3.224   0.381   4.116 -0.1302  0.1787 -0.0832
10031W        W26105   6.580   4.421  11.610 -0.1542 -0.4005 -0.0358
10032W        W26106   3.565   9.192  15.252 -0.1309  0.2139 -0.0524
10033W        W26107   9.472   3.091  12.638 -0.1276  0.0733 -0.0930
10034W        W26108  15.276  13.260  13.244  0.0922 -0.1454  0.2924
10035W        W26109  16.908  14.477   0.018  0.0166  0.1107  0.2793
10036W        W26110   4.627  14.383   3.802 -0.1150 -0.0417 -0.1186
10037W        W26111  12.116  10.432   2.556 -0.1994  0.0796  0.0569
10038W        W26112   5.028   5.178   5.549 -0.1005  0.4315 -0.2817
10039W        W26113  15.436   6.746  13.710 -0.1476 -0.2418  0.0079
10040W        W26114  15.258  16.022  15.566 -0.0277 -0.1308 -0.1029
10041W        W26115  14.248  12.644  16.170  0.1874  0.0185 -0.0366
10042W        W26116  13.447  15.506  14.917  0.3127 -0.1490 -0.1189
10043W        W26117   0.835  12.511  14.170  0.0473 -0.1084 -0.0119
10044W        W26118  17.880   3.765  14.309 -0.0360 -0.1720 -0.0953
10045W        W26119   2.579   2.440   0.141  0.0042  0.0883  0.3304
10046W        W26120   8.933   4.127   4.509 -0.2150  0.0077 -0.0249
10047W        W26121   9.696  13.353   6.349 -0.1636 -0.3556 -0.0339
10048W        W26122   6.262   3.960  14.764  0.0004  0.0262 -0.3034
10049W        W26123   7.158   5.460   0.928  0.4455  0.2129 -0.3096
10050W        W26124   3.729   5.268   4.946  0.0036 -0.2304  0.1060
10051W        W26125   1.674   3.472   2.069 -0.3707  0.0537 -0.1669
10052W        W26126   0.728  11.697   0.757  0.1827  0.1353  0.0716
10053W        W26127   8.935   2.560  12.372 -0.0541 -0.4481  0.0491
10054W        W26128   8.968  13.055   5.766 -0.3381  0.0930  0.2488
10055W        W26129   4.147   1.497   2.961  0.1976  0.1053 -0.2063
10056W        W26130  17.070  13.869  11.240 -0.2466  0.0222 -0.0204
10057W        W26131   8.408   4.820   4.371  0.0729 -0.0701 -0.0174
10058W        W26132   7.536   0.982  13.837 -0.3317 -0.0859  0.0939
10059W        W26133  18.124  17.551   2.710  0.2723 -0.2324  0.1089
10060W        W26134   7.270  10.732  11.563 -0.1225  0.3553  0.1251
10061W        W26135  13.718   1.139   1.679 -0.0871  0.4473  0.0556
10062W        W26136   1.159  13.930   2.591  0.2546  0.2282  0.0346
10063W        W26137   6.664   3.247  15.610  0.1527  0.0379 -0.0543
10064W        W26138  10.115  16.062  15.575 -0.1706  0.0688  0.2487
10065W        W26139   5.562   4.021  11.564  0.0510  0.1191 -0.0899
10066W        W26140   4.836  11.028   5.455 -0.0029  0.7426  0.3501
10067W        W26141   8.345   9.366  11.854  0.0208 -0.0274  0.3985
10068W        W26142  10.468  16.312   3.305  0.1397  0.2547  0.0804
10069W        W26143  17.512   9.904  11.177  0.1639  0.0371  0.1451
10070W        W26144   0.670  17.034  11.199  0.1600  0.1613 -0.0725
10071W        W26145   4.226   7.183   3.415 -0.2284 -0.1239  0.0306
10072W        W26146  15.317   3.274  14.645  0.1768 -0.1123  0.1821
10073W        W26147   7.784  12.668   3.766  0.1295 -0.0669 -0.0013
10074W        W26148   1.577   3.786  14.578 -0.0151 -0.0474  0.2042
10075W        W26149  17.655   0.547  10.687  0.3157  0.0755  0.2472
10076W        W26150  13.554   9.924  16.057 -0.3264 -0.3428 -0.1336
10077W        W26151  16.912  15.102   2.375  0.2150  0.1833  0.1737
10078W        W26152   4.103   0.982  13.607  0.1190 -0.1041 -0.0975
10079W        W26153  10.701  14.039   3.116 -0.0558 -0.3158  0.3129
10080W        W26154   8.667  17.102   4.474  0.0841 -0.0603 -0.0878
10081W        W26155   9.818   1.164  12.134 -0.0969 -0.1926 -0.0852
10082W        W26156  17.395  15.251   3.808  0.0904  0.2881  0.0726
10083W        W26157  11.508   0.527   5.168 -0.1549 -0.1033 -0.2993
10084W        W26158  15.191   3.198   2.964 -0.1039  0.0956  0.0911
10085W        W26159  11.350   7.416   2.367 -0.0215 -0.0515  0.1963
10086W        W26160   9.744  15.302   5.456  0.3987 -0.1634 -0.4167
10087W        W26161   2.716  12.643   0.158 -0.2121 -0.5669 -0.0692
10088W        W26162  16.099  17.793   4.654  0.3180 -0.1170  0.2492
10089W        W26163  13.103   5.909  12.539 -0.1499 -0.0142  0.0323
10090W        W26164  15.639   2.533  14.150  0.0324 -0.0164 -0.0700
10091W        W26165  16.901   9.631  11.384  0.1580  0.0300  0.2255
10092W        W26166   6.241  15.838   1.799  0.0733 -0.1011  0.1243
10093W        W26167   8.738   4.978   2.427 -0.0261 -0.1136 -0.2058
10094W        W26168  16.419   5.410  15.866 -0.1253 -0.0271 -0.1196
10095W        W26169  18.063  15.456  14.138  0.0724  0.1733 -0.0294
10096W        W26170   9.033   0.043  12.104  0.1727  0.0699  0.2359
10097W        W26171   0.405  11.284  14.113 -0.1839 -0.1985 -0.1511
10098W        W26172   0.182  16.323  12.815 -0.1432 -0.0661 -0.0169
10099W        W26173   2.905  13.450   4.783 -0.2259 -0.1882  0.0348
10100W        W26174   7.600   3.428   4.603 -0.1718  0.0371 -0.0026
10101W        W26175  11.687   5.723  14.609 -0.2334  0.0656  0.2502
10102W        W26176  17.060  15.869  13.001 -0.2388 -0.0048 -0.1934
10103W        W26177   2.015  10.661  15.264 -0.1194  0.2221 -0.2380
10104W        W26178   8.204   0.809  15.994 -0.0402 -0.1895  0.0744
10105W        W26179   6.699   2.530   0.063 -0.3109 -0.0855  0.2837
10106W        W26180   8.405   5.293   4.601 -0.0901  0.1379 -0.0780
10107W        W26181   7.627   0.562   2.058 -0.0724  0.0370  0.2122
10108W        W26182  15.094  13.792   3.805  0.0749  0.2710  0.0416
10109W        W26183  16.168   9.371   1.341  0.1294  0.0354  0.2025
10110W        W26184  13.789  17.835   4.013 -0.3724  0.0803  0.4281
10111W        W26185   2.844   6.020   5.092 -0.0632  0.0098 -0.1795
10112W        W26186   1.339   9.644  15.523  0.0197  0.0365 -0.0947
10113W        W26187   5.876  12.307  12.469 -0.1138 -0.0950  0.0098
10114W        W26188  13.043  15.461   0.345 -0.0072 -0.1884  0.0453
10115W        W26189   6.794  18.173   2.760  0.2555 -0.0433 -0.2176
10116W        W26190   5.063   3.945   0.112 -0.0728 -0.1904  0.1855
10117W        W26191  11.780  10.575   4.541 -0.2476  0.0585 -0.0288
10118W        W26192  11.544   9.999  14.804  0.0493  0.3669  0.1212
10119W        W26193   4.929   7.060   0.858  0.1091  0.1404  0.2668
10120W        W26194  12.451   2.088   1.025 -0.0553 -0.4487  0.3084
10121W        W26195  14.908  13.442   4.092 -0.2512  0.1012  0.2790
10122W        W26196   5.883  15.337   0.015 -0.3145  0.1322 -0.0463
10123W        W26197   1.288   1.563   5.344  0.0107 -0.2258 -0.1920
10124W        W26198  12.396   3.281   3.182 -0.1363 -0.2887  0.3492
10125W        W26199  11.353  14.022   4.405  0.1570  0.0831 -0.0259
10126W        W26200   1.360   7.079   4.559  0.0169  0.0730  0.1359
10127W        W26201  10.216   4.616  13.021  0.1212 -0.0893 -0.1236
10128W        W26202   1.611  13.447  14.898  0.4012 -0.1131 -0.1559
10129W        W26203  15.347   1.564  13.792  0.1378  0.0618 -0.1921
10130W        W26204   7.313   8.970  14.862 -0.1364 -0.0120 -0.0782
10131W        W26205  17.958  18.193   4.912 -0.2094 -0.0493  0.1411
10132W        W26206   2.676  15.655  15.760  0.4509  0.1533  0.0915
10133W        W26207   2.654   0.338  14.251  0.0825 -0.0674  0.0416
10134W        W26208  13.240   7.978   1.498 -0.0534  0.4010  0.2095
10135W        W26209   1.286  13.602   5.472 -0.1835  0.0253 -0.0551
10136W        W26210  16.612  11.731  15.635 -0.0232  0.1354  0.3264
10137W        W26211   0.035   7.558  11.323 -0.0366 -0.0535  0.0106
10138W        W26212  12.261   2.036   6.080  0.2633 -0.0785 -0.0249
10139W        W26213  12.757  15.518   5.525  0.1607  0.3495  0.1085
10140W        W26214   0.289   5.851   2.178  0.3773 -0.3440  0.1000
10141W        W26215   7.085  10.771  13.423 -0.0125  0.1807 -0.3108
10142W        W26216   5.155   9.673   2.034  0.0262 -0.1360  0.0863
10143W        W26217  13.771  15.657  12.315 -0.1059 -0.3547 -0.0709
10144W        W26218   4.969   4.606   2.076  0.0764 -0.1686 -0.0577
10145W        W26219  12.946  15.620  14.175  0.0316 -0.0547  0.0014
10146W        W26220  14.841   7.277   4.567  0.1689  0.0536 -0.2603
10147W        W26221  16.952   5.747  15.124 -0.0623 -0.1716 -0.2433
10148W        W26222   7.550  13.584   5.806 -0.2601 -0.2402  0.0358
10149W        W26223  16.652  17.059  13.236  0.4591  0.1926  0.2496
10150W        W26224   4.447   9.504   3.034 -0.1573 -0.1478  0.2326
10151W        W26225   6.825   6.356  11.390  0.1238 -0.3357  0.1270
10152W        W26226   9.762  17.925   2.458  0.1196  0.1763  0.3498
10153W        W26227   1.965  13.195   0.803 -0.0942  0.0506 -0.3356
10154W        W26228   7.197   7.100   4.319  0.1644  0.2346  0.1956
10155W        W26229   0.058  18.170  14.671  0.0088 -0.1053 -0.0899
10156W        W26230  14.954   6.571   2.703 -0.0334  0.1217  0.1113
10157W        W26231   0.739  13.251   6.000  0.0493  0.1050  0.0400
10158W        W26232  16.639  14.281   3.249 -0.0181 -0.3519  0.0615
10159W        W26233   0.903   6.256   3.700  0.0695 -0.1907 -0.1095
10160W        W26234   5.341   1.253  15.627 -0.0456 -0.3895 -0.0567
10161W        W26235  11.123  10.160  11.972  0.0353  0.3404 -0.1876
10162W        W26236   4.021   6.028  13.384  0.0316  0.2095  0.0166
10163W        W26237   1.800  17.855   0.316  0.0505 -0.1184  0.3342
10164W        W26238  14.523   0.802   1.187  0.0029  0.1370 -0.2332
10165W        W26239   4.158  11.294   0.899 -0.0627 -0.1335 -0.1499
10166W        W26240   1.083  15.080   2.901  0.1051 -0.1513  0.4193
10167W        W26241   7.107   2.508   2.016  0.0082  0.1314  0.1346
10168W        W26242   2.060   6.769   2.249 -0.3342  0.1659  0.1211
10169W        W26243   3.623   3.398   0.916 -0.2029  0.0706  0.2682
10170W        W26244   3.815  11.402   4.642 -0.0104 -0.0595 -0.1354
10171W        W26245   8.338   8.808   4.871  0.1357  0.1512 -0.5439
10172W        W26246   3.805  12.760   1.254 -0.0077  0.2708  0.0025
10173W        W26247  17.060  15.088  16.052  0.2685 -0.1363 -0.1309
10174W        W26248  15.118   4.609  11.832  0.0098 -0.0028 -0.0424
10175W        W26249   9.082   2.441  13.223 -0.0714  0.1016  0.2302
10176W        W26250   5.706   4.745  13.460  0.1547  0.2193  0.0085
10177W        W26251  13.084   1.418   2.374  0.1144  0.0301 -0.0724
10178W        W26252   2.366   7.131   2.406 -0.1454  0.0364  0.1968
10179W        W26253   6.098   4.966   2.990  0.1723 -0.1460  0.1832
10180W        W26254   2.026   1.710   2.183  0.0596  0.1548 -0.2713
10181W        W26255  13.712  12.805  12.815  0.3311 -0.0477 -0.1082
10182W        W26256   1.971   8.816   2.543  0.2939 -0.1257 -0.2667
10183W        W26257  15.665  17.039   3.776 -0.1129  0.1620 -0.1525
10184W        W26258   6.318  10.568  15.492  0.0174 -0.0634 -0.0975
10185W        W26259   1.005  14.890   4.232 -0.0872  0.0347 -0.1907
10186W        W26260   4.320   7.872   2.009  0.1772  0.1713 -0.0687
10187W        W26261   4.015   9.447  15.074 -0.1646  0.1050 -0.0726
10188W        W26262   2.592   1.236   0.345  0.2922 -0.1152 -0.1681
10189W        W26263  16.904   2.128  14.359 -0.1803  0.0331 -0.0610
10190W        W26264  13.443  15.532  11.617 -0.0679 -0.0953 -0.0225
10191W        W26265   5.134  13.635  12.286  0.1273 -0.0670  0.0710
10192W        W26266   9.830   0.660   5.283 -0.2328  0.0504  0.0872
10193W        W26267  17.576   0.486   3.361  0.0267 -0.1709 -0.2282
10194W        W26268  15.923  13.818   1.516  0.2282 -0.0300  0.2193
10195W        W26269   3.307  17.754  11.887 -0.0678 -0.0432  0.0274
10196W        W26270  13.450   6.652  13.503  0.3710 -0.0927  0.5605
10197W        W26271  17.027   3.122  12.350 -0.2375  0.2338  0.0601
10198W        W26272   4.229  13.698   1.354  0.5301 -0.0445 -0.1477
10199W        W26273  10.817  12.290  12.239  0.2008 -0.1712 -0.1807
10200W        W26274  12.975   6.667   6.166 -0.0449 -0.0799 -0.1802
10201W        W26275  16.848   1.516  13.231 -0.0106 -0.2114  0.2354
10202W        W26276   3.291  11.179   0.385 -0.0214  0.1346 -0.1854
10203W        W26277   4.686  10.540  13.679  0.2275 -0.2084 -0.3023
10204W        W26278  12.392  17.047  13.372  0.2794  0.0867  0.2775
10205W        W26279  10.567   4.144  11.539 -0.1779  0.2459  0.0550
10206W        W26280  12.664   1.600   0.829  0.1655  0.2177 -0.1897
10207W        W26281   5.004  17.013  15.303 -0.2587  0.3139 -0.3316
10208W        W26282  16.603  10.487   4.015  0.2399  0.0227  0.0430
10209W        W26283   0.359  11.632  11.998 -0.0711  0.0717  0.0389
10210W        W26284  13.302   6.490   5.327  0.0213  0.0604  0.0117
10211W        W26285   0.860  15.587   4.661  0.3041  0.1780 -0.2282
10212W        W26286  11.907  15.209  14.165 -0.0233 -0.0677  0.0015
10213W        W26287   4.596   1.140  15.143 -0.0445  0.2433 -0.1261
10214W        W26288   9.803  13.273   0.270 -0.1705 -0.3592 -0.1080
10215W        W26289   0.465   5.045  15.424 -0.4228 -0.0652 -0.1638
10216W        W26290   3.866  17.348  14.489  0.0773 -0.2068  0.2828
10217W        W26291  17.472   1.504   4.273 -0.0141  0.0320 -0.3436
10218W        W26292   2.963  15.654   0.419 -0.1723 -0.1021 -0.2085
10219W        W26293  12.841   0.455   5.120  0.2388  0.1246 -0.3089
10220W        W26294   7.851   5.581   0.788 -0.0900 -0.0315 -0.5768
10221W        W26295  16.884   3.128  12.923  0.1800  0.0258 -0.1608
10222W        W26296  14.229   4.658   1.826  0.1923 -0.4282 -0.1424
10223W        W26297   9.090  15.914   4.832 -0.0686  0.2242  0.0938
10224W        W26298   2.948   5.563   3.920 -0.0088  0.4475 -0.0014
10225W        W26299  12.877   1.330   1.649  0.2248 -0.0700  0.0593
10226W        W26300   5.131  16.717   3.566  0.2085  0.1902 -0.3579
10227W        W26301   7.643  11.220  16.350  0.3792  0.3927  0.1523
10228W        W26302   4.662   8.996   4.954 -0.0202  0.0416 -0.0860
10229W        W26303   1.600  14.426   2.008 -0.0285 -0.3074  0.0854
10230W        W26304   3.954   0.053   6.048  0.0620 -0.1502 -0.2283
10231W        W26305  17.087   2.880   3.489  0.0093  0.1106  0.1371
10232W        W26306   7.257   4.646  16.479 -0.1184 -0.2871 -0.0108
10233W        W26307  11.030  13.826   2.745  0.0926  0.0272  0.1731
10234W        W26308   8.737  15.820  11.769  0.0365  0.1910  0.1806
10235W        W26309   4.288  18.013   4.953 -0.2479  0.0203  0.1386
10236W        W26310  10.575   3.614  13.779  0.1086  0.4523 -0.0374
10237W        W26311  14.018   0.021  15.160 -0.0914  0.3928 -0.1041
10238W        W26312   3.210  17.420  10.311 -0.2627 -0.0090 -0.1789
10239W        W26313  13.758   5.835   4.626  0.1033  0.2995  0.1504
10240W        W26314  13.977  15.143  12.523  0.1410 -0.0829 -0.0893
10241W        W26315  13.427  11.588   0.052 -0.0115  0.1342 -0.0669
10242W        W26316  16.684   0.648   2.561 -0.0630  0.3677 -0.3698
10243W        W26317  15.302   4.525   3.543 -0.2599 -0.2895  0.0429
10244W        W26318  11.999   0.939  15.435 -0.2230  0.0002 -0.0084
10245W        W26319   8.765  16.021  11.324 -0.1152 -0.2950 -0.2341
10246W        W26320   9.964   0.648   0.954 -0.2452 -0.0494  0.0624
10247W        W26321  13.802   6.812   3.200  0.1829  0.0411 -0.0724
10248W        W26322   3.697   5.411  15.306 -0.1169  0.2427  0.1524
10249W        W26323   7.719   1.836   3.075  0.3691  0.1512 -0.2208
10250W        W26324  17.381  16.205  15.279 -0.0547 -0.0892  0.0515
10251W        W26325   9.984  10.076   5.637  0.0880 -0.5172 -0.0373
10252W        W26326   3.340  14.759   1.860  0.1028 -0.2501 -0.0241
10253W        W26327  15.185   1.899  12.209  0.4139 -0.0165  0.4784
10254W        W26328  13.112   9.042  15.549 -0.3016 -0.0190  0.0341
10255W        W26329  17.041   3.197   3.965 -0.1173  0.5027 -0.1566
10256W        W26330   1.841   0.231   3.514 -0.0056  0.1040  0.0723
10257W        W26331  14.808   6.722   2.199 -0.1795  0.0497  0.0312
10258W        W26332  14.072  17.408   6.214 -0.0717  0.2218  0.1106
10259W        W26333   9.654   8.363   4.514  0.2225  0.0121 -0.2337
10260W        W26334  11.129  10.959   2.276 -0.4238  0.2231  0.1685
10261W        W26335  15.348  13.852   4.523  0.0078 -0.0559 -0.1456
10262W        W26336   4.624   5.398  15.124 -0.0714 -0.2268 -0.2941
10263W        W26337   3.744  10.907   1.155  0.0812 -0.0228 -0.1208
10264W        W26338   1.089   4.004   4.915 -0.1354  0.0750  0.0087
10265W        W26339   4.519   0.795  12.788  0.0825 -0.3439 -0.1257
10266W        W26340   7.883  16.613  15.395  0.0203  0.0996 -0.0965
10267W        W26341  12.156   5.629  16.228  0.0015 -0.0218  0.2554
10268W        W26342   3.624   7.373  13.557 -0.3156 -0.0064  0.2704
10269W        W26343  15.181   5.188  14.431  0.1937  0.2256  0.1149
10270W        W26344   1.190   8.583  10.970  0.3791  0.0212  0.1487
10271W        W26345   3.791  13.527  13.097 -0.1059 -0.0733 -0.0147
10272W        W26346  11.059  10.370   1.317  0.0413 -0.0102 -0.2884
10273W        W26347  13.126   8.748  14.745  0.1486 -0.2819  0.0035
10274W        W26348  16.523  13.423   4.874  0.0613 -0.3601  0.0323
10275W        W26349   1.678  16.902  15.119 -0.3329  0.1981 -0.0386
10276W        W26350   8.157  17.607   5.917  0.2578 -0.0612 -0.0303
10277W        W26351  10.006  16.791   3.903 -0.1230 -0.0552  0.0507
10278W        W26352   7.112   6.786  12.512 -0.3087  0.3281  0.2470
10279W        W26353   9.821  14.398  12.127 -0.0835 -0.0912  0.1052
10280W        W26354  12.344   6.554   3.954  0.1723  0.0303  0.2640
10281W        W26355  16.332  17.023   0.856 -0.0235 -0.1291  0.1520
10282W        W26356  12.961   7.863   2.839  0.1128  0.2294  0.0902
10283W        W26357   8.411   6.770   5.062  0.3998 -0.2002 -0.0187
10284W        W26358  13.349  11.272  12.746 -0.3082  0.0300  0.0772
10285W        W26359  13.961  18.050  15.861 -0.0378  0.0230 -0.2289
10286W        W26360   6.674  16.281   0.092 -0.1377 -0.4662 -0.0266
10287W        W26361   5.061   6.516  14.071 -0.0632  0.3881 -0.0836
10288W        W26362   0.743  15.959   0.764  0.0143 -0.0322 -0.1295
10289W        W26363  11.908  17.794   0.347 -0.2290  0.2405 -0.1595
10290W        W26364  18.246   5.810   3.698 -0.0443  0.0317 -0.3482
10291W        W26365  10.852   8.406   3.546  0.0364  0.0836  0.0602
10292W        W26366   8.318   7.757  12.002  0.0271 -0.0718 -0.1460
10293W        W26367  16.770   5.648   6.082  0.0841 -0.2053  0.4789
10294W        W26368  10.197   8.782   4.107  0.2819 -0.4040 -0.0993
10295W        W26369  14.609  13.040   3.854  0.0532  0.1044  0.1664
10296W        W26370   2.604  14.396  14.980 -0.1447  0.4040 -0.3384
10297W        W26371   8.532  11.042   1.451 -0.0162  0.0428 -0.0400
10298W        W26372  12.352   8.457  14.354 -0.2156 -0.2313 -0.1594
10299W        W26373  17.558   4.346  10.456 -0.3406 -0.0548  0.1226
10300W        W26374   7.053   0.787   6.025 -0.0902  0.2739 -0.0331
10301W        W26375   3.880  13.917  11.481  0.4022  0.1986 -0.0400
10302W        W26376  11.641  11.995   0.292  0.2123 -0.2387  0.0795
10303W        W26377   5.650  11.205  14.393 -0.3964 -0.0381 -0.2505
10304W        W26378  16.148  12.927  15.157  0.1964 -0.0600 -0.2327
10305W        W26379  15.510  14.914  15.502 -0.0164 -0.1341  0.1133
10306W        W26380   0.920  14.407   2.846  0.2253 -0.4922  0.0006
10307W        W26381   5.757   1.257   1.187 -0.0680 -0.4471  0.0245
10308W        W26382  10.098   0.521  11.422 -0.1248 -0.1624 -0.1366
10309W        W26383  17.700  10.033   0.938  0.0639  0.1415 -0.2394
10310W        W26384   4.604   7.060   3.733 -0.2751  0.1489 -0.0262
10311W        W26385  16.872  13.855   3.087  0.3318 -0.1727  0.2624
10312W        W26386   2.056   7.642  15.417  0.1201 -0.0212  0.0564
10313W        W26387   3.848   2.110   1.028  0.1408 -0.1722 -0.0510
10314W        W26388   0.054   5.662  13.653  0.0817  0.0564 -0.1974
10315W        W26389   4.445  14.876   3.824  0.5308 -0.0739  0.0083
10316W        W26390   3.102  16.136  13.790  0.2568  0.3540  0.0266
10317W        W26391  13.178   7.332  13.157  0.1081 -0.0820 -0.0028
10318W        W26392   9.119   8.535   1.465  0.3978 -0.4296  0.0283
10319W        W26393   9.965   2.208   5.826 -0.4759  0.1966  0.0074
10320W        W26394   1.236   6.038  16.288 -0.0537  0.1301 -0.0118
10321W        W26395   6.850  14.656  13.445  0.2716  0.1731  0.1211
10322W        W26396  15.381   5.194  11.949 -0.0149  0.1777  0.0528
10323W        W26397  16.265  11.848  14.472  0.2907  0.0906  0.1272
10324W        W26398  11.082  12.380   4.209  0.0198 -0.0997 -0.1820
10325W        W26399   1.410  12.850  13.663  0.2251  0.1745 -0.2264
10326W        W26400   3.396  10.087  12.807 -0.2575 -0.1534  0.0329
10327W        W26401   8.039   5.051   1.637  0.0047  0.2499  0.0261
10328W        W26402   2.558   7.340  10.871 -0.0682  0.1035 -0.0366
10329W        W26403   9.247  17.949  13.279  0.1432  0.2838 -0.0586
10330W        W26404  14.785   4.247   1.921 -0.3816  0.1020  0.0858
10331W        W26405   8.347  15.581   3.135  0.2875 -0.0784  0.1236
10332W        W26406   6.088   2.751  15.052  0.0011  0.0443 -0.0730
10333W        W26407   3.840  13.091   2.610 -0.0344 -0.1743  0.0190
10334W        W26408   2.847  11.010  13.922  0.0035 -0.0997 -0.0233
10335W        W26409   3.689  13.216   1.679 -0.0532  0.0827  0.0183
10336W        W26410  13.734   5.439  11.536 -0.0316 -0.3196 -0.0778
10337W        W26411   2.852   3.553   2.024 -0.1967  0.1019 -0.0997
10338W        W26412   2.654  17.110  12.600  0.0325 -0.2425 -0.3307
10339W        W26413  12.153   7.952  16.282  0.3772 -0.0375  0.3096
10340W        W26414  17.134  10.496  16.237 -0.0108 -0.0298  0.3558
10341W        W26415  16.737  11.605  14.686 -0.2263  0.1788 -0.1348
10342W        W26416   9.084   5.591   4.494  0.2376  0.1372  0.0049
10343W        W26417  14.941  14.647   3.830  0.1447  0.2560 -0.0207
10344W        W26418   9.828   1.447   2.761 -0.1121  0.2374 -0.1391
10345W        W26419  13.903  14.299  13.201  0.0949 -0.0603  0.1365
10346W        W26420   9.381   6.783   0.822  0.2456 -0.2434  0.1710
10347W        W26421   7.775  11.971   0.047 -0.2294  0.1792  0.4908
10348W        W26422   7.616   0.376   4.324  0.1001  0.2003  0.1283
10349W        W26423   0.109  11.287  15.473 -0.1906  0.1182 -0.2620
10350W        W26424   0.628  16.806   0.366  0.0285 -0.3484  0.0523
10351W        W26425  14.200   9.086  15.553  0.1606  0.1706  0.2475
10352W        W26426   6.626   3.409   3.405 -0.0564  0.3719 -0.2779
10353W        W26427  10.717  10.096  15.993 -0.1380  0.0239 -0.4137
10354W        W26428  10.218   2.348  15.308  0.1437 -0.0694  0.1355
10355W        W26429   5.747  16.390   2.178  0.0365 -0.0572  0.1520
10356W        W26430  12.688   7.292  13.141 -0.1683 -0.1008  0.2997
10357W        W26431   3.854  16.239   1.105  0.0636  0.0756 -0.3247
10358W        W26432   8.872  15.221  15.822 -0.0080 -0.1713  0.2650
10359W        W26433  14.655  14.590  15.240  0.2509  0.0662 -0.2403
10360W        W26434  15.950   2.566  15.850  0.3335 -0.2408 -0.0685
10361W        W26435  12.530   5.578  14.814  0.0082 -0.1521  0.0740
10362W        W26436  11.057  11.291  16.460  0.1003  0.0898 -0.0031
10363W        W26437  13.432   2.822   1.916  0.1041 -0.0335  0.2709
10364W        W26438  16.141   6.292  14.640 -0.0065 -0.0079  0.1801
10365W        W26439  13.765  12.529  16.147  0.1254 -0.1380 -0.4816
10366W        W26440  15.295  12.642  13.568 -0.1204  0.1561  0.1560
10367W        W26441   0.028  11.395   3.430 -0.0322  0.1592  0.0013
10368W        W26442  17.032  15.429  12.707  0.1263  0.3674  0.0628
10369W        W26443  15.365  10.877   5.517 -0.4324  0.0716  0.1481
10370W        W26444   6.861   3.435   4.617 -0.0174  0.0789 -0.1646
10371W        W26445   0.365   8.565   2.235  0.0113  0.1975  0.5352
10372W        W26446   3.237  10.058   3.856 -0.0260  0.1417 -0.0770
10373W        W26447   3.787   0.414  14.831 -0.0021  0.1487  0.2520
10374W        W26448  17.204  14.084  12.304  0.0820 -0.2049 -0.1118
10375W        W26449   5.955   5.051   5.448 -0.1981  0.0824  0.2327
10376W        W26450  17.930   9.744   1.263 -0.0494  0.1705  0.0481
10377W        W26451   7.882   3.135   2.037 -0.0091 -0.0862 -0.0548
10378W        W26452   3.937   3.726  15.303  0.1312 -0.0265  0.0446
10379W        W26453  17.182  13.230   0.086  0.2346  0.4562  0.3079
10380W        W26454  11.789   1.241  15.914  0.0103  0.0151  0.2168
10381W        W26455   4.682   2.424  12.471 -0.0883  0.0947 -0.0210
10382W        W26456  13.904   4.741  13.529 -0.1529  0.1235  0.1020
10383W        W26457   7.291   8.862  16.208 -0.1694 -0.3228 -0.6238
10384W        W26458   1.644  16.444   2.528  0.0541  0.2803  0.2485
10385W        W26459  12.864   3.768   0.130 -0.2506 -0.2691 -0.2842
10386W        W26460   8.531   1.641  14.159 -0.1617 -0.1465 -0.2898
10387W        W26461  12.025  15.264   4.695 -0.1285 -0.0337 -0.1444
10388W        W26462   0.585   8.664  12.042  0.0148 -0.0389 -0.0912
10389W        W26463   5.799   5.632   0.317  0.2663  0.2117  0.0733
10390W        W26464  15.487  14.966  12.318 -0.0809  0.2905  0.0497
10391W        W26465  14.364  11.234  12.526 -0.0135  0.4051 -0.0942
10392W        W26466  10.720  13.001  12.648 -0.2836 -0.0211  0.0159
10393W        W26467   4.861  13.775  13.164  0.3006 -0.1031  0.1866
10394W        W26468   3.837  15.852   6.062  0.2299  0.0027  0.5551
10395W        W26469  10.148   2.958   1.259  0.1079 -0.1144 -0.2627
10396W        W26470   1.734   6.286  16.089  0.0105 -0.0669 -0.0886
10397W        W26471  10.996   5.782  11.720  0.4551  0.1084  0.4049
10398W        W26472   3.729   3.856   3.168  0.1857 -0.2851  0.2790
10399W        W26473   1.575  11.753   4.750 -0.1257 -0.1208  0.1144
10400W        W26474   5.156   7.952   4.307 -0.0064  0.0563 -0.3721
10401W        W26475   3.542  17.227   3.529  0.0940  0.0725  0.2550
10402W        W26476   0.978  12.523   4.985  0.1644 -0.1865  0.0095
10403W        W26477  11.651  11.877  13.918  0.3602  0.1816 -0.0313
10404W        W26478   5.489  12.306  11.828  0.2308  0.0352  0.1435
10405W        W26479   0.774   6.299  13.599  0.0692 -0.0005 -0.1000
10406W        W26480  14.126   8.377   5.820  0.1941 -0.2571 -0.0685
10407W        W26481  16.256  15.962  14.245  0.0095 -0.1087 -0.0556
10408W        W26482  10.331  10.458   4.164  0.1707 -0.0013 -0.1285
10409W        W26483   8.881  15.910   1.034 -0.0930 -0.0410 -0.0957
10410W        W26484   0.864  10.582   0.992  0.3612  0.1778  0.1062
10411W        W26485  11.987   1.717   0.062 -0.1026  0.1866 -0.3733
10412W        W26486  13.726  13.705   2.883  0.0637  0.1748 -0.1967
10413W        W26487   3.317  10.157   1.743  0.0765  0.0777  0.0799
10414W        W26488  14.546   5.965   3.306  0.1887  0.2332 -0.3408
10415W        W26489   5.698  10.137  13.798 -0.0441  0.1183  0.3426
10416W        W26490   6.665   1.930  12.221 -0.2259  0.2882 -0.2187
10417W        W26491  17.202   1.943  13.946  0.1047  0.1592  0.2443
10418W        W26492  11.296  12.272  16.494  0.3052 -0.0636 -0.2724
10419W        W26493   8.493   3.619  14.265 -0.2424  0.0733  0.1514
10420W        W26494   5.674   4.626   2.921  0.2976  0.0291 -0.0322
10421W        W26495   6.208  11.921   5.196  0.0723 -0.2568  0.4537
10422W        W26496  14.893   0.101   4.609  0.1140  0.1964 -0.1619
10423W        W26497   4.375   4.993  13.374 -0.1836 -0.1291  0.3767
10424W        W26498   9.468   8.568   3.632  0.1974 -0.0592 -0.1580
10425W        W26499  11.732  10.439   0.032 -0.0356  0.2896  0.1311
10426W        W26500   9.513  16.438   2.407  0.1431 -0.2250  0.2388
10427W        W26501   4.167  10.686   3.101 -0.0382  0.1803 -0.0640
10428W        W26502  14.256   8.111   3.626 -0.2138 -0.1707  0.1738
10429W        W26503  16.540   2.936  16.195 -0.2092  0.1225 -0.1711
10430W        W26504  13.006  14.381  16.077 -0.1541  0.1383  0.0746
10431W        W26505   4.939  10.528   3.828 -0.1940 -0.0430 -0.4067
10432W        W26506   2.612   0.396   0.836 -0.1771 -0.0530 -0.0439
10433W        W26507  15.243   9.329  16.272 -0.2180 -0.2010  0.0880
10434W        W26508  10.099  13.314  14.523  0.2879  0.2370 -0.0991
10435W        W26509   8.058  15.879  14.122  0.0418  0.2332 -0.1037
10436W        W26510  10.781   2.856   3.841  0.2935 -0.0667  0.2446
10437W        W26511  13.470  14.053   1.239 -0.3230 -0.0540  0.4722
10438W        W26512   3.903  16.148  11.938  0.1195  0.1942  0.0312
10439W        W26513  10.486  15.522   6.278  0.1187  0.3035  0.2149
10440W        W26514   8.791   6.643   3.687  0.1813  0.1683 -0.1363
10441W        W26515   4.521   2.653   4.117  0.0412  0.2252 -0.1880
10442W        W26516   2.889  15.365   2.969 -0.0193 -0.1715 -0.0871
10443W        W26517  17.783  10.165   3.033  0.1398  0.0464  0.1951
10444W        W26518   6.937  13.393  16.051 -0.2179  0.2905 -0.0914
10445W        W26519   9.196   0.991  11.572  0.0551  0.1173  0.0089
10446W        W26520  17.339   4.529   6.004 -0.0164 -0.2771  0.3811
10447W        W26521  12.654  15.907   5.102 -0.3193 -0.0672  0.2922
10448W        W26522   0.337  10.121  14.575  0.0648 -0.2093  0.0257
10449W        W26523  12.260   7.640   1.301 -0.1437  0.2607  0.0908
10450W        W26524  13.202   5.527   3.857  0.0933 -0.3987  0.0728
10451W        W26525  15.679  14.243  13.173  0.0733 -0.2156  0.1492
10452W        W26526  13.105   5.557   4.458 -0.1051 -0.2516  0.1784
10453W        W26527  10.234   3.272  13.915 -0.1998  0.1070  0.3736
10454W        W26528  13.811  12.637   1.211 -0.0059 -0.1833 -0.1982
10455W        W26529   1.694   6.626  12.103  0.1356  0.0334  0.1186
10456W        W26530  17.002  10.087  10.597 -0.0029  0.1497 -0.1524
10457W        W26531   5.549  16.251  13.597 -0.0532  0.1350  0.0112
10458W        W26532   1.170   6.553  12.732  0.1817 -0.1469  0.1888
10459W        W26533   2.763   8.004  12.682 -0.4015  0.2167 -0.2792
10460W        W26534   7.774   0.364  15.453 -0.0085 -0.0295  0.0550
10461W        W26535  14.011   0.568  12.619 -0.0843 -0.0947  0.0990
10462W        W26536   0.855  12.872   4.562  0.2135  0.2109 -0.2396
10463W        W26537  10.596  13.285   5.243  0.2153  0.1199 -0.0833
10464W        W26538  12.570   3.993  14.340  0.0274 -0.1893  0.0318
10465W        W26539   4.325  14.636   1.660 -0.2295  0.0782  0.1103
10466W        W26540  13.793   5.026   4.379 -0.0509  0.1262 -0.0927
10467W        W26541   6.068   4.139  11.469  0.0470  0.1025  0.1295
10468W        W26542  12.547  17.440   0.421  0.0873 -0.1764  0.1510
10469W        W26543  14.746   2.360   4.098 -0.2573  0.0247 -0.1663
10470W        W26544  13.521   0.142  15.183 -0.4550  0.3485 -0.1073
10471W        W26545   2.441   8.692   4.471 -0.2257  0.2988 -0.4114
10472W        W26546  14.167   5.614  12.397  0.1041 -0.0423  0.0993
10473W        W26547   0.816  14.802   3.761 -0.1242 -0.3090 -0.0393
10474W        W26548  12.205  15.336   0.203  0.0485  0.0864  0.0125
10475W        W26549  12.132   7.146   1.323  0.1260  0.0524 -0.2498
10476W        W26550   2.496   9.510   2.233 -0.0498  0.1773 -0.0371
10477W        W26551  12.964   5.282   6.328  0.0568 -0.1143  0.3437
10478W        W26552  16.415   3.325   3.983  0.1784 -0.0462 -0.2069
10479W        W26553  14.878   7.024   2.660  0.0352 -0.1126  0.2236
10480W        W26554   2.779   8.203  13.662  0.0624  0.2420  0.1599
10481W        W26555   2.085   2.159  13.534  0.5252 -0.2867  0.2710
10482W        W26556   5.353  16.307   1.270  0.1171  0.2549 -0.2146
10483W        W26557  15.311   3.287  16.048  0.2140  0.2038  0.1481
10484W        W26558  17.122   6.731   3.372 -0.0148  0.1910  0.0589
10485W        W26559   3.127  17.927  11.303  0.3806 -0.1244 -0.0776
10486W        W26560  10.442   3.806  12.243 -0.1299 -0.3116  0.0816
10487W        W26561   4.562   8.712   4.508 -0.0435 -0.3296  0.0280
10488W        W26562   1.656   1.324  10.083  0.1170 -0.1072  0.0471
10489W        W26563   6.982   7.924   1.173 -0.0617  0.1986  0.0469
10490W        W26564   7.738   5.511  15.743 -0.0438 -0.1827  0.1014
10491W        W26565   1.058   9.419   2.214 -0.0854 -0.0579 -0.0975
10492W        W26566   0.626  13.530  13.972 -0.0492 -0.1029 -0.1441
10493W        W26567   4.073   6.556  11.043 -0.2662 -0.2620 -0.3226
10494W        W26568   1.867   0.598  16.426  0.0487 -0.2196 -0.1481
10495W        W26569   5.640  11.347   0.780 -0.0674  0.0105 -0.1404
10496W        W26570  15.558  11.913   2.815 -0.0038  0.0420 -0.0012
10497W        W26571   4.516   6.157  16.390  0.0788 -0.3474  0.2921
10498W        W26572  13.653  11.466   1.924 -0.2254  0.0287 -0.0145
10499W        W26573   7.775   5.022   3.468  0.3484 -0.1184 -0.3637
10500W        W26574  15.471   4.971  13.946  0.1753  0.2433 -0.0889
10501W        W26575   2.065   9.805   3.987 -0.1174  0.2520  0.4498
10502W        W26576  13.331  14.708   3.488  0.2540  0.0652  0.0682
10503W        W26577  17.320   3.742   2.983 -0.1485  0.1280  0.1937
10504W        W26578   8.088   5.504   1.370  0.0911 -0.4838  0.0464
10505W        W26579   6.198  16.452   4.126 -0.0693 -0.0287  0.0163
10506W        W26580   7.179   5.385   0.423 -0.2193 -0.2723  0.1178
10507W        W26581   1.105  16.298   4.832  0.0406 -0.2642 -0.2113
10508W        W26582  11.976  10.953  11.796 -0.0234 -0.0081 -0.0666
10509W        W26583   3.594   5.112  14.520 -0.0770  0.0294 -0.0584
10510W        W26584   0.777  17.842   1.814  0.1039 -0.7495 -0.1238
10511W        W26585  10.062   0.248   5.635 -0.2147  0.0139 -0.2473
10512W        W26586   2.720   6.016   2.450 -0.0024  0.0747 -0.0847
10513W        W26587  15.881   6.130   5.719  0.3099 -0.1001 -0.0807
10514W        W26588  10.879   7.585   3.123 -0.1126 -0.3262  0.2714
10515W        W26589   1.237  16.684  14.769  0.0287  0.2263 -0.0433
10516W        W26590   2.511   9.546  13.580 -0.3276 -0.2162  0.3517
10517W        W26591   4.780   1.585  14.884 -0.1929  0.1302 -0.0547
10518W        W26592  11.763   2.850  14.403  0.1932 -0.2144  0.1156
10519W        W26593   6.734   7.781  14.602 -0.1782 -0.2355 -0.0476
10520W        W26594   6.725   5.088   4.282 -0.2118 -0.3438  0.1285
10521W        W26595  14.810   8.914  11.903 -0.2934 -0.1960  0.0973
10522W        W26596   1.149   9.519  12.729 -0.1263 -0.0181  0.1348
10523W        W26597   8.099  15.358  13.683 -0.2010  0.0927 -0.0250
10524W        W26598  11.469  15.223   5.593  0.1849 -0.4080  0.3182
10525W        W26599  17.366  11.882  13.560 -0.0328 -0.0955  0.2711
10526W        W26600  15.116   8.585  15.724 -0.2727  0.1417  0.1100
10527W        W26601   5.895   6.667   1.705  0.1520 -0.1146 -0.1152
10528W        W26602  10.126   0.630  16.425 -0.0509 -0.1144  0.2322
10529W        W26603   1.769   1.619   1.396 -0.1074 -0.3092 -0.1629
10530W        W26604   0.426  18.208   5.821  0.0210 -0.2272  0.1081
10531W        W26605   5.430  10.526  15.646 -0.0817 -0.0642 -0.1272
10532W        W26606  13.121   7.864   5.665  0.1503 -0.1102  0.1206
10533W        W26607   2.435  12.007  11.497 -0.1741  0.1146  0.1951
10534W        W26608   6.321   7.160   0.312 -0.2079  0.3146  0.1647
10535W        W26609  16.504   3.794  11.766  0.0813 -0.0783 -0.3079
10536W        W26610  13.276   5.657  15.862 -0.0726 -0.0092 -0.0274
10537W        W26611  13.414  12.892   2.121 -0.0385  0.0404 -0.2382
10538W        W26612  11.518   9.729   5.060 -0.0446  0.3865  0.2708
10539W        W26613   8.840   2.183   3.156  0.2345  0.1821 -0.0223
10540W        W26614  14.915   4.470  16.461  0.1348 -0.1665 -0.1764
10541W        W26615  15.375  14.738   3.474 -0.1152  0.3027 -0.1189
10542W        W26616  14.570   5.033   4.706  0.0368  0.5064 -0.0686
10543W        W26617  16.778   1.064  10.907 -0.2079  0.1936 -0.0472
10544W        W26618   3.009   0.813   3.940 -0.3122  0.0853 -0.0317
10545W        W26619  17.226   3.682   4.503 -0.1262  0.0472 -0.0314
10546W        W26620   7.457   6.482  16.133 -0.2732  0.0485 -0.1988
10547W        W26621   6.513   0.742   0.119 -0.0252  0.1325  0.0474
10548W        W26622   9.452   9.563   4.127  0.0712  0.1228 -0.2172
10549W        W26623  17.342   7.851  15.806 -0.2739 -0.2508  0.1464
10550W        W26624   7.469  18.213  15.305 -0.1620 -0.1815  0.1908
10551W        W26625  13.946   4.678   2.243  0.1607  0.0116  0.1195
10552W        W26626   0.348   8.900   6.074 -0.1586  0.2177 -0.1576
10553W        W26627   3.723  15.820  15.031 -0.0673 -0.1393  0.3102
10554W        W26628  11.772   6.179  16.383  0.4769 -0.1296 -0.0951
10555W        W26629   7.262  14.057   3.565 -0.0833 -0.0916  0.2454
10556W        W26630   0.067   4.443   4.737  0.0355  0.1235  0.1674
10557W        W26631  10.199   2.834  13.628  0.0922 -0.0080  0.3361
10558W        W26632  10.712   3.105  13.403 -0.1398 -0.0093 -0.2137
10559W        W26633  11.948   4.739  10.905 -0.2006 -0.0791  0.1509
10560W        W26634  15.036   0.447  14.415 -0.1714 -0.1070  0.1304
10561W        W26635   2.852  13.084   5.871 -0.1865  0.1065 -0.1440
10562W        W26636   6.713   5.870  13.931  0.1303  0.2660 -0.0279
10563W        W26637  15.119  11.547   3.692  0.1041 -0.2140 -0.1265
10564W        W26638   9.895   7.233   3.771 -0.0954  0.1094  0.0318
10565W        W26639  14.601   9.814   5.861 -0.2888  0.2066 -0.0150
10566W        W26640  17.434  11.642   1.942 -0.1060 -0.1336  0.3082
10567W        W26641   8.026  15.311  12.014 -0.0079 -0.0181 -0.1095
10568W        W26642  17.589   8.248   5.281  0.1128 -0.1764  0.4104
10569W        W26643   8.923   7.963   5.497  0.0429 -0.1177 -0.3893
10570W        W26644   1.029   1.684  14.451 -0.0501  0.0945  0.1757
10571W        W26645   8.577  15.934  13.333 -0.0816  0.0459 -0.1279
10572W        W26646   2.887  16.364  15.260 -0.2104  0.3064  0.0859
10573W        W26647   6.104   7.880   2.833 -0.0048  0.1167 -0.0589
10574W        W26648  11.852   2.435  15.162 -0.1274  0.1681 -0.0218
10575W        W26649   4.393  17.537  12.126 -0.0824 -0.0619  0.2081
10576W        W26650   1.112   2.581   4.631  0.0335 -0.1898 -0.3789
10577W        W26651   7.790  16.079  13.699  0.1030 -0.0191  0.2993
10578W        W26652  11.185   8.246   5.019  0.1278 -0.0799  0.0379
10579W        W26653   3.083   2.697  15.305  0.0860  0.1241 -0.0897
10580W        W26654  14.733   4.253  12.075  0.1476  0.2059  0.2175
10581W        W26655   1.430  13.278   1.208 -0.1390  0.0271  0.1918
10582W        W26656  12.248  13.554  14.313  0.0834 -0.1250  0.1228
10583W        W26657  16.243  14.708   5.677  0.2855  0.0203 -0.1130
10584W        W26658   9.159   7.619  13.120 -0.1342 -0.3773  0.0000
10585W        W26659   8.071   8.888   2.427 -0.0328 -0.0974  0.1720
10586W        W26660  16.788   8.195   3.992  0.0579 -0.0972  0.2321
10587W        W26661   8.344  12.052   2.897 -0.0715 -0.3125 -0.2557
10588W        W26662   9.764  11.237   2.206  0.0891  0.0765 -0.2902
10589W        W26663   2.290   9.781   3.515 -0.2295  0.0245 -0.3972
10590W        W26664   9.634  16.317   1.297 -0.0180  0.1978 -0.1187
10591W        W26665   9.665   9.694  11.829  0.1432  0.0533 -0.0854
10592W        W26666  16.171  17.159   0.090  0.0690  0.0089  0.1832
10593W        W26667   7.839   9.855  15.353 -0.4184 -0.0280  0.1265
10594W        W26668  14.963   5.250   3.380 -0.3015  0.3606  0.0803
10595W        W26669  14.466   4.360   1.506  0.0597 -0.2990 -0.2850
10596W        W26670   4.767   3.886  13.832 -0.1549  0.0297 -0.0097
10597W        W26671  16.608   1.650   4.121  0.1052  0.4709 -0.1005
10598W        W26672   5.951  15.353  15.636 -0.0303  0.2927 -0.4310
10599W        W26673   1.328   2.798  11.257 -0.2451 -0.0820  0.2064
10600W        W26674   5.940   5.150  15.389 -0.2062  0.1153 -0.0960
10601W        W26675   1.766   0.164   0.422 -0.1305 -0.1854 -0.2164
10602W        W26676   6.500  13.238   2.652 -0.1994 -0.2978  0.3349
10603W        W26677  12.402   8.026   3.032  0.0618 -0.2375 -0.0467
10604W        W26678  10.318  14.136  11.892 -0.3196 -0.0262 -0.0234
10605W        W26679  15.356   4.015   3.482  0.0162  0.0139 -0.1954
10606W        W26680   2.619  11.976  12.031 -0.2754  0.2164 -0.1978
10607W        W26681  11.192   0.023   0.253 -0.0766 -0.1638 -0.0369
10608W        W26682   7.260   6.298  11.655 -0.1589  0.2162 -0.0227
10609W        W26683   2.276   3.292   4.562  0.1141  0.0163  0.0534
10610W        W26684   3.329   9.643  15.600  0.2400 -0.1024 -0.1523
10611W        W26685  11.342  13.230   4.151 -0.3052  0.1025  0.2502
10612W        W26686  15.723   6.237   1.320 -0.1009 -0.2059  0.1792
10613W        W26687   8.472   8.868  13.832 -0.0625  0.1019  0.0807
10614W        W26688   7.245   2.224   3.594 -0.1378 -0.2263 -0.1572
10615W        W26689   5.704  13.625  14.433  0.0037  0.0246 -0.1394
10616W        W26690   7.238  15.919   3.370  0.2343 -0.4065  0.0105
10617W        W26691   7.345   7.507  12.094 -0.0322  0.0136  0.0666
10618W        W26692  16.265   6.809   2.402 -0.1641 -0.1576 -0.0329
10619W        W26693   5.686   1.372  15.937 -0.2846 -0.1203  0.1302
10620W        W26694   7.062   5.224  16.405 -0.0320  0.1526  0.3840
10621W        W26695  16.965  12.571  14.147 -0.2373  0.1385 -0.0707
10622W        W26696  12.738  16.802   4.092 -0.0311  0.2196 -0.0935
10623W        W26697   3.615   6.829  13.602 -0.1885  0.1191 -0.0534
10624W        W26698  17.044   8.510  14.268 -0.2597  0.1227 -0.5053
10625W        W26699  10.722   1.634  15.046  0.1843  0.0156  0.0710
10626W        W26700  10.015   7.248  15.750  0.0082 -0.0939  0.1852
10627W        W26701   9.426   0.408   3.338  0.0288  0.0188  0.0018
10628W        W26702   9.981   1.978   0.837  0.1608  0.2009  0.2023
10629W        W26703  10.796   2.301   4.114 -0.3033  0.1187 -0.2302
10630W        W26704  12.468   8.534   1.423 -0.1704  0.2041  0.2638
10631W        W26705   1.314  16.382   4.352 -0.1063  0.1517 -0.0516
10632W        W26706  16.449  16.622  13.088 -0.0285 -0.0437  0.1168
10633W        W26707   0.331  15.088   5.811  0.1373  0.0694  0.1502
10634W        W26708  14.812   5.585  14.391  0.0631  0.1991  0.1667
10635W        W26709  13.634  14.224  14.476 -0.2404  0.1377  0.0188
10636W        W26710  10.472   5.289   4.707  0.1978  0.0356  0.3895
10637W        W26711  16.171   7.818   3.508 -0.1182  0.3399  0.2084
10638W        W26712   4.847  14.027  14.247 -0.0378 -0.1382  0.0597
10639W        W26713  13.400  10.795   2.175 -0.0291 -0.1051  0.1143
10640W        W26714  10.301   6.002   5.875 -0.2875 -0.0702  0.1777
10641W        W26715  16.610  15.268   4.357  0.2693  0.2652 -0.0156
10642W        W26716  10.162   8.074   1.071 -0.0041  0.1671  0.1133
10643W        W26717  14.417  15.780   2.951  0.4248 -0.3387 -0.1187
10644W        W26718  14.938   6.716  11.794  0.0934 -0.1596 -0.2319
10645W        W26719   1.864   6.540   5.311  0.0536 -0.0740  0.2219
10646W        W26720   2.173   3.752  11.742 -0.2499 -0.0006  0.0050
10647W        W26721  15.364  16.355   4.517 -0.2124  0.1242  0.0178
10648W        W26722  17.514   9.405   1.469  0.1555  0.2024  0.1670
10649W        W26723  13.617   2.498   0.048  0.0100  0.0451 -0.0546
10650W        W26724  17.331  11.014   2.573 -0.0501  0.2012  0.1302
10651W        W26725   4.112   9.746  15.846 -0.0876  0.0664  0.0262
10652W        W26726   7.524   0.992   5.369  0.1370 -0.1134 -0.0327
10653W        W26727  14.460   1.131   5.210 -0.1002 -0.3269 -0.0765
10654W        W26728   6.694   5.799  13.007  0.1425  0.2436 -0.2622
10655W        W26729  10.850  12.501   5.491  0.1102  0.1795 -0.1004
10656W        W26730  16.889   6.224  12.346 -0.1125 -0.2328 -0.1701
10657W        W26731   3.601   3.141   4.686 -0.0393  0.2439  0.1553
10658W        W26732   5.200   6.966  11.776  0.0531  0.0488 -0.0475
10659W        W26733   3.601   5.234   3.505  0.1936  0.2093  0.1370
10660W        W26734  16.576   2.249   4.101 -0.2046  0.1500  0.0556
10661W        W26735  12.688  11.949  12.855 -0.2144 -0.0248  0.0045
10662W        W26736  16.985   4.056   3.214  0.0153 -0.2004  0.0128
10663W        W26737  11.959  13.440  16.395  0.0883 -0.1316 -0.0627
10664W        W26738  13.919   9.190  13.649  0.2920  0.1979  0.3517
10665W        W26739   2.162  10.429   1.824  0.3214 -0.0827 -0.0808
10666W        W26740  14.414  13.959  15.439  0.1856  0.2523  0.0231
10667W        W26741   9.729  16.171  16.485  0.1446 -0.0677 -0.0713
10668W        W26742  14.933   0.554  12.861 -0.0651  0.0826 -0.1981
10669W        W26743   5.091  14.682  13.092  0.1147  0.0182  0.1558
10670W        W26744   0.508   5.469   0.197 -0.1219 -0.1090  0.0944
10671W        W26745   6.998   5.344   2.881  0.1010  0.0256 -0.0579
10672W        W26746   5.802  15.992  14.824  0.0295  0.0454  0.1365
10673W        W26747  16.869   1.494   0.626 -0.0029  0.0128 -0.0857
10674W        W26748  10.913  17.981  14.291 -0.2383  0.2371 -0.2061
10675W        W26749  15.581  11.774  13.317  0.0433  0.0521  0.0780
10676W        W26750  17.747  13.141   4.054 -0.0350 -0.2547  0.0989
10677W        W26751   4.060  18.079   3.856 -0.3172 -0.0750 -0.4399
10678W        W26752   1.984   1.796   5.496 -0.0279  0.3308 -0.0924
10679W        W26753  12.152  16.110   1.898 -0.3352 -0.1549 -0.2355
10680W        W26754   2.801   0.816  16.089  0.1231 -0.0820  0.0096
10681W        W26755   5.768  13.200   4.529  0.0451 -0.0809  0.2102
10682W        W26756   1.540   5.523   2.359  0.1265 -0.4051 -0.2943
10683W        W26757   6.290  12.903  14.613 -0.2687  0.1366 -0.2026
10684W        W26758   6.387   5.565   4.398 -0.1360 -0.0499 -0.1712
10685W        W26759   4.716   1.709  14.004 -0.0254 -0.0478 -0.0858
10686W        W26760   2.940   6.734   1.801 -0.1426 -0.3392 -0.3029
10687W        W26761  17.407  15.364   3.292 -0.3931 -0.1250  0.1593
10688W        W26762   5.759  14.861   0.174 -0.0758  0.0441 -0.0178
10689W        W26763  15.557   3.833   2.443  0.2288 -0.0863 -0.1209
10690W        W26764   1.114  17.485   4.579  0.3833 -0.1147  0.0881
10691W        W26765  10.460   8.278   0.114  0.1634  0.2648  0.1414
10692W        W26766   3.842   7.751   0.426 -0.0880 -0.4483 -0.0229
10693W        W26767   8.015   6.078   1.313  0.0805  0.1538 -0.2029
10694W        W26768   8.831  11.125   2.753 -0.1831  0.1742 -0.0280
10695W        W26769  13.033  10.295  13.690  0.2368 -0.2126 -0.0803
10696W        W26770  17.448   5.126  14.464 -0.0434  0.3008  0.1005
10697W        W26771   3.480   4.503   0.985  0.0819  0.1367  0.1202
10698W        W26772  17.950  15.361   2.612  0.0179 -0.0308  0.0007
10699W        W26773   3.798   9.521  10.125 -0.0039 -0.2495 -0.0439
10700W        W26774  10.310   2.866  16.076  0.1003  0.0142 -0.0039
10701W        W26775   3.646  15.685   2.448 -0.2242  0.0962  0.1332
10702W        W26776   2.391  13.620  13.433 -0.1415  0.0063  0.0701
10703W        W26777   1.658   0.522  12.401 -0.0886  0.0263 -0.1196
10704W        W26778  16.823   1.539  15.434 -0.1736 -0.2063 -0.1305
10705W        W26779  17.533   2.936  15.375  0.1444 -0.0346  0.0754
10706W        W26780   1.175   2.288  15.246 -0.1033  0.0983  0.0664
10707W        W26781   7.616   4.577   5.660 -0.0664  0.0850  0.1395
10708W        W26782  17.068   8.585  13.269  0.1368  0.0547  0.0503
10709W        W26783   5.200  16.679   4.488 -0.0686 -0.0308  0.1170
10710W        W26784  10.780   6.700  12.129 -0.3051 -0.1382  0.0450
10711W        W26785   4.367  14.956  14.545  0.0116  0.3448  0.0681
10712W        W26786   6.654   0.608   1.382  0.1246  0.2175 -0.4280
10713W        W26787   8.750  13.750  13.126  0.1326 -0.1925  0.4006
10714W        W26788  15.193  16.849  12.107  0.1689  0.1380 -0.0992
10715W        W26789  17.177   1.384  11.654 -0.3322 -0.0893  0.3374
10716W        W26790   0.326  17.216  12.243 -0.3121  0.2068 -0.2946
10717W        W26791   7.381  17.131  16.388  0.0975 -0.4260 -0.0998
10718W        W26792   6.334  12.169   1.209  0.1158  0.2990 -0.0250
10719W        W26793  16.984  11.245   0.542 -0.1750  0.2942  0.1210
10720W        W26794  13.324   9.239   3.038 -0.1419 -0.1350 -0.2431
10721W        W26795   3.736   2.752   0.064  0.0587  0.1975 -0.2653
10722W        W26796   9.182   7.606   0.088  0.0397 -0.0661  0.1739
10723W        W26797   0.028   9.678   3.738 -0.0661 -0.0178  0.4047
10724W        W26798   5.012  12.948  15.603  0.0037 -0.0922  0.1038
10725W        W26799   9.037   8.329   3.615  0.1029  0.0872 -0.0235
10726W        W26800  17.521   9.115  11.852  0.1635 -0.2205 -0.2244
10727W        W26801   3.686   8.198   2.567  0.1394 -0.3486  0.1195
10728W        W26802  16.038  10.253   3.946 -0.0333  0.1068  0.0829
10729W        W26803   9.038   0.649  15.145  0.1296 -0.1247 -0.0333
10730W        W26804  11.636  15.707   0.442  0.0682  0.2161 -0.0586
10731W        W26805  16.019  14.658   1.475  0.0919  0.3879  0.0570
10732W        W26806   1.566  12.506   2.681 -0.0048 -0.3902  0.2875
10733W        W26807  16.280   3.925   2.855  0.0410 -0.0963 -0.1091
10734W        W26808   7.792   6.004  14.904  0.0549 -0.1181  0.0921
10735W        W26809  12.778  10.417   2.872 -0.2100 -0.1142 -0.3542
10736W        W26810  15.805   7.341   2.073 -0.0928 -0.3397 -0.1184
10737W        W26811   7.967   7.353   4.814  0.3677 -0.0275 -0.0824
10738W        W26812   7.973  15.619  15.829 -0.2029  0.0207  0.0689
10739W        W26813  12.392   0.095  16.088  0.0626 -0.0928 -0.3266
10740W        W26814   0.635   7.443  11.269  0.0395  0.0777  0.0184
10741W        W26815   3.218  15.129   6.143  0.2816 -0.1689 -0.1785
10742W        W26816  11.606   3.428  13.701 -0.0120 -0.0541  0.2606
10743W        W26817   5.013  14.369   4.585  0.0131  0.0974  0.0421
10744W        W26818  15.967  15.921  12.240  0.1852  0.0375  0.0980
10745W        W26819   5.082  16.601   1.566  0.1852 -0.2272 -0.1436
10746W        W26820   9.063  12.566   4.242  0.0385  0.2103  0.4825
10747W        W26821  13.617   6.926  16.284 -0.2478 -0.0430  0.1129
10748W        W26822   8.193  17.379  16.274 -0.0772  0.2817 -0.0375
10749W        W26823   3.464  13.760  15.373 -0.0541  0.1112  0.1410
10750W        W26824  12.125  16.930  14.251 -0.0529 -0.1026 -0.2696
10751W        W26825   8.688  13.423   2.491 -0.1654  0.0552  0.2258
10752W        W26826   8.887  16.306  11.726 -0.1473 -0.0923  0.1439
10753W        W26827  14.514   2.744  13.153 -0.4496 -0.0248  0.2170
10754W        W26828  11.425   7.456   0.854  0.2694  0.0415  0.2552
10755W        W26829  16.393  17.801  12.702  0.1065 -0.0006 -0.1050
10756W        W26830  13.172  15.825   5.657 -0.0551  0.3252  0.1813
10757W        W26831  16.900   8.992  13.415 -0.0755 -0.1024 -0.0236
10758W        W26832  10.245   2.776  14.791  0.1877 -0.1201 -0.2084
10759W        W26833   9.729  12.689   3.085  0.0160 -0.0296  0.2046
10760W        W26834  14.004  15.335  13.447 -0.0475  0.0533 -0.1137
10761W        W26835  17.291  13.936   5.427 -0.2403 -0.1656 -0.0330
10762W        W26836   3.368   0.480   3.685 -0.0079  0.2824  0.3792
10763W        W26837  17.795   4.492  16.000 -0.1446  0.2529  0.0954
10764W        W26838   6.902  14.421  15.310 -0.1265 -0.2276 -0.2581
10765W        W26839   3.983   6.090   3.064  0.3884  0.0048  0.1727
10766W        W26840   1.304   9.342  13.681 -0.0495  0.1645 -0.0904
10767W        W26841  12.773   9.468  12.298  0.0167  0.0135 -0.3495
10768W        W26842  13.379   6.485   1.533  0.0031 -0.1031 -0.0793
10769W        W26843   8.974   3.276   0.410  0.3280  0.0112 -0.1459
10770W        W26844   2.801  18.184  14.535 -0.2633 -0.1835  0.0563
10771W        W26845  13.924   4.672   0.042 -0.1876  0.1254  0.4201
10772W        W26846   2.707  13.751  14.904  0.1233 -0.1212 -0.1954
10773W        W26847   7.521   7.547  13.827 -0.2508  0.0698 -0.2857
10774W        W26848  12.000   3.466   3.429  0.5069 -0.3523 -0.0932
10775W        W26849  16.110   1.558   4.111 -0.1764  0.0248  0.0132
10776W        W26850  17.887  16.839   2.220  0.0408 -0.1508 -0.0956
10777W        W26851   2.179   8.743   5.441  0.1331  0.0014  0.1180
10778W        W26852  16.076  11.606   3.629 -0.3444  0.1006  0.0908
10779W        W26853  17.124   8.135   4.375  0.1797  0.0812  0.3371
10780W        W26854   0.083   1.059   3.937 -0.1257  0.0033 -0.0284
10781W        W26855   5.560  10.918   4.539 -0.0320  0.0671 -0.3441
10782W        W26856   5.335   5.343  12.589 -0.2879 -0.0420  0.1688
10783W        W26857  17.458   7.215   0.412 -0.0711  0.0743 -0.0632
10784W        W26858   1.313  12.496  15.562  0.1777  0.1280 -0.1980
10785W        W26859   7.472   9.797   0.418 -0.1419  0.0925 -0.1230
10786W        W26860   1.760  14.973   3.455  0.0851 -0.2030  0.2776
10787W        W26861  12.674  12.099   3.242 -0.0614  0.0291  0.0112
10788W        W26862   0.880   2.034  14.131 -0.0350 -0.1897  0.3507
10789W        W26863   3.654   6.707  15.385 -0.0278 -0.3417  0.0027
10790W        W26864   8.566  13.765   4.778  0.3926  0.1443  0.1258
10791W        W26865   0.063  12.352  12.486  0.2486  0.1666 -0.0762
10792W        W26866  18.038   9.819  13.816 -0.0072 -0.1849 -0.1399
10793W        W26867  16.533   8.455   3.335 -0.3584  0.0422  0.1584
10794W        W26868  15.757  18.179  13.908 -0.0909 -0.1635  0.3602
10795W        W26869   4.923  12.287   3.814  0.2483 -0.0785 -0.0818
10796W        W26870  11.716  12.912   5.303  0.1688  0.1317  0.1465
10797W        W26871  15.138   5.427  14.022  0.3542  0.0228  0.2362
10798W        W26872   2.583   6.497   1.508  0.1910 -0.2824  0.0902
10799W        W26873  16.604  13.054   4.548  0.3143  0.1202 -0.4831
10800W        W26874   4.697   0.620   5.296 -0.1223 -0.0944 -0.0618
10801W        W26875   5.916   3.294   6.315  0.2472 -0.0116  0.2373
10802W        W26876  14.885  13.119  12.821 -0.1843 -0.1350  0.0487
10803W        W26877  12.155   5.429   3.326  0.0445  0.0933 -0.0612
10804W        W26878   2.961  15.704  14.977  0.0551  0.1765  0.2061
10805W        W26879   9.847  15.945   4.704  0.0374  0.1257  0.4859
10806W        W26880   3.021  17.148   3.583  0.1532  0.3420 -0.4764
10807W        W26881   8.038  10.034   3.979 -0.0392 -0.1724 -0.0865
10808W        W26882  13.554   4.667   4.100  0.1307  0.0252 -0.0989
10809W        W26883  12.895   9.222  11.852 -0.1483 -0.2167 -0.0037
10810W        W26884   1.531   2.775   1.625  0.2141 -0.0913  0.2345
10811W        W26885  14.269   4.316  13.302  0.1933 -0.1091 -0.1195
10812W        W26886   9.624   4.256   6.438  0.0705  0.0796 -0.2575
10813W        W26887   2.162   7.844   2.723 -0.0098  0.3478  0.0387
10814W        W26888   2.788   8.330  12.196  0.1118 -0.0767  0.1637
10815W        W26889  18.141   6.344   5.395  0.4526 -0.2375  0.0182
10816W        W26890   0.820   0.270   6.110  0.0312  0.1205 -0.3296
10817W        W26891   5.530  17.402  11.915  0.2959  0.1837  0.1208
10818W        W26892   8.731  15.411   1.755  0.2381  0.1572 -0.4343
10819W        W26893   5.104   1.199   0.725  0.0771  0.0448 -0.2907
10820W        W26894  11.055   8.406  12.880  0.3696  0.1159  0.1735
10821W        W26895  18.169   8.215  16.152  0.2517  0.1038 -0.3742
10822W        W26896  11.325  11.404  11.764 -0.3569 -0.1825  0.0183
10823W        W26897  12.496  13.618  15.617 -0.0579 -0.1655  0.1411
10824W        W26898   4.544   7.929  13.602 -0.1059  0.1389  0.0818
10825W        W26899   8.501  13.536  13.534  0.0086 -0.1866  0.0698
10826W        W26900   3.415   6.338  12.696 -0.0897  0.1392 -0.0220
10827W        W26901   9.866   1.956   2.552  0.0112 -0.4228 -0.1687
10828W        W26902   7.976  14.442  12.088  0.0730  0.0863 -0.1360
10829W        W26903   8.691   3.738   2.310 -0.2005 -0.1457  0.0678
10830W        W26904   2.344   5.402  13.376  0.4405  0.1403 -0.2261
10831W        W26905  15.713   9.215  16.123  0.0011 -0.1903 -0.0291
10832W        W26906  17.125  14.431   1.337  0.0306 -0.2657  0.0277
10833W        W26907  11.928   0.214  16.211 -0.0016 -0.0582 -0.1081
10834W        W26908  10.880   1.917   2.401  0.0468 -0.4622 -0.2768
10835W        W26909  17.774  15.770   2.210  0.1707  0.2451 -0.1374
10836W        W26910   0.033   6.725  11.530 -0.0670  0.0927 -0.0263
10837W        W26911  12.730  14.619   0.440 -0.0821 -0.1615  0.0758
10838W        W26912   4.813   2.489  16.473  0.1065 -0.1032 -0.0598
10839W        W26913   7.051  10.669  12.838 -0.1939  0.4590 -0.0208
10840W        W26914   0.057  11.474   2.457 -0.1663  0.0947 -0.3160
10841W        W26915   9.951  11.966  15.675  0.0561  0.1487 -0.0045
10842W        W26916   1.130   7.342   1.943 -0.0706  0.3569 -0.0606
10843W        W26917  12.878   0.001  13.004 -0.2031  0.1502  0.1935
10844W        W26918   2.909  11.956  13.420 -0.0619  0.2519  0.1630
10845W        W26919   0.932  16.885  13.846  0.1726  0.0698 -0.1534
10846W        W26920  10.695   1.032  12.659 -0.2846 -0.0062 -0.1366
10847W        W26921   9.553  13.232   3.001 -0.1795 -0.2417  0.2353
10848W        W26922   8.987   6.893   6.412  0.0839  0.2390 -0.0819
10849W        W26923  17.888  11.106  13.196  0.1302 -0.4174  0.0308
10850W        W26924   3.064  16.140   0.401  0.1114  0.3205  0.2104
10851W        W26925  17.409   1.140   1.987 -0.1350 -0.3131  0.1701
10852W        W26926   1.350   6.539  11.661 -0.2175  0.1403  0.3256
10853W        W26927  12.403   7.461   0.023  0.2809 -0.1838 -0.2349
10854W        W26928  15.459   8.514  14.326 -0.0787  0.4782  0.2538
10855W        W26929   5.850   0.242   3.522 -0.1431  0.1215 -0.5101
10856W        W26930   7.089   0.018   1.859  0.1552  0.0720  0.1028
10857W        W26931   5.650  16.499   3.386  0.1328  0.1336 -0.0703
10858W        W26932   8.262   9.983  15.824  0.4055 -0.2923  0.3026
10859W        W26933   8.261   5.319   4.059  0.3058  0.1346  0.2490
10860W        W26934   8.543   6.097  12.987 -0.1551 -0.2635 -0.1835
10861W        W26935   7.438   6.563   3.508 -0.1249 -0.1274 -0.1621
10862W        W26936  16.606  12.624   2.909 -0.0235  0.2423  0.1561
10863W        W26937   4.135  11.994  13.339  0.1074 -0.1247  0.1121
10864W        W26938   2.852   6.809   0.268 -0.2026 -0.1212  0.1016
10865W        W26939  14.995   2.039  15.565  0.1274 -0.1433  0.1022
10866W        W26940  10.734   9.236   3.421 -0.1137 -0.0598  0.3741
10867W        W26941  14.333  15.210   4.798 -0.0188  0.1321  0.0923
10868W        W26942  11.400  10.126   2.957 -0.2016 -0.0227 -0.0418
10869W        W26943  17.563  13.309  12.224  0.0627  0.0413  0.1000
10870W        W26944   5.015  17.441   0.550 -0.0939 -0.1793 -0.0562
10871W        W26945  16.303   4.463   1.160  0.0197 -0.1897  0.1706
10872W        W26946  16.307   1.245   0.454  0.1797  0.2697 -0.0582
10873W        W26947  16.122   0.001   2.794 -0.2732 -0.3250  0.3440
10874W        W26948  15.253  15.144  12.955 -0.0978 -0.1489  0.3089
10875W        W26949   2.887  13.774  14.407 -0.1241  0.1166 -0.2961
10876W        W26950   1.583  10.527   5.241  0.1214  0.1511 -0.2125
10877W        W26951  12.605   3.817  13.712 -0.2477 -0.0986 -0.1389
10878W        W26952   2.779   1.407  12.864  0.0892 -0.1643 -0.1159
10879W        W26953   5.499  14.924   0.752 -0.4827 -0.2530  0.0997
10880W        W26954  12.800   9.363   3.681  0.0440 -0.2692 -0.0637
10881W        W26955  14.155   8.584  15.657 -0.0809  0.0135  0.0467
10882W        W26956   7.714  12.198   6.242 -0.0813  0.2248 -0.1747
10883W        W26957  10.105  11.449  15.640  0.0240  0.0486 -0.0855
10884W        W26958   8.491  17.392   2.222  0.1179  0.0274 -0.2379
10885W        W26959   2.829   8.511   2.980  0.0391  0.1198  0.0209
10886W        W26960  12.805   4.366  13.651 -0.1046  0.0066  0.4428
10887W        W26961   0.189  12.022   6.100 -0.0593 -0.2107 -0.3103
10888W        W26962  16.207   8.150  14.463 -0.0759 -0.2245  0.5204
10889W        W26963   3.183   7.602   1.624 -0.2053  0.1938  0.0216
10890W        W26964   3.869  14.259  12.355 -0.1978 -0.2327  0.0741
10891W        W26965   3.959  10.197  10.677  0.0037 -0.2302  0.1222
10892W        W26966   3.756  17.828   1.049 -0.2330  0.2002  0.0394
10893W        W26967   6.585  13.835  13.719 -0.0854  0.3195 -0.2102
10894W        W26968  10.741  14.888   4.687 -0.1385  0.0736 -0.0435
10895W        W26969   1.449  15.443   4.816  0.1007  0.1227  0.1348
10896W        W26970   7.695  12.198   5.214  0.0185  0.1862  0.0922
10897W        W26971   5.413   0.758  12.900  0.1726  0.2005  0.0761
10898W        W26972   2.622   0.469  12.920 -0.0693 -0.0669 -0.2113
10899W        W26973   2.116   2.514  16.009 -0.1214 -0.1297 -0.0452
10900W        W26974  17.317   2.061  12.185  0.3563  0.0920 -0.0618
10901W        W26975   8.929  17.179   3.497 -0.2720 -0.3875 -0.1406
10902W        W26976  12.467  12.508   4.631 -0.0120  0.0900 -0.1456
10903W        W26977   1.127   7.371  16.188 -0.1420  0.3747 -0.0741
10904W        W26978  15.707  17.506   3.262  0.0999  0.0530  0.2696
10905W        W26979  18.069  16.386   4.607  0.2539  0.0141 -0.0956
10906W        W26980  12.614  11.136  15.363  0.1345 -0.0781 -0.1102
10907W        W26981   4.122   6.856   1.462  0.0101 -0.2254 -0.0628
10908W        W26982   3.709   4.107  14.837 -0.0282  0.0048 -0.1960
10909W        W26983   8.053   1.679  13.232 -0.1120  0.0147 -0.3942
10910W        W26984   8.695  16.276  15.388  0.1494  0.1430  0.0232
10911W        W26985   8.262  17.859   2.296  0.0501 -0.3292  0.2380
10912W        W26986   8.512  18.161  11.558 -0.2959 -0.2966 -0.0423
10913W        W26987  10.905   5.242  14.737  0.5176 -0.0426 -0.1635
10914W        W26988   7.662   0.922   0.431 -0.0425  0.1376 -0.0329
10915W        W26989   6.364   8.619  12.368  0.5216 -0.1802  0.3356
10916W        W26990   3.807   9.324   1.822  0.2317 -0.0122  0.0953
10917W        W26991   5.170   2.757  16.206  0.0229  0.3181 -0.0404
10918W        W26992   0.340   9.326   5.498  0.0851 -0.0762  0.1271
10919W        W26993  13.470   3.820   0.907  0.0560  0.2925 -0.0281
10920W        W26994   2.559  11.971  15.963  0.1287  0.2694  0.0611
10921W        W26995   2.814  12.707   2.171  0.1498  0.2047 -0.1005
10922W        W26996   3.388   4.571  15.596 -0.3454  0.1509  0.2966
10923W        W26997   3.936   1.467   0.369  0.1536  0.0430 -0.0135
10924W        W26998   7.302  10.029   3.361  0.0775 -0.2620  0.0798
10925W        W26999  12.098  12.719  11.421 -0.4117 -0.1132  0.0882
10926W        W27000   4.897  17.822   3.022  0.1433  0.0646  0.1728
10927W        W27001   4.135  12.662  12.850  0.1029 -0.0123 -0.0666
10928W        W27002  13.041  17.674   3.745 -0.3165  0.1264 -0.0556
10929W        W27003  13.161   0.075   0.213 -0.3065  0.0211  0.2477
10930W        W27004   2.585   8.412   5.384 -0.2255  0.0885 -0.1147
10931W        W27005   8.514  13.557   3.489 -0.1194  0.2711  0.1885
10932W        W27006  13.344   6.501   2.326  0.2525 -0.0053 -0.1611
10933W        W27007  15.648  15.993  14.710 -0.3193  0.1591 -0.2286
10934W        W27008  15.842   0.548  14.959 -0.2897 -0.1482 -0.0639
10935W        W27009   0.394   8.027   0.030 -0.2388  0.1087  0.0612
10936W        W27010   1.812   2.764   3.813  0.0742  0.1594  0.0419
10937W        W27011  15.053   5.755   5.070  0.0240  0.1422  0.1485
10938W        W27012   8.844   4.444  12.075  0.0997 -0.0427 -0.2031
10939W        W27013   3.409   9.030   1.036 -0.0259  0.2743  0.1032
10940W        W27014   0.113   1.486  14.390  0.2466 -0.1597 -0.1760
10941W        W27015   2.932  17.287   2.478  0.0741  0.0147 -0.1002
10942W        W27016   0.464   3.953   2.174 -0.0630  0.0199  0.0817
10943W        W27017   3.138   2.376   1.485 -0.3304  0.0673  0.0919
10944W        W27018  14.037   3.652  12.093  0.1115 -0.0407 -0.0835
10945W        W27019   3.538  15.804   0.305 -0.0378  0.1247 -0.0854
10946W        W27020   7.254   6.902   2.760 -0.3263 -0.0508  0.0316
10947W        W27021   1.760   8.629   5.141 -0.3712 -0.0910  0.0614
10948W        W27022  11.937  15.402  10.862  0.1176 -0.0293  0.0074
10949W        W27023   5.090   2.148   2.476 -0.2930 -0.0106 -0.0391
10950W        W27024   0.019  14.069  15.590 -0.3179  0.1028  0.0885
10951W        W27025  16.611   3.323  14.910 -0.2520 -0.1766  0.0527
10952W        W27026  13.621  16.522   4.855 -0.1264  0.0262 -0.3876
10953W        W27027   4.868   4.403  11.499  0.1125  0.2690 -0.1237
10954W        W27028   9.035   7.853  12.666  0.0970 -0.0423  0.0870
10955W        W27029   4.792   4.164  11.984  0.0086 -0.2012 -0.3008
10956W        W27030  13.787   5.568  12.769 -0.0610  0.0375 -0.1503
10957W        W27031  16.485   0.340  11.516 -0.0565 -0.0367 -0.2389
10958W        W27032   2.955  14.465   4.444 -0.1409  0.0954 -0.0506
10959W        W27033  11.398  10.319  16.046 -0.1256  0.0729 -0.1179
10960W        W27034  13.548  13.730   2.371  0.0367  0.0640 -0.0319
10961W        W27035  12.491   6.270  13.140  0.1379  0.0899 -0.0778
10962W        W27036  11.864   5.716   4.679 -0.0885 -0.2325  0.1245
10963W        W27037   8.228   8.944  11.592  0.1446  0.1977  0.1953
10964W        W27038   2.790   5.546  13.556  0.1547  0.0083  0.1946
10965W        W27039   4.468   1.123  16.364 -0.1426  0.3774  0.2305
10966W        W27040  10.319  10.583   4.992 -0.1311 -0.1395  0.3431
10967W        W27041  16.091  12.370  13.816  0.3583  0.2503  0.1033
10968W        W27042   3.056   8.245  15.817  0.1526 -0.1487  0.0843
10969W        W27043  16.012   6.680  12.679 -0.0699 -0.0585  0.2708
10970W        W27044   2.351  15.197   3.298  0.1750  0.1165  0.0356
10971W        W27045  15.634   0.556  11.936 -0.4098  0.2354 -0.0503
10972W        W27046   0.858  16.582  15.628 -0.1123  0.2320  0.1103
10973W        W27047   8.858  10.998   0.199 -0.1311  0.1128 -0.2736
10974W        W27048  13.999  16.158   4.603 -0.2190  0.2831  0.0127
10975W        W27049  14.857  10.998  15.249 -0.0980  0.0106  0.0082
10976W        W27050  11.082   9.311   0.464  0.0873 -0.3208 -0.1906
10977W        W27051  12.322  17.658  11.886  0.0444 -0.0720  0.6075
10978W        W27052   5.636   3.650   2.683 -0.2402 -0.1259  0.2455
10979W        W27053   9.490   6.105  13.018 -0.1335  0.0309 -0.1408
10980W        W27054  15.498  16.384   5.602  0.0650  0.0605 -0.1624
10981W        W27055   4.632  14.848   3.012 -0.2459 -0.1329  0.1546
10982W        W27056  10.324   6.405  14.359 -0.0254  0.0573  0.1164
10983W        W27057  13.380   7.712   3.710 -0.0719 -0.2818  0.2260
10984W        W27058   1.370   4.501   0.920  0.0145 -0.2213  0.2676
10985W        W27059   3.861   3.242  11.995  0.4422 -0.1176 -0.2262
10986W        W27060  10.911  16.400   5.411  0.1137 -0.0199  0.2617
10987W        W27061   9.464   6.070   2.421  0.2094 -0.0890 -0.3936
10988W        W27062   5.969  17.327   1.555 -0.1561 -0.1307  0.0478
10989W        W27063   9.707  14.126  16.252  0.1119 -0.2287  0.2079
10990W        W27064  18.198  12.186  16.219 -0.0825 -0.0660 -0.0562
10991W        W27065  17.571   5.349  13.181  0.1173  0.0198 -0.0623
10992W        W27066  10.456   4.245  12.056 -0.0798  0.1346 -0.0750
10993W        W27067   1.979   4.054   1.260 -0.0921  0.1414 -0.0311
10994W        W27068  14.490  12.226  13.797  0.1156  0.0630  0.2333
10995W        W27069  18.139   9.214   5.237 -0.1489  0.2548 -0.0739
10996W        W27070  14.625  13.541  16.201 -0.2885  0.2994 -0.3872
10997W        W27071  13.141   2.391   2.272 -0.0734 -0.1522  0.1690
10998W        W27072   2.049  16.579  15.044  0.0876  0.3777  0.2497
10999W        W27073  14.554   0.910   5.703  0.1154  0.3075 -0.2237
11000W        W27074  13.598   8.118   5.559  0.1209 -0.2366  0.0314
11001W        W27075  11.818   0.905  16.385  0.0249 -0.2513 -0.1464
11002W        W27076  14.154   4.129  14.733  0.0581  0.2810  0.0596
11003W        W27077   8.946  15.030   4.063 -0.1079 -0.1776 -0.0350
11004W        W27078  17.194  14.240   4.005 -0.0020  0.3355 -0.2221
11005W        W27079   7.161   8.721   0.187 -0.2242 -0.2668  0.0096
11006W        W27080   6.641  17.650   4.600 -0.2060  0.0427 -0.1496
11007W        W27081  15.039  12.130  12.841  0.0166 -0.0708  0.3185
11008W        W27082   5.622   0.189  15.087 -0.0237 -0.0284 -0.0374
11009W        W27083  18.077  14.549   5.394  0.1352  0.1264 -0.2813
11010W        W27084   0.454   2.446  11.982  0.1448  0.0889  0.4876
11011W        W27085  14.830   4.389   2.586  0.1318  0.1997 -0.1461
11012W        W27086   6.056  16.153  15.782 -0.0179  0.0684 -0.0037
11013W        W27087  13.813   3.649   2.406 -0.1418 -0.0806  0.0121
11014W        W27088  17.054   8.225   5.279 -0.0150 -0.0247  0.0526
11015W        W27089  15.272  15.855   4.176 -0.3198 -0.0989 -0.0827
11016W        W27090   5.327  16.473   4.006 -0.1203  0.0629 -0.1405
11017W        W27091   7.962   4.317   4.106  0.2540 -0.1748 -0.1853
11018W        W27092   0.234   2.903   3.605  0.1680  0.0140 -0.0961
11019W        W27093  10.205  14.300   3.861 -0.3441 -0.1708 -0.3163
11020W        W27094   8.413  17.245   5.693 -0.1571 -0.1181  0.0798
11021W        W27095  13.007  13.716  15.044  0.0121 -0.2653 -0.0796
11022W        W27096  17.092  13.892  14.396 -0.4218 -0.0720 -0.0088
11023W        W27097  11.054  13.213  11.909 -0.4899 -0.2798  0.0540
11024W        W27098  13.035   7.701   2.311 -0.0309 -0.3695 -0.0287
11025W        W27099  17.511  14.818  14.660 -0.1139  0.1259 -0.1735
11026W        W27100  13.883   3.917   4.194  0.1889  0.1339  0.0333
11027W        W27101  18.009   3.578   3.421  0.3712  0.1122 -0.1180
11028W        W27102  10.845   6.593  15.947  0.0606  0.1489  0.1261
11029W        W27103   9.854   7.553   5.058 -0.0022  0.0597 -0.3541
11030W        W27104  14.958  15.516   4.076  0.0809  0.1575  0.1790
11031W        W27105   6.176  11.108   2.072  0.0057 -0.0332 -0.2488
11032W        W27106  17.867   3.143   2.747 -0.0805 -0.0412  0.2282
11033W        W27107   7.207   7.429  15.542 -0.0564  0.2141  0.1639
11034W        W27108  16.793  10.773   4.422  0.1378  0.0618 -0.0515
11035W        W27109   0.447   4.242   3.802  0.2668  0.1562 -0.1808
11036W        W27110  15.686   8.835   5.323  0.2609 -0.1213  0.1267
11037W        W27111  16.336   0.337  15.028  0.3199  0.1392 -0.0725
11038W        W27112   9.532   7.461   2.009 -0.0966  0.6486 -0.1965
11039W        W27113   6.300   9.674   0.744 -0.1571 -0.2212  0.0670
11040W        W27114  17.741   4.518   4.818 -0.0458 -0.1296  0.2396
11041W        W27115  13.129   8.678  13.957  0.3561 -0.1558 -0.0097
11042W        W27116   2.414   1.567   5.743 -0.3663  0.0220  0.2349
11043W        W27117  11.096   9.881   4.755  0.0977 -0.0663 -0.0126
11044W        W27118   2.443  12.919   1.068 -0.2679  0.1383  0.1352
11045W        W27119   1.254  17.446  12.747  0.1611  0.1864  0.0851
11046W        W27120   5.854   9.510  13.916 -0.0546 -0.0475 -0.1599
11047W        W27121  14.634   7.791   1.106 -0.0732  0.1852  0.0189
11048W        W27122  11.326  16.326   4.714 -0.0781 -0.1408  0.0395
11049W        W27123   6.936   2.085  14.079 -0.1827  0.0485  0.0316
11050W        W27124   2.224  13.623   5.959 -0.0359 -0.2164  0.2990
11051W        W27125  17.155   8.942  11.413 -0.4598  0.1749 -0.0975
11052W        W27126   8.360   3.597   3.983 -0.0147 -0.2618  0.0026
11053W        W27127  16.335   0.074   5.228 -0.2298  0.1646 -0.0718
11054W        W27128   6.060  13.817  13.400 -0.0618  0.1266 -0.0319
11055W        W27129  16.895  16.166  11.379 -0.2604 -0.2011 -0.0787
11056W        W27130   9.254   9.583  14.176 -0.1019  0.0196 -0.0710
11057W        W27131   1.013   6.869   2.089 -0.0434 -0.0497 -0.1322
11058W        W27132  12.188   3.693  14.583 -0.3520 -0.1145 -0.1010
11059W        W27133   6.842  16.738  13.706  0.4237 -0.2791  0.4713
11060W        W27134   7.908  13.856   5.259 -0.3214  0.2447 -0.0641
11061W        W27135   4.137  12.612  15.387 -0.1334 -0.2097  0.1132
11062W        W27136  16.122  17.933  13.574 -0.0264  0.0721  0.1776
11063W        W27137  15.764   3.099   0.550 -0.0644  0.2570  0.3282
11064W        W27138  17.004   1.406   4.241 -0.1192  0.4631  0.1133
11065W        W27139  17.303  15.643   9.743 -0.0118 -0.2104  0.1599
11066W        W27140   9.178  14.865  15.716  0.0790  0.1202  0.3174
11067W        W27141   3.199   3.808   2.901 -0.0275 -0.1364 -0.1400
11068W        W27142   3.338  14.825   2.688  0.0158 -0.1883  0.0721
11069W        W27143   6.715  11.417  15.232 -0.3002 -0.0047  0.2171
11070W        W27144   4.773  12.644  16.337  0.1161  0.2717  0.2362
11071W        W27145   6.055   7.033  12.559  0.1141  0.0004 -0.1402
11072W        W27146   2.842   0.927  14.625  0.0546 -0.0426  0.4138
11073W        W27147   4.371   1.126   3.900 -0.1609 -0.1636 -0.3395
11074W        W27148  10.910   5.216   2.496  0.3170  0.1126 -0.0955
11075W        W27149  10.680  14.516  14.889 -0.0771  0.2048  0.2290
11076W        W27150  14.539  11.130  14.833  0.1036  0.0514 -0.3335
11077W        W27151  12.126   5.298   3.921  0.1907  0.0480  0.0647
11078W        W27152   3.862   2.337  15.567 -0.0222  0.0888  0.1166
11079W        W27153  13.174  10.382   4.609  0.1201 -0.0872  0.3091
11080W        W27154   7.672   3.264  11.674  0.1036  0.1160  0.0827
11081W        W27155   9.154   8.888   3.427  0.1141  0.1273 -0.0231
11082W        W27156  12.033  16.905   2.221  0.1472  0.0388 -0.0812
11083W        W27157  13.489   8.207  15.590 -0.0055  0.4148 -0.0525
11084W        W27158   2.602   2.939   4.428 -0.1502  0.1135 -0.1649
11085W        W27159   7.141   1.281   4.017  0.1961 -0.2998  0.0581
11086W        W27160  12.736   2.152   2.101  0.0951 -0.3421 -0.1783
11087W        W27161  17.924   5.136   0.698  0.0355 -0.0876 -0.2761
11088W        W27162   1.867  17.443  14.440 -0.0256  0.0458 -0.1176
11089W        W27163   6.145  12.279   5.564 -0.1419 -0.1900  0.0656
11090W        W27164   4.015   5.943  11.891  0.1475 -0.1287 -0.4056
11091W        W27165  11.618   9.486  14.906 -0.3274  0.0182 -0.0984
11092W        W27166  10.412   7.350   1.619 -0.0059 -0.0668 -0.0556
11093W        W27167  11.062  11.066   0.701 -0.2319  0.2652 -0.1083
11094W        W27168   3.821   7.201  15.400 -0.0060 -0.1511  0.0058
11095W        W27169   8.881   7.192  14.264 -0.3252  0.6374 -0.0682
11096W        W27170   1.560   6.177   2.919  0.1994 -0.3086 -0.0869
11097W        W27171   2.772   2.891   0.202 -0.3549  0.1456 -0.0539
11098W        W27172  11.220   5.645   0.703 -0.2713 -0.1506 -0.0840
11099W        W27173  12.020   7.633   0.303 -0.0607  0.3801 -0.0709
11100W        W27174   3.865  11.650   0.694 -0.0963  0.0450 -0.0830
11101W        W27175   1.868   0.517  14.187  0.1051  0.0988 -0.2715
11102W        W27176  10.403   1.737   5.574  0.1933 -0.1814 -0.0370
11103W        W27177   5.488  10.652  10.985  0.2157  0.1231  0.0217
11104W        W27178   5.251  16.077   2.166  0.2733  0.1853  0.0711
11105W        W27179   9.255  17.471   5.406  0.0405  0.2308 -0.0996
11106W        W27180  10.394  17.397   1.247  0.0452  0.3328  0.0292
11107W        W27181   2.660   4.059  13.482 -0.2575  0.1122 -0.0997
11108W        W27182  13.174   8.428  10.338 -0.0714  0.3907  0.0937
11109W        W27183  12.733   3.193  12.565  0.0680  0.1921 -0.2144
11110W        W27184   5.916  14.073  14.367 -0.1396  0.0008 -0.1716
11111W        W27185  16.916   2.108   5.316  0.2191 -0.0482 -0.1965
11112W        W27186   9.463  11.384  16.480 -0.0163 -0.0607 -0.3438
11113W        W27187  10.064  13.581  14.970 -0.0300  0.2210  0.2855
11114W        W27188   5.316   8.161  10.552  0.0099  0.0877  0.0520
11115W        W27189   4.760   4.382  16.356  0.4993 -0.0448  0.2887
11116W        W27190  14.641  11.451  13.329 -0.1336 -0.3947  0.0149
11117W        W27191   1.342  12.821   4.607  0.0880 -0.3191  0.0191
11118W        W27192  11.736  13.059   3.902 -0.1859 -0.0916 -0.1049
11119W        W27193   6.566  14.324  14.909 -0.1043 -0.1366  0.3192
11120W        W27194   5.412  13.730   2.011 -0.3982 -0.0645 -0.0958
11121W        W27195  13.028  15.507   5.026 -0.1467 -0.2517  0.2079
11122W        W27196   2.016   5.248  12.925  0.1678 -0.3027  0.0367
11123W        W27197  17.727   6.146   5.612  0.0520  0.4309 -0.0358
11124W        W27198  10.858   1.495  14.567  0.0614 -0.0779 -0.0024
11125W        W27199   7.939   7.787  16.023  0.1929 -0.1966  0.0727
11126W        W27200  12.526   5.525  11.518 -0.1551 -0.0165  0.2893
11127W        W27201   3.145  14.640  15.254  0.1178 -0.1955 -0.0689
11128W        W27202   4.023  10.024  15.037  0.1330 -0.2347  0.1552
11129W        W27203   9.626  11.383   4.212  0.0545 -0.0644 -0.0946
11130W        W27204  12.094   8.529  14.789 -0.0779 -0.0591 -0.3498
11131W        W27205  15.631  14.305   3.289 -0.1458 -0.0063  0.0547
11132W        W27206   0.666   0.336   2.374 -0.0620  0.2634 -0.2505
11133W        W27207   5.927   3.960  15.735  0.0656  0.0327  0.0912
11134W        W27208   1.421  16.483   1.863  0.1390  0.2427 -0.1316
11135W        W27209   0.379   5.529  15.495 -0.0926 -0.1319 -0.2203
11136W        W27210   0.682  14.348   3.876  0.1078  0.3503  0.2347
11137W        W27211  16.941   8.307  11.424  0.2477 -0.1248 -0.1891
11138W        W27212  15.193   2.578  13.877 -0.0400  0.2246 -0.1602
11139W        W27213   6.599  11.357   1.921  0.3018  0.0197 -0.1832
11140W        W27214  13.137  13.935  13.426  0.3438  0.2505  0.0232
11141W        W27215   5.751  13.998  15.478 -0.2433  0.1211 -0.0471
11142W        W27216   5.597  15.457  11.995 -0.0176 -0.0085 -0.0878
11143W        W27217   4.271   8.827   0.634 -0.2305  0.1437 -0.0629
11144W        W27218   6.191   9.125  13.704  0.2214 -0.2096  0.2225
11145W        W27219  11.817   9.062  14.812 -0.0644 -0.0592  0.0707
11146W        W27220   3.391   8.746  15.068 -0.3963 -0.1934 -0.2026
11147W        W27221   7.215   6.640   0.942  0.0113 -0.4239 -0.0655
11148W        W27222  16.499   9.896   3.151  0.1385  0.0829  0.0414
11149W        W27223   6.434   8.138  15.074  0.1878 -0.6117  0.0295
11150W        W27224   1.198   2.624  16.089  0.1379  0.1130 -0.0358
11151W        W27225   4.421   6.568  14.093  0.5337  0.0485  0.2903
11152W        W27226  17.884   7.262  12.308  0.1353  0.0810 -0.0272
11153W        W27227   9.379   5.558   5.234  0.1854 -0.0477  0.3525
11154W        W27228   8.236  11.105  15.215 -0.0103  0.1817  0.0414
11155W        W27229  14.047   1.707   5.037 -0.2556  0.0191 -0.0247
11156W        W27230   6.446  10.021   2.435 -0.1084 -0.4413  0.1644
11157W        W27231  11.172   1.922   1.660  0.0994  0.1959  0.0809
11158W        W27232   6.947   4.007   2.482  0.0954  0.3511  0.0066
11159W        W27233   6.245  11.113  11.206  0.0358 -0.0284 -0.2592
11160W        W27234   8.279  15.481   3.866 -0.1422 -0.1794  0.0287
11161W        W27235  16.345   7.676   2.903 -0.2381 -0.1140  0.0720
11162W        W27236  13.919   3.494  13.252  0.3882 -0.2059 -0.0910
11163W        W27237  11.249   9.150   3.259 -0.0185 -0.0869 -0.0897
11164W        W27238  12.833  17.728  13.336 -0.1329 -0.4457  0.2952
11165W        W27239  15.272   7.839   2.035 -0.1463 -0.1285  0.1317
11166W        W27240   7.502   3.753   3.323 -0.0280  0.0604 -0.0880
11167W        W27241  17.387  12.365   1.379  0.0050  0.1380  0.2841
11168W        W27242   1.003  10.677   3.620 -0.2821  0.1824  0.1169
11169W        W27243   8.285  12.313   3.317  0.0413  0.2864  0.1668
11170W        W27244   6.548  14.071   5.106 -0.1311 -0.0072 -0.1670
11171W        W27245   9.870  15.751   2.992 -0.0454  0.1192 -0.0207
11172W        W27246  14.616  10.201   5.069 -0.1668 -0.4169  0.0130
11173W        W27247   5.918  15.354   2.767 -0.0333  0.2461 -0.1773
11174W        W27248  17.000  17.179  11.546 -0.2285 -0.2644  0.1638
11175W        W27249  11.814  18.214   1.339  0.1341 -0.0373  0.1125
11176W        W27250   3.967   1.210   2.487  0.2536  0.1214  0.2379
11177W        W27251  12.424   0.430   3.362  0.1443  0.1877 -0.1169
11178W        W27252   2.607  18.032  14.972 -0.1820 -0.1800  0.2712
11179W        W27253   9.689   9.357  12.574  0.0218 -0.0417 -0.0010
11180W        W27254   7.015  11.911   5.169 -0.0685  0.1360 -0.0799
11181W        W27255   2.665   0.822  14.130 -0.1951 -0.0782 -0.1957
11182W        W27256   5.054  10.353  13.339  0.0344 -0.0857 -0.1034
11183W        W27257  11.875  17.717   2.310 -0.1867 -0.1042 -0.2351
11184W        W27258  13.870  13.045  14.916 -0.0195  0.2345  0.2457
11185W        W27259  18.093  17.168   5.550 -0.0347  0.1520  0.0000
11186W        W27260   5.071  12.615   0.968 -0.3666 -0.2296 -0.0669
11187W        W27261  13.175   5.091  14.986  0.2452 -0.1054 -0.0769
11188W        W27262   3.319  12.690   1.349 -0.2361  0.1555 -0.1632
11189W        W27263  18.122   1.383  14.860 -0.1178  0.3027  0.1378
11190W        W27264  12.347   5.948  15.791  0.3922 -0.1669 -0.0799
11191W        W27265  13.007  13.033   0.214 -0.0037  0.3312 -0.0881
11192W        W27266   2.186  17.313  12.362  0.1471  0.0890 -0.2318
11193W        W27267  12.264   3.165   0.303 -0.1469 -0.0045 -0.1858
11194W        W27268   9.733  17.049   4.972  0.0736 -0.0956 -0.2614
11195W        W27269   6.858   0.392   5.019  0.0186  0.1128  0.4958
11196W        W27270  14.511  17.174   4.379 -0.1966  0.0291 -0.0700
11197W        W27271  14.702   8.789   3.416  0.0157 -0.1393 -0.1225
11198W        W27272   8.675  14.535   1.450  0.1926 -0.0372 -0.1901
11199W        W27273   0.575   8.680  11.237 -0.2644  0.1255 -0.0504
11200W        W27274   3.542   8.696   6.013 -0.0151 -0.0675 -0.0564
11201W        W27275   7.129  14.635  10.842 -0.2452 -0.0809 -0.3063
11202W        W27276  15.471   6.154  15.206 -0.2948 -0.0554  0.0591
11203W        W27277  12.325  16.019   2.614  0.1311  0.2530 -0.1401
11204W        W27278   3.782   8.213   3.107  0.0767  0.3813 -0.4055
11205W        W27279   3.462  14.177   4.501  0.2060 -0.1447  0.0236
11206W        W27280  11.996   6.666  16.300  0.1692  0.1251  0.1863
11207W        W27281   5.509   1.861  12.759 -0.1064 -0.2980 -0.4012
11208W        W27282   5.070  10.555   5.201 -0.0852 -0.2517 -0.0212
11209W        W27283   9.253   1.308  15.285  0.2595  0.0860 -0.0419
11210W        W27284  17.119   3.695   1.281  0.0576 -0.1026  0.1535
11211W        W27285   6.960  17.201   2.664  0.0678  0.1786  0.3417
11212W        W27286   8.731  13.107   3.518  0.0723 -0.0340 -0.2760
11213W        W27287   2.807   9.001   4.193 -0.1315 -0.1061 -0.3442
11214W        W27288  12.745   0.410   0.011 -0.0202 -0.0456 -0.0427
11215W        W27289  17.518   0.326   1.448 -0.2583 -0.0630 -0.0498
11216W        W27290   0.950   2.095   2.418  0.0329  0.3671 -0.0494
11217W        W27291   6.830  16.452  12.794 -0.0685 -0.1762  0.0773
11218W        W27292   3.361  17.344   3.999 -0.0739 -0.0429  0.1965
11219W        W27293  12.593   6.296   6.099  0.0319 -0.1180 -0.0498
11220W        W27294  10.184   3.620   0.106  0.0822  0.0497 -0.0862
11221W        W27295  14.140  14.550   2.863  0.0727 -0.0656  0.0042
11222W        W27296  12.303  14.522   2.517 -0.0155  0.0770  0.4485
11223W        W27297  15.128   4.469   1.642  0.0968 -0.1206  0.0249
11224W        W27298   3.498   7.949   9.876 -0.0647 -0.1459 -0.2880
11225W        W27299   8.349  11.326   3.653  0.3090 -0.1284 -0.4688
11226W        W27300  11.528   9.161   1.810  0.3165  0.3086 -0.1630
11227W        W27301   6.432   8.170  12.147  0.2594  0.0162  0.1295
11228W        W27302  11.611   6.361  11.494 -0.4553  0.2125  0.1576
11229W        W27303  18.101  14.495  13.106  0.0257  0.0647  0.2377
11230W        W27304   9.145  17.205   2.491 -0.0081  0.1703  0.0404
11231W        W27305  10.231  10.960   3.665  0.0789  0.3165 -0.0022
11232W        W27306   9.855  15.312  15.313 -0.1213 -0.0311 -0.1446
11233W        W27307  17.260  10.136   4.685 -0.0577  0.2169  0.1202
11234W        W27308  10.476  17.689  13.074 -0.1988  0.1365  0.0485
11235W        W27309   4.581  16.771   4.804 -0.2403 -0.2953 -0.0776
11236W        W27310  12.058   1.242   3.142  0.2342 -0.3306 -0.0811
11237W        W27311  14.976  10.862  15.764 -0.2345  0.2422  0.0052
11238W        W27312   4.050  17.407  16.124 -0.2134 -0.2152  0.1697
11239W        W27313   6.354  15.298   5.698 -0.2503 -0.3140 -0.1479
11240W        W27314  10.329  15.543   0.125  0.0801  0.0234  0.1193
11241W        W27315  16.450  12.017   3.566  0.4182 -0.0979 -0.0637
11242W        W27316  11.639   3.989  12.705 -0.0183  0.1321  0.2021
11243W        W27317   8.171  11.743  15.292 -0.0806 -0.0650 -0.0958
11244W        W27318   2.174  14.282  13.265  0.1875 -0.1607  0.3104
11245W        W27319  13.846  17.827  14.934 -0.0589 -0.0426  0.3225
11246W        W27320   3.060   6.061   5.542 -0.4366  0.0744 -0.1454
11247W        W27321   4.266   9.427  12.373  0.0849  0.0194 -0.1022
11248W        W27322  13.358   5.481  11.244  0.0563 -0.0220  0.0648
11249W        W27323  16.019   9.236  14.259 -0.0926  0.2231 -0.4195
11250W        W27324   6.808   8.170  11.837 -0.0376  0.0350 -0.2501
11251W        W27325  11.895   3.994   0.505 -0.1603  0.3214  0.1071
11252W        W27326  11.042   6.283   6.177  0.3652 -0.2659  0.0794
11253W        W27327   8.699   4.529   2.779 -0.1573 -0.2648 -0.2072
11254W        W27328  10.867  12.152  13.358  0.1877  0.1239 -0.1660
11255W        W27329  13.861   7.245  11.781 -0.1600  0.0871 -0.0742
11256W        W27330   3.508   6.170  15.403  0.1933  0.0002 -0.1111
11257W        W27331   9.874   3.514  16.091 -0.0889 -0.0283 -0.0033
11258W        W27332   7.170   6.163   3.333  0.1576 -0.2618 -0.2419
11259W        W27333  17.811  12.297   0.940 -0.0458 -0.2691  0.0936
11260W        W27334  17.211   0.831   6.266 -0.1927 -0.2505  0.0355
11261W        W27335  17.669   9.077   0.135  0.1506  0.4778 -0.2930
11262W        W27336   3.620   8.271  13.261 -0.1932  0.1488  0.0778
11263W        W27337  14.616   8.621  13.277 -0.1505  0.2849  0.0224
11264W        W27338  16.130  15.066   6.022 -0.0297 -0.0929  0.3111
11265W        W27339   4.421   4.518  11.895  0.1863  0.2527  0.1332
11266W        W27340   2.724  11.037  13.383  0.2571 -0.1438 -0.3372
11267W        W27341   1.490   9.876  14.892  0.0954 -0.2480 -0.0470
11268W        W27342   2.396   8.075  11.413  0.0516 -0.0154 -0.2710
11269W        W27343  16.949   7.775  11.544  0.0168  0.1947 -0.3738
11270W        W27344   5.731   4.227  13.807  0.2836  0.0426 -0.0312
11271W        W27345  13.111  17.234   0.419  0.3086  0.1834 -0.0194
11272W        W27346  15.691   4.794  12.760  0.2280  0.0085 -0.1306
11273W        W27347  15.250  11.716   0.865  0.0434  0.2058  0.1208
11274W        W27348   3.921  11.729  12.373  0.1225 -0.1385  0.1487
11275W        W27349  16.946   5.460  14.600  0.0697  0.1488 -0.0885
11276W        W27350  16.879   0.100  11.051 -0.4757 -0.0349  0.1895
11277W        W27351  10.319   1.581   4.026  0.1070  0.2541  0.0279
11278W        W27352   8.791   7.671  14.348 -0.2302  0.1802 -0.2530
11279W        W27353  13.771   9.482   2.976 -0.1071  0.2890 -0.1657
11280W        W27354  11.902  15.698  13.432 -0.2338 -0.1048 -0.1053
11281W        W27355  13.835  16.166   5.137 -0.0772  0.5073  0.1056
11282W        W27356  16.636   6.738  14.016  0.0727  0.0082  0.5032
11283W        W27357  10.789   1.468   2.585 -0.2678 -0.1198 -0.0698
11284W        W27358   6.552   8.633  11.851  0.0356 -0.2316  0.0375
11285W        W27359  11.832   9.721  13.966 -0.2091  0.0481 -0.2250
11286W        W27360   1.340   2.599   3.576 -0.0961  0.0117  0.3211
11287W        W27361   2.751  14.666  11.349  0.2208 -0.0768 -0.0353
11288W        W27362   2.117   7.569  14.254  0.1423  0.0495  0.1969
11289W        W27363  15.236   0.905   4.441 -0.1266  0.0615 -0.4172
11290W        W27364  14.948  12.921  13.385 -0.2074 -0.0598 -0.0069
11291W        W27365   1.820   0.908   2.772 -0.1691 -0.4051 -0.0158
11292W        W27366   9.246   8.731  13.101 -0.0952 -0.0845  0.1655
11293W        W27367   0.710   1.119  15.062  0.0935 -0.1147 -0.1196
11294W        W27368   8.657  15.494   5.529 -0.1293  0.1847 -0.0566
11295W        W27369   6.704   0.232  14.963 -0.0098 -0.1492  0.1650
11296W        W27370  15.890  13.375  15.321  0.2323 -0.0269 -0.0441
11297W        W27371  16.688   8.269  16.039  0.0410  0.3512 -0.1027
11298W        W27372   5.375   7.141  11.339  0.0599 -0.0632  0.1868
11299W        W27373   1.033  17.534   5.620  0.0904  0.4290 -0.1112
11300W        W27374  14.039   5.941   5.318  0.1327  0.0868 -0.1368
11301W        W27375   0.835  11.841  11.931 -0.4414 -0.1991  0.0107
11302W        W27376   0.001  13.045   4.138 -0.4081  0.0352  0.3197
11303W        W27377  15.822  11.639  15.093  0.0763 -0.0369 -0.1799
11304W        W27378   6.584  17.286   3.319 -0.1047  0.1481 -0.1423
11305W        W27379   8.112   1.559   2.855 -0.0567 -0.3341 -0.1888
11306W        W27380  13.618   1.585   2.508  0.1662  0.1466  0.0490
11307W        W27381  11.629  12.668   4.832 -0.1119  0.0202 -0.1830
11308W        W27382  16.129   0.715  11.592 -0.0388  0.0350  0.1434
11309W        W27383   9.502   0.628  15.975 -0.1286 -0.0308  0.0665
11310W        W27384   7.472  14.522  12.332  0.2103 -0.0342  0.1773
11311W        W27385   5.076   1.424   0.148 -0.2685  0.2185 -0.0953
11312W        W27386   4.694   4.878  12.430  0.2272 -0.0758  0.1953
11313W        W27387   4.732   5.780  15.470 -0.1784 -0.3041 -0.0397
11314W        W27388   3.824  14.749   3.588 -0.1808  0.1051 -0.0355
11315W        W27389   3.409  16.858  11.227  0.1898 -0.0281 -0.1347
11316W        W27390   8.363  17.943  11.959  0.0538 -0.0053 -0.1075
11317W        W27391  17.844   8.392  14.707  0.1310  0.0904  0.1983
11318W        W27392  15.072   4.968   4.647 -0.0470 -0.1809  0.1888
11319W        W27393  16.977  17.591  13.517 -0.1510 -0.1549 -0.0389
11320W        W27394   5.085  13.689   2.396  0.1908  0.2514  0.1949
11321W        W27395  10.332  11.665  15.157  0.2158 -0.2033  0.0016
11322W        W27396   3.094   0.154  12.592 -0.0828 -0.1017  0.3101
11323W        W27397  14.137   2.338   1.083 -0.0833 -0.1046 -0.1183
11324W        W27398  16.526   3.125  12.066 -0.0288 -0.3027 -0.1619
11325W        W27399   5.335   2.350  15.413  0.2420  0.0062 -0.3091
11326W        W27400  18.178   6.977  12.625  0.1950  0.0348 -0.2464
11327W        W27401   8.209  13.995   1.626 -0.4501  0.0074  0.4463
11328W        W27402  12.903  14.468   5.153 -0.0796  0.0386 -0.2072
11329W        W27403  11.262   6.108  16.390  0.1521  0.0744 -0.3521
11330W        W27404   6.296   7.584  14.762  0.3804 -0.2448  0.0390
11331W        W27405   2.286   2.363  10.325 -0.4926 -0.1295  0.1928
11332W        W27406   0.740   5.979  16.214 -0.2721  0.3793  0.2286
11333W        W27407   1.833   6.337   2.174 -0.1471  0.0842  0.1881
11334W        W27408   4.428  12.046   1.462 -0.0387  0.0033  0.0076
11335W        W27409  11.002   2.400  15.840  0.0352 -0.4585 -0.0646
11336W        W27410   6.280  14.717  11.796 -0.0716 -0.3126  0.2071
11337W        W27411  10.313   1.341   4.884 -0.3926 -0.0270  0.3114
11338W        W27412   1.716  13.324  12.260 -0.0356 -0.0154  0.1285
11339W        W27413   1.716   2.771   5.300 -0.0099  0.0460 -0.0190
11340W        W27414  15.210   8.436   5.042 -0.0931  0.3548  0.0032
11341W        W27415  16.596   2.557   0.405 -0.4170  0.0370  0.0180
11342W        W27416   6.706   1.704   2.496 -0.2047  0.0459 -0.0196
11343W        W27417   9.189  17.231   1.294 -0.1300  0.1529  0.2829
11344W        W27418  10.402  13.429  10.676  0.3036 -0.0265  0.0287
11345W        W27419   6.157   6.829  13.525  0.0428 -0.2155  0.0514
11346W        W27420  16.326  16.589  11.538  0.3990 -0.3201  0.0694
11347W        W27421  10.463  17.330   2.840 -0.1898  0.0997 -0.2150
11348W        W27422  12.676   4.068   2.493 -0.1413  0.0139  0.0644
11349W        W27423   4.592   8.455  12.743 -0.1277  0.1242  0.1812
11350W        W27424   6.216   6.001  13.713 -0.1457  0.1685  0.2175
11351W        W27425  10.571   5.219  12.304 -0.0507  0.1740  0.2702
11352W        W27426   2.778   3.243  12.796  0.1418 -0.1043 -0.0894
11353W        W27427  15.477   5.218  12.555  0.0217  0.2555  0.0304
11354W        W27428   8.607   7.826   4.079 -0.0254 -0.1512 -0.1681
11355W        W27429   4.047   8.667  13.473 -0.3395 -0.3151  0.2200
11356W        W27430  12.237   3.056  12.517  0.0623  0.0011  0.4348
11357W        W27431  17.413   9.907   1.497  0.0864  0.1484  0.1903
11358W        W27432  18.215  11.054   3.041 -0.0071 -0.4590  0.3948
11359W        W27433   3.328   4.736  16.112 -0.1489  0.2416  0.2983
11360W        W27434   1.495  16.332   5.164 -0.0690  0.2689  0.1336
11361W        W27435   4.317  11.327  15.154  0.1698  0.1256 -0.2983
11362W        W27436   7.139   5.329   4.693 -0.0433  0.1788  0.0933
11363W        W27437   3.974   6.361  15.310  0.0561  0.0648 -0.1968
11364W        W27438   2.753   6.320   1.996  0.1172  0.1942  0.1753
11365W        W27439  15.680  13.263  13.620  0.2282 -0.1772 -0.2107
11366W        W27440   6.810  13.241   5.186 -0.0404  0.0813  0.1593
11367W        W27441  13.004   5.962   4.176  0.0344 -0.0038 -0.1681
11368W        W27442  17.379  12.385   0.160 -0.2059  0.1756 -0.0307
11369W        W27443   9.239  15.894  11.812 -0.0193 -0.0107 -0.0254
11370W        W27444   4.742   1.421  12.346  0.1191 -0.0996 -0.0889
11371W        W27445   2.512   6.370  14.015 -0.1831 -0.3573  0.1146
11372W        W27446  10.113   0.783   6.745  0.0050  0.0948  0.0409
11373W        W27447   5.703  17.811  12.075 -0.1549 -0.2320  0.0456
11374W        W27448   6.874  11.904  14.516  0.4217  0.1054 -0.1753
11375W        W27449  12.475   6.557  16.264  0.1606  0.0107 -0.1639
11376W        W27450   4.048  12.931   0.889  0.3752 -0.1504 -0.0294
11377W        W27451  14.416   5.432   1.144 -0.0468  0.1875  0.0629
11378W        W27452  14.994   8.286   2.140 -0.2371  0.2057 -0.1721
11379W        W27453   3.460  12.131  11.237 -0.0514 -0.2217 -0.3879
11380W        W27454   3.652  12.754  15.342 -0.0874  0.3548 -0.2450
11381W        W27455  17.986   9.239  10.981 -0.4837 -0.3245 -0.2215
11382W        W27456   5.002   1.643   2.386  0.1881 -0.1082 -0.0052
11383W        W27457   2.483  11.408   1.900 -0.0828 -0.0118 -0.3296
11384W        W27458   5.777  15.202   3.771 -0.0632 -0.0491  0.1235
11385W        W27459  16.666  17.128   1.184  0.0517  0.1755 -0.1171
11386W        W27460   4.999   0.929   5.590  0.0471 -0.2698 -0.2366
11387W        W27461   4.495  11.514  10.789 -0.2600  0.1270 -0.2505
11388W        W27462   0.522  15.265   1.412 -0.3343  0.0678  0.0525
11389W        W27463   8.669   3.982   2.822  0.2470  0.0521  0.1905
11390W        W27464  17.047   9.036   6.374 -0.2836 -0.0695  0.3646
11391W        W27465   1.080  12.304  12.003  0.0767  0.2088  0.3543
11392W        W27466  16.436  14.964   1.593  0.1721  0.0682 -0.0601
11393W        W27467   2.350   3.242  16.322  0.0081 -0.0675  0.0351
11394W        W27468  11.167  12.746  13.363 -0.0163 -0.1355 -0.0882
11395W        W27469   1.162  10.645  11.255  0.1090 -0.0717  0.1741
11396W        W27470  14.389  18.114   0.593 -0.0199  0.0233  0.1629
11397W        W27471  17.160  14.227  15.465 -0.2242 -0.1843  0.1810
11398W        W27472  13.789   2.996  11.790  0.5328 -0.1231 -0.3556
11399W        W27473   2.250  17.615   5.772  0.1120 -0.2036 -0.1495
11400W        W27474  17.155  17.450   3.229 -0.0738 -0.1122  0.1136
11401W        W27475   2.463   1.755   2.815 -0.0284  0.3220  0.0577
11402W        W27476   1.916   8.157  13.107  0.2491 -0.2326 -0.2942
11403W        W27477   0.921   8.421  11.536  0.3633  0.0470 -0.1442
11404W        W27478   6.181   8.542  12.833 -0.0692 -0.1721 -0.2990
11405W        W27479  11.935  17.694  12.229 -0.0124 -0.0090  0.0418
11406W        W27480   0.880  13.879   5.694 -0.1023  0.5132 -0.0368
11407W        W27481   2.690   5.639   2.949  0.0879  0.1008 -0.2578
11408W        W27482  14.051   2.240  15.865  0.1004  0.3780 -0.1050
11409W        W27483   4.021  11.202   5.382 -0.1830  0.2380  0.0447
11410W        W27484   1.219   7.327   3.166 -0.2518 -0.3267 -0.0492
11411W        W27485   1.318   8.577   5.364 -0.0024 -0.1124  0.1568
11412W        W27486   5.028  15.472   2.399 -0.0149 -0.1302 -0.0863
11413W        W27487   9.159   1.286   4.192  0.3444  0.0804 -0.4057
11414W        W27488  13.527   7.051  14.173 -0.1384  0.0189  0.0984
11415W        W27489  17.832  14.257  13.456 -0.2072  0.0340 -0.1359
11416W        W27490   1.466  16.850   1.404  0.0403 -0.0297 -0.1558
11417W        W27491   9.024   9.657  13.310 -0.2000  0.0375  0.0185
11418W        W27492   5.528  14.966   5.465 -0.1936  0.1704 -0.0915
11419W        W27493   1.074   7.239   3.648  0.1823 -0.0178  0.1808
11420W        W27494  12.779  10.776  12.818 -0.0600 -0.2867  0.1690
11421W        W27495   6.315  13.068   5.399  0.1882  0.1350 -0.1091
11422W        W27496  17.542   7.160  15.145 -0.3579  0.3189 -0.2295
11423W        W27497  15.609  16.893   3.237 -0.0415 -0.1791  0.0809
11424W        W27498   7.206   5.000   1.672  0.3520  0.0055  0.0075
11425W        W27499  11.593   7.027   0.647  0.0828  0.1345 -0.0058
11426W        W27500   9.439  13.127  10.770 -0.0757  0.0089  0.0313
11427W        W27501  15.318   4.508   4.796 -0.0617 -0.3502 -0.2534
11428W        W27502   9.833   9.238   2.866  0.0064  0.1952 -0.0539
11429W        W27503  16.910  14.948   4.638  0.1116 -0.1723 -0.3458
11430W        W27504   9.030   7.026  15.647 -0.1738  0.1313 -0.1607
11431W        W27505  16.838  13.378   2.443  0.1256  0.1089 -0.0887
11432W        W27506   1.395   4.685  15.725 -0.1010 -0.1952 -0.2551
11433W        W27507  12.142  16.136   5.091 -0.0483  0.2836  0.3132
11434W        W27508  15.716  12.728  11.800  0.2918 -0.4796 -0.1975
11435W        W27509  11.874  17.023  12.667  0.1672  0.0324  0.1369
11436W        W27510  11.520  11.392   4.422 -0.3214 -0.1721  0.0921
11437W        W27511   3.415   9.819  12.421  0.0497  0.0817  0.0349
11438W        W27512   6.296  14.390   6.191 -0.0763  0.2063  0.0102
11439W        W27513  18.092   7.223   1.285  0.0828  0.1902 -0.2474
11440W        W27514   6.837  14.195  14.459  0.2115  0.1293 -0.0563
11441W        W27515   2.968   0.796   2.315 -0.2676 -0.2482 -0.1252
11442W        W27516  13.745   1.589  12.605 -0.0479 -0.1463  0.2752
11443W        W27517  10.131   6.294   2.494 -0.4471  0.0082 -0.2170
11444W        W27518  14.057   6.902  11.355 -0.0098 -0.2294  0.2451
11445W        W27519   2.042   5.683   2.094 -0.1151  0.0012 -0.2208
11446W        W27520  14.676   7.580   6.596 -0.0993 -0.0788 -0.1337
11447W        W27521  13.126  12.608  14.331 -0.0791 -0.1145 -0.1160
11448W        W27522   2.225   5.145   4.978  0.1146 -0.3557  0.0555
11449W        W27523   9.671   0.659   1.884  0.0288  0.1731 -0.1225
11450W        W27524  13.332  13.401  14.127 -0.3225 -0.1645  0.0177
11451W        W27525   3.366   1.891   0.214  0.0065 -0.2292 -0.3468
11452W        W27526   1.943   9.808  12.465  0.3680 -0.0539 -0.3027
11453W        W27527   3.613   3.482   5.163 -0.2857 -0.0000 -0.1460
11454W        W27528   2.194   6.095  16.295  0.2240  0.0150 -0.0594
11455W        W27529   3.469  15.486   4.542 -0.3254 -0.2295 -0.0953
11456W        W27530  12.060  14.840  15.517  0.1725  0.0452  0.2041
11457W        W27531   5.675   0.370  16.008 -0.1534 -0.0651 -0.0656
11458W        W27532   9.628  12.942   0.760  0.1417 -0.0680  0.2001
11459W        W27533  11.460  12.743  14.398  0.1085 -0.2808 -0.0975
11460W        W27534   7.568  14.143   4.983  0.2653  0.1413 -0.3675
11461W        W27535  11.218  16.948  13.268  0.1884  0.2435 -0.0312
11462W        W27536   5.550   1.661   6.783  0.2173  0.3633 -0.2708
11463W        W27537  12.318  17.777  16.464 -0.2493 -0.2191  0.1432
11464W        W27538   1.206  17.108  12.145 -0.0326 -0.0831 -0.3491
11465W        W27539   1.983   2.761   5.805  0.0780 -0.0211 -0.2348
11466W        W27540   0.494   1.867  12.703 -0.4337 -0.2422 -0.0877
11467W        W27541  11.325   9.628  13.952 -0.1442  0.0021 -0.2057
11468W        W27542  17.139  17.890   5.221 -0.1582  0.0549 -0.1289
11469W        W27543  15.608  15.929   5.950 -0.1793  0.0203 -0.0244
11470W        W27544  16.130   6.453  13.088 -0.1011 -0.0488  0.0739
11471W        W27545  17.682   3.957   1.187 -0.1555  0.3557  0.1008
11472W        W27546  10.101  11.203  11.900  0.1992 -0.2568 -0.1287
11473W        W27547  16.381  16.430  14.003  0.3691  0.2132 -0.2103
11474W        W27548   0.027  12.227  13.627  0.0389 -0.1158  0.1974
11475W        W27549  10.199  12.328   0.682  0.2761 -0.0218 -0.1748
11476W        W27550  14.334   9.140  16.424  0.2750 -0.1009  0.1230
11477W        W27551  12.304   7.746  11.152 -0.0290  0.1184 -0.2230
11478W        W27552  12.638   4.150  13.267  0.1572  0.2598  0.2106
11479W        W27553  13.573   3.866  14.381 -0.0578  0.0320 -0.1018
11480W        W27554   9.598  13.937   1.630 -0.2411  0.0488  0.2748
11481W        W27555  10.776   8.596  15.265 -0.0317 -0.0321  0.2077
11482W        W27556  17.613   2.876  14.860  0.1398 -0.0963 -0.4423
11483W        W27557   9.109  13.033  12.638  0.0646  0.0348  0.2203
11484W        W27558   1.667   0.970  13.917 -0.2952 -0.0773 -0.2592
11485W        W27559   2.647  17.794   4.249  0.0671  0.3520  0.1655
11486W        W27560  17.038   7.309   2.243 -0.0835 -0.4276 -0.2562
11487W        W27561   2.257   0.674   4.840  0.1552 -0.0631 -0.1038
11488W        W27562   2.218  12.231  12.909 -0.0667  0.1292 -0.0698
11489W        W27563  13.760   0.220  12.919 -0.0204  0.2697 -0.2091
11490W        W27564  17.303   1.687   1.909  0.3166 -0.1711 -0.1113
11491W        W27565   5.776  10.156   5.209  0.1865  0.0789 -0.3591
11492W        W27566   7.443  16.335  14.319  0.1257  0.0939 -0.0405
11493W        W27567   2.614  12.288  14.648 -0.3746 -0.0961 -0.1501
11494W        W27568  14.649   2.691   1.072  0.0468  0.0364 -0.1068
11495W        W27569  12.935  16.116   4.689 -0.0350  0.1399 -0.3087
11496W        W27570   5.228  16.514   0.038 -0.1347  0.0051 -0.0270
11497W        W27571   0.615   1.972  13.235  0.1248  0.0054 -0.0642
11498W        W27572   0.874  17.728  15.025 -0.0094  0.1206 -0.1433
11499W        W27573  12.587   6.396  11.720  0.1001 -0.3161  0.1787
11500W        W27574   9.684   4.878  13.662 -0.2425  0.2065  0.0222
11501W        W27575   3.221  18.246  15.430 -0.0389 -0.0965  0.0835
11502W        W27576   1.182  16.253   2.546 -0.0581 -0.1380 -0.3497
11503W        W27577  17.376   9.000  12.752  0.2663 -0.1817 -0.1578
11504W        W27578   6.930  13.469   4.014  0.0277  0.1883 -0.0241
11505W        W27579  10.136   9.363  15.502 -0.0964  0.2079  0.2309
11506W        W27580   8.244   2.127  15.681  0.1186 -0.0406  0.1210
11507W        W27581   2.348  17.418   6.198 -0.4589  0.0540  0.1738
11508W        W27582   4.346   7.423  13.614 -0.1796 -0.0090  0.2216
11509W        W27583  10.291   5.271   0.284 -0.0738 -0.0673  0.0231
11510W        W27584   5.201   6.981   1.338  0.1216 -0.3416 -0.2636
11511W        W27585  12.586   7.034   1.123 -0.0082 -0.3208  0.0765
11512W        W27586   4.785   8.679  13.984  0.2572 -0.1340 -0.2347
11513W        W27587   8.543   0.302   3.056 -0.2895  0.0217  0.2780
11514W        W27588  11.211   9.766   0.526  0.0578 -0.1579  0.1473
11515W        W27589   4.702  13.338  13.397  0.2781  0.0385  0.2546
11516W        W27590   0.811   0.886  15.883  0.0408 -0.1698  0.1299
11517W        W27591  16.464   9.505  11.792  0.2831 -0.1960 -0.0955
11518W        W27592   6.971  17.124  14.550 -0.2040 -0.1768 -0.0387
11519W        W27593   0.637   3.083   2.496 -0.2912  0.2324  0.0779
11520W        W27594   9.619  12.150   3.479 -0.0046  0.0268  0.0829
11521W        W27595  14.704   2.383  14.082  0.1974 -0.1185 -0.1609
11522W        W27596  13.581   4.405   4.957 -0.1082  0.0259  0.0780
11523W        W27597   9.336   8.361   5.752 -0.1260  0.2146 -0.0056
11524W        W27598  11.891   0.282   0.944  0.0149  0.0932 -0.0351
11525W        W27599  16.681  15.263  10.427 -0.0862 -0.0477  0.2249
11526W        W27600   2.362   8.433   3.903 -0.0263 -0.2359  0.1210
11527W        W27601  11.551   7.895   0.314 -0.2232 -0.4673 -0.0835
11528W        W27602   7.272   8.968   1.791 -0.2493  0.0864 -0.0167
11529W        W27603  16.850  15.866  10.482  0.0685 -0.1045 -0.0421
11530W        W27604   0.762  18.245  10.984 -0.0236 -0.2555 -0.2449
11531W        W27605  17.079   6.919  16.030 -0.2705 -0.0359 -0.4320
11532W        W27606   1.042  13.485   2.295  0.2981  0.1725 -0.3604
11533W        W27607  18.247   4.868  15.606  0.0004 -0.0869  0.1556
11534W        W27608   9.467   7.226  15.408 -0.0759 -0.2868  0.0702
11535W        W27609   6.707  13.462  12.185 -0.1219  0.1017 -0.1710
11536W        W27610   4.875   3.940   4.635  0.0824  0.0022 -0.2372
11537W        W27611  16.533   4.387   4.253  0.0358 -0.4850  0.0639
11538W        W27612   0.072  16.696   4.187  0.1804  0.0769  0.1208
11539W        W27613   5.691   8.806   1.047  0.2843 -0.0075 -0.0603
11540W        W27614   2.209   0.714   2.945 -0.0656  0.1574 -0.1399
11541W        W27615  15.243   3.507  13.985  0.0444 -0.1569  0.1406
11542W        W27616   9.659  17.511   4.731  0.1326 -0.0899  0.2988
11543W        W27617  17.776  18.135  11.445  0.1738 -0.0288 -0.1689
11544W        W27618   0.353  11.010  15.863  0.2502  0.2247  0.1590
11545W        W27619  14.440  13.144   0.783 -0.0315 -0.0972 -0.0360
11546W        W27620   7.897   2.880   1.585 -0.4429  0.0739 -0.0108
11547W        W27621  12.409   7.538  12.389 -0.0503 -0.0637 -0.1477
11548W        W27622  10.987  14.032   0.798 -0.0336  0.0868 -0.1554
11549W        W27623  15.566  10.430  16.472  0.0323 -0.0223 -0.1427
11550W        W27624   2.014  15.448  10.687 -0.2754 -0.0334  0.1003
11551W        W27625   6.325  10.984   2.618 -0.1506  0.4315  0.4362
11552W        W27626   0.090   2.739   0.509 -0.1796  0.0474  0.0786
11553W        W27627  17.551   7.390  15.642  0.0998  0.1304 -0.0589
11554W        W27628  17.108   2.998  15.636  0.2487  0.1210  0.0678
11555W        W27629   1.252   1.039  16.135  0.1071  0.2995  0.1319
11556W        W27630   4.242   4.090  12.035  0.0233 -0.0702  0.1375
11557W        W27631  14.603  12.272   1.153 -0.0361  0.2359  0.1518
11558W        W27632  10.236  14.649   4.924 -0.1943  0.1454  0.0761
11559W        W27633   9.362   4.089   4.668 -0.2552 -0.2579 -0.0575
11560W        W27634  15.116   2.395  14.865  0.0666 -0.1073  0.0630
11561W        W27635  16.468   0.820  11.244  0.2900  0.1523 -0.0737
11562W        W27636   1.638  15.449  15.636  0.0662 -0.0154 -0.2197
11563W        W27637  13.751   9.665  13.911 -0.2216  0.0233 -0.0789
11564W        W27638   5.301  15.346   4.458 -0.0414 -0.0842  0.2309
11565W        W27639  16.004  11.859  13.053 -0.0921 -0.0447  0.1532
11566W        W27640  15.762   0.358   1.120 -0.1105 -0.1368  0.1536
11567W        W27641   6.037  15.476   5.216  0.0748 -0.0553  0.3104
11568W        W27642  17.426  10.215  15.257 -0.2088  0.0096  0.2532
11569W        W27643  15.039  12.300  12.326  0.0048  0.1341  0.1234
11570W        W27644   2.696  11.895   4.991  0.1406 -0.1956  0.1983
11571W        W27645   3.188  16.757   3.971 -0.0012  0.0422  0.2619
11572W        W27646   2.703   4.094  12.074 -0.0748 -0.0302 -0.3009
11573W        W27647  17.462   5.849  10.502 -0.3514  0.2223  0.1383
11574W        W27648  15.361   9.412  15.288  0.0433 -0.0893  0.1580
11575W        W27649   7.327   9.049   3.643 -0.0510  0.2342 -0.0187
11576W        W27650  13.460   4.466  11.785 -0.2044 -0.0925  0.1456
11577W        W27651   3.893   0.974  14.820 -0.1929 -0.0602  0.0502
11578W        W27652   3.953   8.238   5.448  0.0541 -0.0614  0.2220
11579W        W27653  11.106   0.610  11.278  0.1525  0.1484 -0.1291
11580W        W27654   6.158  17.254  14.868  0.0180  0.1577  0.2561
11581W        W27655   9.261  10.923  16.369 -0.0719  0.3586  0.3687
11582W        W27656   4.466   2.220  14.129  0.0622  0.1765 -0.0369
11583W        W27657  11.957  14.943   2.290  0.0344 -0.3194 -0.4495
11584W        W27658   7.588   3.641   6.204 -0.0056  0.4463  0.0268
11585W        W27659  18.088  12.424   1.386 -0.1630  0.0472  0.2009
11586W        W27660  13.727  12.362  15.663  0.0767 -0.0624  0.0031
11587W        W27661   6.479   8.215  13.616 -0.1324  0.0306 -0.1228
11588W        W27662   3.892  14.937  14.686  0.1887 -0.1868 -0.0751
11589W        W27663  13.029  11.885  14.287 -0.0230  0.0189 -0.6067
11590W        W27664   0.719   5.906  15.322  0.0673 -0.0311  0.0260
11591W        W27665  13.182  13.109   5.395 -0.1624  0.2431 -0.0391
11592W        W27666   5.835  15.872   3.390 -0.2865  0.0855 -0.0894
11593W        W27667  17.870   5.167  15.575 -0.1952  0.3520  0.0124
11594W        W27668   9.337   7.487  12.312  0.3461  0.0502  0.2713
11595W        W27669   7.989   2.117  12.521 -0.0236  0.0710 -0.3709
11596W        W27670  11.979   9.180  15.664 -0.5176  0.0195 -0.1019
11597W        W27671  10.524  11.714  13.909 -0.0008  0.2602  0.3626
11598W        W27672  12.352  15.744   6.228 -0.2262 -0.0447  0.3575
11599W        W27673  11.640   6.543   1.586 -0.1776 -0.0768 -0.2075
11600W        W27674   4.378   2.687  13.242  0.0217 -0.3197 -0.0590
11601W        W27675   8.412  13.553   4.374  0.0765 -0.2548  0.2127
11602W        W27676  13.396  17.923  15.293  0.0244 -0.1097 -0.0489
11603W        W27677  16.063   4.391  15.461  0.2422 -0.1210 -0.0426
11604W        W27678   3.765  16.669  11.982 -0.0948 -0.0675 -0.1860
11605W        W27679  11.666  13.264   2.148 -0.0907  0.3139  0.2239
11606W        W27680  10.328   4.327   4.428 -0.2192 -0.1864 -0.2816
11607W        W27681  12.071   9.921   0.289  0.0622 -0.2295  0.0738
11608W        W27682   9.902   7.217   1.529  0.0074 -0.1045 -0.2269
11609W        W27683  17.414   4.309  12.347 -0.1597  0.5567 -0.2911
11610W        W27684   2.287   5.995   1.745 -0.0564  0.0177 -0.2473
11611W        W27685   4.678   8.903   0.908 -0.1349  0.1640 -0.1707
11612W        W27686   1.597   6.468   1.528 -0.2147 -0.0353 -0.1793
11613W        W27687   0.625  14.704   0.434 -0.0726  0.1587  0.1091
11614W        W27688  15.581  12.213  13.761  0.0375  0.1385 -0.3113
11615W        W27689  15.466  15.464  13.278  0.1211  0.2098 -0.3369
11616W        W27690   7.941   9.773  13.395 -0.0948  0.1154 -0.0750
11617W        W27691   8.397   8.061  11.602  0.0077  0.0227  0.3261
11618W        W27692   8.712   6.322   1.903  0.2208  0.2312 -0.3483
11619W        W27693  13.541   5.086  13.670 -0.4376  0.0673  0.1214
11620W        W27694   8.688   7.160   3.679  0.0566  0.1412  0.1478
11621W        W27695   5.034  16.180   1.725  0.2541  0.0763 -0.0426
11622W        W27696   3.106  13.432  14.050  0.0748  0.3759  0.2542
11623W        W27697  15.301  12.721   4.147  0.0840 -0.0103  0.1255
11624W        W27698   3.693   2.391   1.665  0.2137  0.1544  0.1049
11625W        W27699   0.334   9.592  15.738  0.1581  0.1547 -0.1384
11626W        W27700  11.029   2.604   0.196  0.0072  0.0870 -0.2726
11627W        W27701  15.534   8.415   0.221 -0.2697 -0.0028  0.0542
11628W        W27702  10.712  15.310  16.279 -0.0955  0.4185 -0.0851
11629W        W27703  14.807  11.189   4.828  0.0644  0.1811 -0.1444
11630W        W27704  12.182   1.352  14.559 -0.4604 -0.2998  0.0129
11631W        W27705  17.067   3.034   1.936  0.3379  0.2823  0.0302
11632W        W27706   7.115  11.386   5.239 -0.1976 -0.1334  0.3176
11633W        W27707  11.422  11.060   1.010 -0.0145  0.1713  0.5127
11634W        W27708  10.795  13.824  13.148  0.0349 -0.2036  0.2262
11635W        W27709  12.909   2.851  14.969 -0.1470  0.3140  0.2289
11636W        W27710  11.315   5.035   4.211 -0.0384  0.0204  0.1165
11637W        W27711   1.494  15.529  13.148 -0.0031 -0.0539  0.0711
11638W        W27712  15.969  14.845   2.486  0.0366  0.1652  0.1071
11639W        W27713   9.382   6.941   3.798 -0.2494 -0.0835  0.1243
11640W        W27714   6.728  13.704  10.789 -0.3746 -0.0458  0.3048
11641W        W27715   5.635  14.190  16.006  0.2627  0.0017  0.0395
11642W        W27716  11.812  14.333  13.831 -0.1026  0.1911 -0.1243
11643W        W27717   3.878   8.821   2.706 -0.2383 -0.1071 -0.1421
11644W        W27718  13.072  13.582   1.938  0.0361 -0.1982 -0.2074
11645W        W27719   6.373   2.464  11.601 -0.1304 -0.1519  0.0770
11646W        W27720   7.804  17.902   3.782 -0.0154  0.0345  0.2698
11647W        W27721  18.155   1.074   0.411 -0.1238  0.0050  0.1052
11648W        W27722   4.137   1.379   1.722 -0.1835  0.0805 -0.0416
11649W        W27723   2.099   6.584  12.418 -0.0893 -0.3894  0.3249
11650W        W27724  10.544  12.809   0.585  0.1614  0.2416  0.0084
11651W        W27725  13.520   3.308   5.690  0.3901  0.3297 -0.1939
11652W        W27726  15.277   7.098  13.374 -0.1266  0.0922 -0.0640
11653W        W27727  14.595  17.605  10.245 -0.1189 -0.0505  0.2502
11654W        W27728   8.530   6.410  16.264  0.1085 -0.1515 -0.0237
11655W        W27729   0.634  10.608  14.702  0.2860  0.2584 -0.2709
11656W        W27730  11.510  16.744   2.140 -0.0872  0.2257  0.2039
11657W        W27731   7.261  18.014   4.572 -0.0973 -0.2531  0.3171
11658W        W27732   6.057   9.812   2.225 -0.0981  0.0995 -0.2588
11659W        W27733  11.679   6.930   1.157 -0.0409 -0.1537  0.3619
11660W        W27734   9.204  16.632   0.039  0.1639  0.0706 -0.0414
11661W        W27735   9.521   9.932  14.480  0.0056 -0.1348  0.0284
11662W        W27736  14.830   5.127   1.057  0.1634 -0.0055 -0.0264
11663W        W27737   9.961   8.928   5.119 -0.0449  0.2472 -0.1546
11664W        W27738  11.693  10.545   2.088  0.3691  0.2272  0.0068
11665W        W27739  18.043  12.455   5.470 -0.1218  0.3348 -0.2028
11666W        W27740   5.973   1.895  14.326  0.1342 -0.4384 -0.3103
11667W        W27741   6.296   9.753  10.818 -0.1131 -0.0381  0.0117
11668W        W27742   8.763   6.459   5.546 -0.0655 -0.0040 -0.3417
11669W        W27743   2.719  15.932   2.736  0.0302 -0.4229 -0.2005
11670W        W27744  15.651  13.740  15.051 -0.4136  0.3640  0.1248
11671W        W27745   3.885  17.916   4.575  0.0989  0.1820  0.0793
11672W        W27746  10.161  13.613  12.951 -0.1552 -0.0495 -0.3230
11673W        W27747   7.898  12.629   3.229  0.0128 -0.0193  0.0314
11674W        W27748   4.422  18.136  12.509 -0.0875  0.2510  0.1879
11675W        W27749   2.323  16.806  13.925 -0.1303 -0.0356 -0.0780
11676W        W27750  11.494   1.255  13.023 -0.0485  0.2179 -0.1251
11677W        W27751   1.203  18.047  13.185  0.0345 -0.0471  0.2939
11678W        W27752  11.480   2.472   4.915  0.2521 -0.0278  0.0294
11679W        W27753  11.314  17.871   5.472 -0.3913  0.0851  0.1172
11680W        W27754   4.419  10.096  14.563 -0.0254 -0.1582 -0.1582
11681W        W27755   1.469  16.142  11.801  0.0580 -0.2045  0.2051
11682W        W27756   3.196  10.282   5.864 -0.2849  0.2530  0.2985
11683W        W27757   7.062  10.534   4.947  0.1604 -0.2171 -0.1733
11684W        W27758   4.856   4.753   0.795  0.2461  0.0708  0.0961
11685W        W27759  13.616   0.817  12.458  0.0066 -0.0496 -0.1939
11686W        W27760   2.214  15.839  12.202 -0.2262  0.2025  0.0032
11687W        W27761   0.409  17.115   5.491 -0.0024 -0.3417 -0.2870
11688W        W27762   9.872   7.400   5.607 -0.2104 -0.0213  0.0874
11689W        W27763  10.232  15.378  16.092  0.1137  0.1122 -0.0859
11690W        W27764   9.206  15.121   6.518 -0.0762  0.0238  0.0723
11691W        W27765  15.277   3.317   2.438 -0.0477  0.0270  0.0288
11692W        W27766  11.351   6.374  12.698 -0.0889 -0.0130 -0.4154
11693W        W27767   2.678  15.418   4.195 -0.3807  0.0678 -0.3630
11694W        W27768   4.174  14.053  15.084 -0.0901 -0.0852 -0.1843
11695W        W27769   3.613   1.968  11.480  0.0452  0.1244  0.2203
11696W        W27770   3.007  11.907  12.380  0.0498 -0.0298  0.2880
11697W        W27771   1.928   0.576  15.395  0.1774  0.1781 -0.2485
11698W        W27772   3.633  12.651   5.487 -0.0338  0.0007  0.0260
11699W        W27773   1.988  15.628  13.762  0.1708 -0.1346  0.2744
11700W        W27774   6.247   4.925  15.036  0.0921  0.2166 -0.1194
11701W        W27775   2.579   1.278   2.971 -0.2833 -0.1314  0.0493
11702W        W27776  13.267  14.732  11.835 -0.0929 -0.0309  0.4626
11703W        W27777   6.257  14.169   4.725  0.2122  0.0018  0.1010
11704W        W27778   0.081   2.186   4.814  0.2345 -0.1970 -0.3932
11705W        W27779  17.592  13.221   1.880  0.1528 -0.0591  0.0109
11706W        W27780   6.403  16.336   1.374 -0.0659 -0.0918 -0.0177
11707W        W27781  15.939  11.939  15.893 -0.0140 -0.3061  0.2007
11708W        W27782  14.537  17.293  15.779 -0.0698 -0.1554 -0.0093
11709W        W27783  10.211   0.996   5.286  0.1553 -0.2077  0.1719
11710W        W27784  11.090   2.358   4.559 -0.2238 -0.2174 -0.1410
11711W        W27785  17.544  14.640  13.080 -0.0613  0.1605 -0.1620
11712W        W27786  15.136  17.085   3.104 -0.1505 -0.1760  0.3317
11713W        W27787   5.805   1.681   5.326  0.0305  0.2299  0.0996
11714W        W27788  13.595   6.533  15.051 -0.1720  0.1214 -0.1265
11715W        W27789  14.758   4.021   5.988  0.2346 -0.0074 -0.0021
11716W        W27790   6.468  12.920  14.147  0.1797 -0.0255 -0.1992
11717W        W27791   3.637  15.194  16.348  0.2333  0.2316  0.2822
11718W        W27792   8.531   6.787   1.888  0.2130  0.0124  0.1295
11719W        W27793   0.874   1.609   4.699 -0.3270  0.1560 -0.1360
11720W        W27794  16.355   6.564   3.965 -0.4025 -0.4609  0.0859
11721W        W27795  16.035   6.116  15.172 -0.0249  0.1075 -0.1291
11722W        W27796  13.902   9.883  14.738  0.1906  0.0323 -0.1670
11723W        W27797  17.285   4.539   2.399  0.0488 -0.4035 -0.0105
11724W        W27798   2.460  17.454   1.683 -0.2743 -0.0740 -0.2531
11725W        W27799  18.206   9.207  15.795  0.0742  0.1116 -0.0041
11726W        W27800   3.364   8.773  16.355  0.3319 -0.1911 -0.0767
11727W        W27801   8.815  10.054  16.496  0.1693  0.1041  0.2714
11728W        W27802   5.636  13.408  12.190 -0.1084 -0.0464  0.1740
11729W        W27803  11.474   3.285   4.357 -0.0955  0.0842  0.1579
11730W        W27804   7.276  12.253   1.895  0.0156  0.5314 -0.0410
11731W        W27805   9.727  17.245  12.397  0.0848 -0.1071  0.0412
11732W        W27806   0.610  12.476   0.945  0.0286 -0.3055 -0.0953
11733W        W27807   9.508  15.951   1.675 -0.1628  0.2571  0.1482
11734W        W27808   4.720  10.922  12.527  0.1192  0.2425  0.0727
11735W        W27809  15.231   0.134   2.431 -0.2643 -0.1644 -0.1635
11736W        W27810  10.277  17.339  14.142 -0.1242 -0.2500 -0.1051
11737W        W27811   8.464   3.483  13.371 -0.2123 -0.0212 -0.2701
11738W        W27812  10.514   3.586  13.289  0.4101 -0.0545 -0.0562
11739W        W27813   3.177  15.456   2.529 -0.5836  0.0275  0.5323
11740W        W27814   8.007   4.968  13.291 -0.1191 -0.2835  0.0366
11741W        W27815  14.903   7.123   4.017 -0.2143 -0.1656  0.1860
11742W        W27816  14.300   3.449  16.225 -0.1984  0.2700 -0.1883
11743W        W27817  12.118   0.856  15.929  0.0889 -0.0604 -0.0836
11744W        W27818  10.661   6.741   0.324  0.0314 -0.0788  0.1420
11745W        W27819   5.272  12.547   2.793 -0.2588  0.2560 -0.0367
11746W        W27820  15.491  14.570   2.677 -0.2165  0.0845  0.2243
11747W        W27821   6.713   1.121   5.850  0.1752  0.2330  0.1906
11748W        W27822  11.718  10.451   1.078 -0.1846 -0.1454  0.2087
11749W        W27823   9.769   9.077   2.038  0.1156 -0.0918  0.0500
11750W        W27824  12.119   6.557  13.019  0.1085 -0.0324  0.0840
11751W        W27825   9.357   9.783  14.934  0.2483 -0.0619 -0.4893
11752W        W27826   7.735   4.266   1.161 -0.1094  0.0736  0.1380
11753W        W27827  14.294  11.487  12.961 -0.3004 -0.0874 -0.1664
11754W        W27828  11.880  14.329   0.194 -0.2083 -0.0760  0.3035
11755W        W27829  12.565   3.040   1.649 -0.0552 -0.1335 -0.3503
11756W        W27830  15.920   2.126  13.367 -0.1078  0.1208  0.0339
11757W        W27831  11.853   1.754  13.653 -0.1193  0.0703  0.1791
11758W        W27832   1.752  15.517   2.311  0.1612 -0.3987 -0.2967
11759W        W27833   2.866  12.013   5.448  0.0585 -0.1175 -0.1516
11760W        W27834  12.694  11.467  12.701  0.1081  0.2480  0.2000
11761W        W27835  11.615  11.642  14.660 -0.2981 -0.0931  0.1710
11762W        W27836  13.144  11.294  10.146 -0.3326  0.1645 -0.0825
11763W        W27837  15.558  11.794  16.490  0.1549 -0.1802 -0.1555
11764W        W27838   2.153   2.584  13.836  0.1380  0.3080 -0.0851
11765W        W27839   5.142  15.484  14.462 -0.0518 -0.3114  0.3585
11766W        W27840  10.330  11.172  12.969 -0.2361 -0.1767  0.0333
11767W        W27841  13.225   3.910   0.433  0.1531  0.0918 -0.2680
11768W        W27842   5.086   5.845   1.792 -0.1500 -0.1498 -0.0402
11769W        W27843   5.048   7.322   1.671  0.3053 -0.1342 -0.1959
11770W        W27844   2.344   5.652   2.493  0.3808 -0.1994  0.0903
11771W        W27845  15.759  11.475  12.841  0.0348 -0.1100  0.1483
11772W        W27846  17.371  11.468   1.207  0.0237  0.0592  0.1803
11773W        W27847   8.819   2.428   1.362 -0.0846 -0.1559  0.1192
11774W        W27848  17.023   3.970  13.676  0.1016 -0.3582  0.1330
11775W        W27849  14.512   6.150   2.363 -0.1564  0.1473 -0.2685
11776W        W27850   9.801   4.774  13.225  0.2151 -0.2305 -0.3983
11777W        W27851   1.057   6.499  14.443  0.1649  0.0487 -0.0368
11778W        W27852   0.677   8.501   0.224  0.1254  0.3134  0.0330
11779W        W27853  17.619   4.893  13.470 -0.1653  0.0742  0.1908
11780W        W27854  15.717   8.023  16.382  0.2447  0.0110  0.3686
11781W        W27855  10.932  14.808   0.099 -0.4918 -0.1806 -0.0857
11782W        W27856   7.385   9.732   0.980 -0.0201 -0.0673 -0.2086
11783W        W27857   0.819   8.071   0.748 -0.0804 -0.1592 -0.1677
11784W        W27858  13.658   7.425   0.331 -0.0025  0.0377 -0.2231
11785W        W27859   1.274   2.956   0.540 -0.0548 -0.1642 -0.2566
11786W        W27860  12.787   0.860   1.662 -0.0667 -0.1386 -0.1259
11787W        W27861  18.020  12.588   4.321 -0.3155  0.1305  0.6006
11788W        W27862  10.893   8.493   0.793 -0.1522  0.1997  0.4103
11789W        W27863  12.211   0.218   0.570 -0.0555  0.1128 -0.0024
11790W        W27864   7.783   6.390  11.881  0.0417  0.0453 -0.1144
11791W        W27865  15.165  10.637  12.570  0.3251  0.1744  0.1582
11792W        W27866   4.505  15.615   4.736 -0.0046 -0.1212 -0.6123
11793W        W27867   7.490  11.788   2.689 -0.1857 -0.1750 -0.0908
11794W        W27868   8.525   2.377   0.363 -0.1834 -0.0969 -0.3794
11795W        W27869   0.152  13.934   1.564  0.2659 -0.2128  0.1307
11796W        W27870  15.234   6.500  14.960  0.4532 -0.0140 -0.0110
11797W        W27871   2.822  11.223   0.186  0.1444 -0.2439 -0.0033
11798W        W27872   8.792   2.257   4.159  0.0009  0.2340 -0.1145
11799W        W27873   8.189   0.324  13.898  0.0979  0.0707 -0.2417
11800W        W27874   5.466  13.510   1.560  0.4353 -0.0998 -0.0911
11801W        W27875   2.819  16.827  16.189 -0.0295 -0.2539  0.3783
11802W        W27876  13.884   7.755  14.767 -0.3290  0.2359  0.0103
11803W        W27877   2.757  13.896  15.698  0.3070 -0.1497 -0.0356
11804W        W27878   1.542   4.410  15.303 -0.2038 -0.0750  0.2780
11805W        W27879   8.497   6.922  16.294 -0.2485  0.1205 -0.0989
11806W        W27880   1.267  17.496   4.071  0.0801 -0.4465 -0.1999
11807W        W27881  13.032  16.025   3.812 -0.2015 -0.1903 -0.0190
11808W        W27882  16.880   2.172   2.590  0.3194 -0.3805 -0.1021
11809W        W27883  11.692   6.803  12.839 -0.0809  0.1079 -0.1501
11810W        W27884   2.578   7.543  16.405  0.1463  0.1030 -0.3781
11811W        W27885   2.815   4.925  15.980 -0.0190  0.1039  0.1038
11812W        W27886   9.542  14.493   4.336  0.1944  0.0744 -0.2029
11813W        W27887  11.884   7.314  13.815  0.0287 -0.2144  0.0715
11814W        W27888   4.445   4.457   2.057  0.0230  0.0231  0.2274
11815W        W27889  14.832  11.350  12.291 -0.2158  0.0113 -0.0590
11816W        W27890   1.670  10.923  13.862 -0.2955 -0.1334 -0.1270
11817W        W27891   4.960   8.837   4.195  0.1584 -0.3908  0.0718
11818W        W27892  12.043  13.967  12.594 -0.1809  0.0807 -0.2122
11819W        W27893   6.851  11.861   0.256 -0.0340 -0.0498 -0.0226
11820W        W27894  17.277  13.802  15.758  0.3579 -0.1988 -0.1346
11821W        W27895   1.765  10.153   4.819  0.0675  0.0166 -0.0532
11822W        W27896   4.676   6.626   0.195 -0.3434 -0.0140  0.1107
11823W        W27897  14.712   8.858  15.529 -0.1359  0.0662 -0.0953
11824W        W27898  16.868  10.043   1.621 -0.0977 -0.1515 -0.0021
11825W        W27899   7.455   5.972  16.117 -0.1002  0.1448  0.0148
11826W        W27900   9.762   2.289  14.356 -0.1874 -0.1304 -0.2076
11827W        W27901  14.018   7.561  15.659  0.2005  0.5099  0.1368
11828W        W27902  16.679   7.291  14.285  0.4661 -0.1388  0.0525
11829W        W27903   9.478   7.205   5.278  0.0874  0.1496  0.0312
11830W        W27904  11.576  12.344   2.234 -0.3009  0.1043  0.2611
11831W        W27905   7.764   7.961   2.415  0.1173  0.0993  0.2999
11832W        W27906   4.387  12.719   4.545  0.0158  0.1608  0.0052
11833W        W27907  10.754   9.960  14.599 -0.2395  0.0056  0.0918
11834W        W27908  14.545   6.830  12.687  0.3758  0.2738  0.1544
11835W        W27909   3.164   8.556   3.367 -0.0110  0.2244 -0.3827
11836W        W27910   2.737   2.936  12.032 -0.0883 -0.0733 -0.2759
11837W        W27911   4.872  14.647  16.068  0.1943 -0.0571 -0.2590
11838W        W27912   2.419   6.044   2.912 -0.0858  0.2900 -0.1152
11839W        W27913   0.201  13.535   3.722  0.1662 -0.4077  0.0068
11840W        W27914  13.078   0.402   1.478 -0.0954 -0.2578 -0.1967
11841W        W27915  16.462   0.382  15.537  0.1163 -0.0689  0.1301
11842W        W27916   0.457  17.193  12.882  0.1455 -0.0575  0.0616
11843W        W27917   8.100  12.968  10.345 -0.3267 -0.2006 -0.1595
11844W        W27918  17.832  10.553   3.907  0.0917 -0.2161  0.3268
11845W        W27919   6.272  10.767   1.733  0.0198  0.0744 -0.0159
11846W        W27920  11.686   0.627   4.729  0.0899  0.1801 -0.1605
11847W        W27921  12.379  11.391  15.814 -0.0625  0.0590  0.0622
11848W        W27922  17.114   5.051  16.080 -0.0376  0.2985  0.1670
11849W        W27923  11.362   3.322  11.537  0.1763 -0.0403 -0.3131
11850W        W27924   6.310   0.353  13.282 -0.0719 -0.0762  0.1939
11851W        W27925   4.422  14.563  12.085  0.0332  0.0827 -0.0094
11852W        W27926   0.404   9.169  11.960 -0.1484 -0.2630 -0.0210
11853W        W27927  12.746   7.157  14.809 -0.1649 -0.5801 -0.0977
11854W        W27928  11.494  12.663  16.215 -0.3052  0.0172 -0.2149
11855W        W27929  18.232  12.760  13.662  0.1823 -0.1709  0.1672
11856W        W27930  13.219  10.635  12.625  0.0362 -0.2037  0.0871
11857W        W27931   4.571   5.263   4.649  0.1811 -0.0331 -0.1739
11858W        W27932   5.300  16.018   3.128 -0.1049  0.2676  0.2680
11859W        W27933  16.657  14.499  14.886 -0.1963  0.2432  0.1618
11860W        W27934   5.691   5.393  15.769  0.3240  0.3237 -0.0619
11861W        W27935  14.088  17.528  15.919  0.0308  0.2590  0.3194
11862W        W27936   0.559   6.185   5.964  0.2739  0.2684  0.2571
11863W        W27937  18.070  15.900   2.616  0.2917  0.0754 -0.1602
11864W        W27938  18.123  12.924   1.262 -0.0557  0.0854 -0.2920
11865W        W27939  17.478  12.868  12.514 -0.3409  0.1226 -0.0748
11866W        W27940  15.572  13.778  13.677 -0.2987 -0.0354 -0.0130
11867W        W27941  13.136   6.323  13.232  0.1524  0.0239 -0.1256
11868W        W27942   4.426   7.587   0.214 -0.1705 -0.1745  0.0076
11869W        W27943   7.642  15.392   5.586 -0.1207 -0.0113 -0.1680
11870W        W27944   2.387  11.957   2.053 -0.4253 -0.0460 -0.3748
11871W        W27945  11.623   4.396   6.019  0.0586  0.1582 -0.0004
11872W        W27946   7.019   5.950   0.661  0.2026  0.1492 -0.0221
11873W        W27947  12.569   0.431   4.712 -0.0751 -0.0096  0.4407
11874W        W27948   8.314   1.638  15.794  0.3739 -0.0823  0.0955
11875W        W27949   2.804  12.157   2.797 -0.3179  0.3319  0.2182
11876W        W27950   0.841  13.272  13.003  0.1028 -0.0480  0.3591
11877W        W27951   5.383  13.839  14.042  0.1321 -0.1335  0.1287
11878W        W27952  13.195   0.384   3.712 -0.0068 -0.2220 -0.0258
11879W        W27953  15.367   8.006   3.520 -0.0261 -0.0186 -0.1299
11880W        W27954  11.157   2.815  13.111  0.1725 -0.4391 -0.0198
11881W        W27955   3.547   6.865   5.757 -0.1512 -0.1652  0.1225
11882W        W27956   5.926   3.442  15.560 -0.1512 -0.2050 -0.2629
11883W        W27957   0.540   9.132   3.159 -0.0233 -0.3520  0.0744
11884W        W27958   0.732   8.980   2.306  0.4030  0.2002 -0.2785
11885W        W27959   2.094  11.524   1.390 -0.1331  0.2483  0.1345
11886W        W27960  14.010   5.506   2.600 -0.0236  0.0889 -0.0417
11887W        W27961  13.513   9.048  14.091 -0.2165  0.2216  0.0044
11888W        W27962   3.508   8.395  15.960 -0.0368  0.1707  0.1333
11889W        W27963  12.672   0.397  12.756  0.1894  0.0889 -0.0425
11890W        W27964   9.039  10.200   6.062 -0.2859  0.3232 -0.3610
11891W        W27965  12.473  11.537   4.861  0.2685  0.0238  0.1423
11892W        W27966   2.511   0.819   3.938  0.1256 -0.0221  0.1635
11893W        W27967   7.384  12.717   3.002  0.2118 -0.1711  0.1448
11894W        W27968   4.496   2.191  16.022 -0.0807  0.3288 -0.0553
11895W        W27969  13.998  13.005  12.403 -0.1762 -0.0490 -0.1503
11896W        W27970  16.727   5.581   4.664  0.1386  0.0932  0.0726
11897W        W27971   3.643   1.887   4.758  0.2522  0.0322  0.1061
11898W        W27972  12.423   7.823   1.763 -0.0984  0.2156 -0.2129
11899W        W27973  14.231   4.826  15.931 -0.2860  0.0242 -0.1392
11900W        W27974  15.358   0.380  14.781 -0.0748 -0.0453  0.1321
11901W        W27975  13.206   2.797   0.902 -0.0251 -0.1200 -0.1389
11902W        W27976   1.793   1.917   6.022 -0.2321  0.0318  0.1777
11903W        W27977   0.891  16.714   4.539 -0.0852  0.1615  0.0560
11904W        W27978  18.158  17.999  13.772 -0.1583 -0.1925 -0.3027
11905W        W27979  16.542   7.492  12.589  0.0196  0.1089  0.1432
11906W        W27980  14.103   3.989   1.346  0.1970 -0.2059 -0.0631
11907W        W27981  16.913  12.366   1.603 -0.1183  0.1618 -0.0459
11908W        W27982   0.710   1.522  13.487  0.2147  0.0915  0.0781
11909W        W27983  14.324   2.064   0.680  0.4735  0.0788  0.1511
11910W        W27984   9.106  12.882  13.963  0.1272 -0.3308 -0.0637
11911W        W27985  17.174  13.945   0.197  0.1076 -0.3425 -0.1388
11912W        W27986   9.365   5.211   0.020  0.0607  0.0304  0.0580
11913W        W27987   8.076   6.836  13.095 -0.1521 -0.2164  0.3995
11914W        W27988   7.015  17.438  12.919 -0.1697  0.0487  0.0168
11915W        W27989   7.269   5.586   1.416 -0.0882 -0.0063  0.0164
11916W        W27990  18.179  15.082   3.625 -0.1599 -0.1466 -0.1897
11917W        W27991  16.508   3.881   5.937  0.2543 -0.3521 -0.1236
11918W        W27992   7.957   0.216  16.383  0.0377  0.0657  0.3045
11919W        W27993  12.497   8.566   4.521 -0.1738 -0.1194 -0.1884
11920W        W27994   6.687   5.502  16.249  0.2529  0.0314 -0.2487
11921W        W27995  14.200  10.883  13.940  0.0262  0.0111  0.0951
11922W        W27996  12.583   6.094   1.118 -0.0221 -0.0502 -0.1764
11923W        W27997   0.369  15.541  15.679 -0.1644 -0.0248 -0.2426
11924W        W27998   1.045  10.282  12.277  0.0091  0.2745 -0.1840
11925W        W27999  16.783  11.673  13.680  0.1085  0.0482  0.1268
11926W        W28000  13.778  10.955   1.887  0.0268  0.0159  0.0451
11927W        W28001  11.314   7.943  13.254 -0.1987  0.3280 -0.2626
11928W        W28002  12.153  12.750   3.532 -0.0380 -0.1747  0.2147
11929W        W28003   5.832   3.046   1.736  0.3053  0.3182  0.2103
11930W        W28004  15.616   5.683  12.439 -0.0241 -0.2636 -0.1221
11931W        W28005   8.925   4.927   1.318  0.0860  0.1489  0.0193
11932W        W28006  16.559   7.219   2.541 -0.0216 -0.2626 -0.2742
11933W        W28007   8.593  17.941   1.751 -0.0710 -0.1342 -0.0978
11934W        W28008   3.582   7.658   3.900  0.1553  0.1097  0.2626
11935W        W28009   2.537  13.026   1.559  0.2812  0.0034  0.0916
11936W        W28010   7.092   9.047   3.184  0.0239  0.3129 -0.0751
11937W        W28011   0.621   9.706  13.400  0.0648 -0.3830 -0.0328
11938W        W28012   5.798  13.548   5.224  0.1350  0.0194 -0.0521
11939W        W28013  14.403   1.439   0.056  0.5005 -0.0856 -0.0089
11940W        W28014  10.869  15.834   1.928  0.0464 -0.0568 -0.0333
11941W        W28015   1.900   2.173   3.072 -0.1795 -0.3222 -0.0878
11942W        W28016  15.897  14.319  11.694  0.2523 -0.1248 -0.1741
11943W        W28017   0.691   7.090  11.720  0.0744 -0.2247 -0.2436
11944W        W28018  15.351  11.788   4.121 -0.0294  0.0537  0.2418
11945W        W28019  13.543  11.810   1.159  0.1870 -0.1666 -0.3640
11946W        W28020   3.402   0.898   1.239  0.2863 -0.1249 -0.0315
11947W        W28021  17.357   0.524   2.110  0.3081  0.0988 -0.0288
11948W        W28022   6.582  15.212  14.329 -0.1679 -0.2149  0.2121
11949W        W28023  12.410  13.111  13.582  0.0120 -0.2907  0.2133
11950W        W28024   9.635  11.644   3.550  0.1477  0.1475  0.1119
11951W        W28025  13.115   3.529   0.779  0.1242  0.2821  0.0113
11952W        W28026  18.014   6.983   4.722 -0.1392  0.0186  0.0858
11953W        W28027   9.813  15.316   4.757 -0.1373 -0.1038  0.4204
11954W        W28028  10.861  16.340  12.067  0.2830 -0.2577 -0.0373
11955W        W28029   7.647   6.815   5.764 -0.0778  0.0794  0.1603
11956W        W28030   2.487   0.276   2.701  0.0183  0.1083  0.1195
11957W        W28031  17.058   2.254  15.988 -0.1894  0.1250 -0.1317
11958W        W28032  10.859   6.438   3.088 -0.2209  0.0338  0.0534
11959W        W28033  15.319  14.644   0.325  0.2000  0.1119  0.1564
11960W        W28034   6.898  11.185  12.808 -0.0496  0.1235  0.1172
11961W        W28035   2.918   7.049  16.230  0.1289 -0.3164 -0.2901
11962W        W28036  16.418   2.110   5.366  0.0040 -0.1491  0.0478
11963W        W28037  16.364   0.745  13.123 -0.0955 -0.1682  0.3081
11964W        W28038   3.045  11.375   4.436  0.2599  0.0531  0.0721
11965W        W28039  13.423  13.916  14.788  0.1547  0.0218  0.0871
11966W        W28040  17.806   9.675   1.783 -0.1528 -0.4173  0.3198
11967W        W28041   2.476  13.211   4.680 -0.1972  0.0578 -0.0834
11968W        W28042  11.076  14.128  13.532  0.0518  0.0348  0.0101
11969W        W28043   2.571   2.482   2.492 -0.0123 -0.0750 -0.2379
11970W        W28044   4.870   9.396   1.027 -0.0908  0.0692  0.0113
11971W        W28045  12.097   4.893   3.559 -0.1137 -0.2416 -0.3400
11972W        W28046  13.474   8.908   4.638  0.1864 -0.2514 -0.0488
11973W        W28047   9.589  11.254  11.709  0.1191 -0.1227 -0.2877
11974W        W28048  15.098  11.326   2.911  0.2707  0.1912  0.3425
11975W        W28049   1.534  14.601   1.496 -0.0449  0.1300 -0.0940
11976W        W28050  15.196   7.301  12.875  0.0442 -0.4083  0.3014
11977W        W28051  16.524  16.341  15.181  0.0974 -0.4380 -0.0028
11978W        W28052  14.031   4.764   3.192  0.1382  0.0957  0.1517
11979W        W28053  16.205   7.105   2.878  0.1009  0.3638 -0.2651
11980W        W28054  10.175  16.012  11.841  0.1044 -0.1551  0.2170
11981W        W28055  11.807  14.320   2.634  0.0933  0.1651 -0.3442
11982W        W28056   9.778   3.722  14.314  0.0650  0.0825  0.0574
11983W        W28057   5.250   5.371  13.063  0.0578  0.4237 -0.0006
11984W        W28058  12.872   5.489  13.243 -0.1597  0.2336 -0.2035
11985W        W28059  15.094   6.269  16.086  0.1534  0.1840 -0.0525
11986W        W28060   2.180   9.217   0.206 -0.0443  0.2682 -0.0058
11987W        W28061  11.703   3.379   3.819 -0.1685 -0.1464 -0.0708
11988W        W28062   9.099   2.048   6.179 -0.0903 -0.3155  0.2290
11989W        W28063   6.654  13.143   1.380  0.0470  0.1439 -0.0353
11990W        W28064  10.415   7.106   2.698 -0.2870 -0.4940  0.0117
11991W        W28065   9.995   3.838   5.383 -0.0971 -0.2213  0.2158
11992W        W28066   0.660   1.663   2.721 -0.1915 -0.1934 -0.2350
11993W        W28067  17.235  15.197  14.413 -0.1057 -0.1916 -0.1404
11994W        W28068  18.102  16.258   0.579  0.1694 -0.0215 -0.1355
11995W        W28069  13.337   1.453   1.949 -0.1181 -0.1845 -0.0981
11996W        W28070   0.042  18.069  13.245 -0.0041  0.0575  0.0236
11997W        W28071   9.453  12.890   0.271  0.1046  0.0972  0.0963
11998W        W28072   7.221  13.555   1.993  0.0021 -0.1489 -0.0190
11999W        W28073  12.472   7.620   6.404 -0.0473 -0.1102  0.1885
12000W        W28074   7.912   2.194   5.401 -0.0114  0.0812 -0.1758
12001W        W28075   8.388   9.350  12.389  0.2091  0.0621  0.3337
12002W        W28076   6.633  10.615  13.147  0.0734 -0.1480  0.2554
12003W        W28077   2.354  11.795   6.192 -0.2282 -0.2394  0.2407
12004W        W28078  16.414  14.204  11.851 -0.4647  0.0214 -0.0853
12005W        W28079  11.356   0.007  14.397 -0.0799  0.2099  0.1491
12006W        W28080  10.853  18.164   1.065  0.1388  0.2642  0.3801
12007W        W28081   1.513   8.919  15.787  0.1166  0.0996  0.1482
12008W        W28082   1.423  12.635  16.464  0.0918  0.0929 -0.1138
12009W        W28083   9.962  15.528  13.870 -0.2189  0.2033  0.0014
12010W        W28084  16.412  10.318   1.191 -0.0730 -0.1972  0.0510
12011W        W28085   7.026  15.479   4.470 -0.1258 -0.1984 -0.1326
12012W        W28086  15.218   7.336  14.584  0.1632 -0.4262  0.0185
12013W        W28087   2.838   5.033  12.628  0.0506 -0.2498  0.0372
12014W        W28088  10.687   0.795   5.142 -0.1584  0.2517  0.1153
12015W        W28089  10.553  15.466   4.683 -0.2352  0.1745 -0.0759
12016W        W28090  13.332  17.522   4.546  0.1031 -0.0273 -0.5188
12017W        W28091   6.799  11.571  13.197  0.1259  0.3759 -0.0760
12018W        W28092   2.224  15.324  14.103  0.1203 -0.0053  0.0212
12019W        W28093  14.970  14.760  14.877  0.1268 -0.2475 -0.1222
12020W        W28094  10.442   6.027   2.142  0.2719 -0.0762 -0.2027
12021W        W28095  13.258  13.111  15.007 -0.0149  0.1739  0.1692
12022W        W28096   2.664  10.423   1.002  0.0956 -0.0497  0.1919
12023W        W28097  12.292  15.604   5.744  0.1681 -0.1037 -0.1158
12024W        W28098  14.534   3.728  14.578 -0.2050 -0.0664 -0.2553
12025W        W28099   4.519  11.700   4.865  0.0370  0.1653  0.0129
12026W        W28100  12.574   2.403   2.937 -0.0673 -0.1385 -0.1242
12027W        W28101  17.818  10.540   3.416  0.0458  0.0890 -0.0175
12028W        W28102  14.430  15.506  11.703 -0.0789 -0.0124 -0.0910
12029W        W28103  14.116   6.189   3.558 -0.1682  0.0402 -0.0504
12030W        W28104  15.113  10.643   0.133 -0.2484  0.0216  0.3232
12031W        W28105   7.207  14.053  15.587 -0.2666 -0.0965  0.0209
12032W        W28106  17.379  12.196   3.810  0.1055 -0.3718 -0.0825
12033W        W28107  15.050   8.228  12.475 -0.0659  0.0208  0.1733
12034W        W28108   4.100   9.754  13.533 -0.0960  0.0529 -0.1503
12035W        W28109  10.027  13.807   3.983 -0.3999  0.3386  0.0520
12036W        W28110   5.098   4.936  12.718  0.0779 -0.2784  0.0064
12037W        W28111  11.323   9.930  11.217  0.1923  0.2367 -0.2048
12038W        W28112   1.368  15.573  14.614  0.0098 -0.1010 -0.0991
12039W        W28113   8.369   8.939  15.427 -0.2619 -0.1046 -0.5300
12040W        W28114  14.932  14.618  15.792 -0.1874 -0.3075 -0.2721
12041W        W28115  15.489   9.587  15.843  0.1639 -0.0446  0.3333
12042W        W28116   6.080  12.019  14.073 -0.2275 -0.2135 -0.3962
12043W        W28117  13.024  15.090   4.685 -0.0509 -0.1129  0.4061
12044W        W28118  17.502   0.300  14.483  0.0637  0.1230  0.0763
12045W        W28119   1.735  16.392   3.789  0.1084  0.0401 -0.0291
12046W        W28120   6.162   2.536   3.383 -0.1710 -0.4012 -0.2668
12047W        W28121  14.254  12.983   6.161 -0.0817 -0.0660  0.3410
12048W        W28122   9.051   0.755  13.853 -0.1606 -0.0741  0.0991
12049W        W28123   4.001   3.768   4.936  0.1534 -0.0129 -0.1456
12050W        W28124   6.189   3.742   0.117  0.0125  0.3828 -0.2344
12051W        W28125  14.157   4.750   5.148 -0.0991 -0.3659 -0.0753
12052W        W28126   6.928   1.844  15.659 -0.2402  0.1573  0.0050
12053W        W28127   9.015   8.872   0.760 -0.0059 -0.0521  0.3109
12054W        W28128  13.325   2.090  11.844  0.2953  0.0665 -0.1173
12055W        W28129   0.399   5.458   5.903  0.0773 -0.0524  0.1413
12056W        W28130   9.294  16.362   4.108  0.1364  0.1558  0.0604
12057W        W28131   9.688   2.985   5.574 -0.0829 -0.0344 -0.4545
12058W        W28132   5.294  13.950  14.504 -0.2477  0.0342 -0.0976
12059W        W28133  13.908   2.506  15.476  0.0083 -0.1993  0.0510
12060W        W28134  14.352   9.840   3.750  0.4331  0.0150 -0.2242
12061W        W28135   8.060  10.121  11.417 -0.2133  0.1288  0.2254
12062W        W28136  17.737   6.513   2.575  0.3528  0.0563 -0.0184
12063W        W28137   6.123  10.035   4.883 -0.3121  0.1706 -0.1752
12064W        W28138   7.147  10.465   3.584 -0.0411  0.1490  0.0519
12065W        W28139  15.771   1.537  14.106 -0.0223 -0.1121  0.2221
12066W        W28140   2.467  16.949  12.172 -0.0159 -0.1478  0.1673
12067W        W28141   9.927   2.833   0.418 -0.0534  0.0610 -0.0414
12068W        W28142  12.006  12.983  12.801 -0.2388 -0.2376 -0.2689
12069W        W28143   2.112   2.198  13.034 -0.0657  0.1305  0.1814
12070W        W28144   9.316  14.729  13.082 -0.2201 -0.5374 -0.2398
12071W        W28145  12.434   5.818  13.288 -0.0626 -0.1384  0.2940
12072W        W28146   4.561   5.682  11.996 -0.2701 -0.1906  0.1724
12073W        W28147  17.894  15.114   1.444 -0.1572  0.3125 -0.0467
12074W        W28148   0.150   5.862  15.094 -0.1741  0.0822 -0.2853
12075W        W28149  11.954   0.499  15.682 -0.1122 -0.0560  0.4013
12076W        W28150  15.156   8.360   1.609  0.2204 -0.1865  0.2840
12077W        W28151   3.450  13.869  16.182  0.2641 -0.1133  0.0850
12078W        W28152   5.669   0.126  16.452  0.1067  0.1291  0.0622
12079W        W28153  16.626  11.278   5.163  0.1519 -0.2030 -0.2830
12080W        W28154   4.704   7.230  15.483 -0.2375 -0.1202 -0.1078
12081W        W28155   1.091  15.570   0.825 -0.1594 -0.0394  0.1243
12082W        W28156  11.780  10.504  13.039  0.0548 -0.1499  0.4246
12083W        W28157   1.763   8.571  14.409  0.2374 -0.1464  0.0338
12084W        W28158  12.157   1.928   5.052 -0.0580  0.1117 -0.0302
12085W        W28159   1.582  10.933  15.139 -0.0984  0.1133  0.2194
12086W        W28160  11.626  16.278   1.908  0.0043 -0.3276 -0.0783
12087W        W28161  17.797  17.257   0.885 -0.2075  0.0871 -0.0989
12088W        W28162  13.251   1.645   3.785  0.3145 -0.0612  0.0941
12089W        W28163   1.526   2.278   4.525  0.0014  0.0841 -0.0360
12090W        W28164   2.151   8.581  13.979  0.0109 -0.0820  0.0198
12091W        W28165   4.760   6.453  14.462  0.4519 -0.1469 -0.2667
12092W        W28166  16.852  15.494   2.660 -0.0289 -0.0163  0.0204
12093W        W28167   6.237  12.383   4.649  0.0474  0.2331 -0.0731
12094W        W28168   0.279   5.052  13.727 -0.0822 -0.2548 -0.0727
12095W        W28169   5.458  11.488   5.264  0.1599 -0.3427 -0.0591
12096W        W28170  11.365   5.163   2.308  0.3570  0.1700  0.0740
12097W        W28171   3.100  12.167  16.063 -0.0345 -0.1400  0.0981
12098W        W28172   9.444   0.175   3.830 -0.4394 -0.2612 -0.0389
12099W        W28173   8.161   4.251   1.458  0.1015  0.3864 -0.0796
12100W        W28174   7.087  16.955  16.013  0.0125  0.2040 -0.1036
12101W        W28175   1.001   9.769  12.218  0.0955 -0.0601 -0.1424
12102W        W28176  17.271  15.626  15.312 -0.0173  0.2097  0.1299
12103W        W28177  14.505  13.913  14.616 -0.1013  0.1804  0.1709
12104W        W28178   2.497   8.692  13.535 -0.1088 -0.1703  0.1892
12105W        W28179  12.953  12.006   6.239 -0.0456 -0.1147  0.3525
12106W        W28180   6.840  14.292   3.676 -0.2562  0.0516 -0.1607
12107W        W28181   8.265  17.885   2.806  0.0286 -0.2489 -0.0968
12108W        W28182  11.688   7.435   3.388 -0.0994 -0.0298 -0.4271
12109W        W28183  12.319   1.630  12.387 -0.6581  0.1657 -0.0348
12110W        W28184  12.171  16.561   5.722  0.0507  0.1629  0.3641
12111W        W28185  10.212  15.615   1.497  0.3723  0.2012  0.2117
12112W        W28186  12.055  11.169   1.423 -0.0422 -0.1543  0.1777
12113W        W28187   2.580   0.820   2.628 -0.1105  0.0044  0.3435
12114W        W28188   9.256   5.006   4.386  0.1485  0.1460  0.0021
12115W        W28189   0.380   7.634  15.133  0.2354  0.0538 -0.0793
12116W        W28190   8.012  12.957   1.757 -0.1945 -0.0605 -0.0870
12117W        W28191  16.788   5.193   6.259 -0.2155  0.0690  0.1598
12118W        W28192   4.465  16.719  13.671 -0.0554  0.0756  0.1165
12119W        W28193  17.530  10.337  11.892  0.3013  0.0151 -0.2839
12120W        W28194   9.600  10.969  12.153  0.0371 -0.3761 -0.0075
12121W        W28195   2.843   7.280   4.259 -0.0541  0.1358  0.0906
12122W        W28196  16.942  15.685   5.122  0.0323  0.0559 -0.0782
12123W        W28197  11.739  10.521  11.299  0.1039  0.0908 -0.3196
12124W        W28198   5.137  12.972  15.131  0.2894  0.7103  0.1939
12125W        W28199   4.431   9.341  15.650  0.1370 -0.1199 -0.0626
12126W        W28200   7.774  17.929   2.943  0.0121  0.0678  0.1089
12127W        W28201   1.517  12.095   3.015  0.3707 -0.3877 -0.0700
12128W        W28202   6.520   0.069   5.208 -0.1614 -0.0654 -0.1491
12129W        W28203  14.145  15.580   5.954 -0.2058 -0.0440  0.0949
12130W        W28204   4.406   3.313   2.689 -0.0027 -0.1919 -0.1030
12131W        W28205   2.393   5.171   1.387  0.1926 -0.0413 -0.2449
12132W        W28206  11.701  17.541  12.664  0.3382  0.1811  0.1367
12133W        W28207   0.290  14.756  14.989  0.1295  0.1685  0.0811
12134W        W28208   2.275  10.536  15.747  0.1172  0.0429  0.0233
12135W        W28209  11.072  15.505  12.368 -0.1726  0.1123 -0.1383
12136W        W28210   4.496   1.933   0.779  0.0347  0.0545 -0.2399
12137W        W28211   4.201  13.776   2.282 -0.0036 -0.0387  0.0721
12138W        W28212   0.328   3.190  12.468  0.0515 -0.5167  0.2516
12139W        W28213   9.979  15.800   5.470  0.0039 -0.0561  0.2313
12140W        W28214   5.038   1.217   2.722  0.4410  0.0767 -0.0577
12141W        W28215   1.624  17.680   4.971  0.0707 -0.0080  0.0247
12142W        W28216   8.293   1.279  14.838  0.2236 -0.1176 -0.1134
12143W        W28217  16.927  15.127  13.510  0.4028 -0.3356  0.2542
12144W        W28218   7.030   4.362   4.531  0.3251  0.1705  0.3774
12145W        W28219   3.420   6.696  14.640  0.2800 -0.1315  0.0043
12146W        W28220  16.553  16.929  13.919  0.5069 -0.2476 -0.0539
12147W        W28221   3.020  14.626  12.701 -0.0936  0.1067 -0.1505
12148W        W28222   5.702  14.519   5.425  0.2296  0.1572 -0.0699
12149W        W28223  18.187  13.493  13.033 -0.1165  0.0882 -0.1218
12150W        W28224   1.785   8.588   0.765 -0.2566 -0.1832 -0.1994
12151W        W28225   5.830  12.715   4.725 -0.2283 -0.0521  0.1471
12152W        W28226  11.686   7.712  16.289  0.1411  0.3247 -0.1535
12153W        W28227   3.854  13.901   4.789  0.0306 -0.0040 -0.3773
12154W        W28228  12.626  15.547  16.496  0.1534 -0.1948  0.0824
12155W        W28229   8.766  12.951   0.844 -0.2604 -0.1706 -0.0802
12156W        W28230  11.087   5.786   5.030 -0.1005 -0.0929  0.3026
12157W        W28231  15.329   0.708  11.556  0.0270 -0.2802  0.1460
12158W        W28232  12.950   0.730  15.663  0.3254  0.0776  0.1359
12159W        W28233  16.634   0.259  12.407  0.2844  0.1370  0.0503
12160W        W28234   3.678   9.160   0.154 -0.0194 -0.1481 -0.3826
12161W        W28235   3.748  13.317   5.508 -0.1031 -0.3247 -0.2167
12162W        W28236   2.169  14.148   1.939 -0.1393 -0.1793  0.1732
12163W        W28237   5.403   0.349   2.213  0.2076 -0.1865 -0.0179
12164W        W28238   5.583  10.071  16.003 -0.0946 -0.0645 -0.0672
12165W        W28239  10.082  11.361   0.830  0.2686 -0.3669  0.1709
12166W        W28240   0.734  12.618  11.741  0.0714  0.1939  0.1511
12167W        W28241  17.924  17.865   4.548 -0.1012  0.1437  0.0089
12168W        W28242  16.436   8.749  15.773  0.1640  0.1500  0.1988
12169W        W28243   5.959   3.262   2.671  0.1399  0.1337  0.1135
12170W        W28244  14.374  16.988   5.312  0.0282  0.1880  0.0308
12171W        W28245  14.241   6.598  12.312  0.2880  0.0252  0.1266
12172W        W28246  14.319   3.975  12.293 -0.1701  0.0416 -0.2125
12173W        W28247  10.206  10.182  15.700  0.2121  0.0995  0.1702
12174W        W28248   7.860  15.293  15.389  0.1509 -0.2635 -0.0606
12175W        W28249  11.304   2.362   3.513  0.0929 -0.2214  0.1522
12176W        W28250  11.244   0.666   4.478  0.2164  0.4347  0.3143
12177W        W28251  11.269   0.043   0.748  0.2669  0.1216 -0.1322
12178W        W28252   7.274  17.442  15.885 -0.2339 -0.2825 -0.2924
12179W        W28253   7.151   6.986  14.825 -0.1473  0.1882 -0.0300
12180W        W28254   3.351   0.511   4.955 -0.0081  0.1709 -0.0957
12181W        W28255  10.495   7.003  15.185 -0.1059  0.1427  0.2096
12182W        W28256  13.321   4.195   5.320  0.0791  0.1247 -0.1452
12183W        W28257   1.117   7.435  11.223 -0.1768  0.1597 -0.0305
12184W        W28258  16.911   8.692   2.464  0.0586 -0.0710  0.1137
12185W        W28259   4.402  11.686  12.052  0.0958 -0.1528  0.1653
12186W        W28260  17.983  14.620   3.727 -0.3417  0.1968  0.1829
12187W        W28261  17.473   5.694   2.886  0.1250 -0.1178 -0.1063
12188W        W28262  12.598  10.485   1.683  0.0404 -0.1600 -0.1603
12189W        W28263   6.659  16.695  15.995 -0.1301 -0.0382  0.0517
12190W        W28264  11.251  15.817  14.687 -0.2979  0.2735 -0.2539
12191W        W28265   8.564   3.267  13.866 -0.3008  0.0068  0.0189
12192W        W28266   2.357  13.385   2.334  0.0481  0.1060 -0.0175
12193W        W28267  14.126   1.314  14.857 -0.0535  0.3150 -0.0916
12194W        W28268  11.195   8.081   0.763 -0.1946  0.3490 -0.0132
12195W        W28269   6.484   3.130   6.361 -0.1503 -0.1765  0.2686
12196W        W28270  14.209   3.968  14.272 -0.1036  0.0591  0.4071
12197W        W28271  10.008  16.359   0.429  0.1457  0.0390  0.4240
12198W        W28272   7.573   2.341   4.934  0.2872 -0.1266 -0.4803
12199W        W28273   7.541   4.496  12.285  0.1383  0.0600  0.1165
12200W        W28274  11.831  16.358  12.108 -0.1232 -0.1163 -0.0274
12201W        W28275   9.127   8.430  11.400 -0.2746  0.0667  0.3522
12202W        W28276   0.292  13.981  10.309 -0.0273 -0.6017  0.0379
12203W        W28277  10.421  14.071  15.751  0.0239 -0.1551 -0.1017
12204W        W28278  11.381   8.669  15.555 -0.0034 -0.0797  0.0400
12205W        W28279   2.998  16.168  12.201  0.0295  0.1710  0.2654
12206W        W28280  17.615  12.689   5.431 -0.1025  0.1322  0.0579
12207W        W28281  16.625   0.443  14.001  0.0015 -0.0531  0.3259
12208W        W28282   1.469  15.100  11.887 -0.1268  0.2132  0.7921
12209W        W28283  12.026   3.643  15.625 -0.1638 -0.3114  0.0636
12210W        W28284   2.179  18.014  11.555  0.1405  0.1401 -0.1466
12211W        W28285   4.088   5.788  12.430 -0.0323 -0.1115 -0.4331
12212W        W28286  16.644   6.145   3.781 -0.3046  0.1041 -0.2012
12213W        W28287   1.826   7.260  13.027 -0.1614 -0.1886 -0.2300
12214W        W28288   5.666   5.554  11.886  0.3396  0.0822  0.1558
12215W        W28289   9.380   3.646  15.107 -0.1229 -0.1848  0.1846
12216W        W28290  13.754  13.140   1.495  0.0465 -0.2963 -0.0641
12217W        W28291   5.085   1.494  14.390 -0.1843  0.0380 -0.3340
12218W        W28292  17.374   9.192   2.828 -0.2456  0.0731 -0.0748
12219W        W28293   8.772  15.659   2.239  0.0365  0.0726  0.1238
12220W        W28294   2.053   7.766   2.237  0.0974  0.0159 -0.0389
12221W        W28295  10.298   1.322  12.148 -0.1175 -0.0422 -0.0619
12222W        W28296  13.375  10.111   3.646 -0.1844 -0.0847  0.1230
12223W        W28297   3.152  10.483  11.649 -0.0379 -0.0950  0.1255
12224W        W28298  14.936   2.973   2.064 -0.3529 -0.1976  0.0592
12225W        W28299   8.092  16.599   1.730 -0.2238 -0.0724 -0.2662
12226W        W28300   6.929   6.153  14.837 -0.2394  0.1041 -0.1092
12227W        W28301   6.161   6.830  11.552  0.0224 -0.0307 -0.1508
12228W        W28302  11.077   4.515  13.147 -0.3466  0.1593 -0.0064
12229W        W28303  17.977   0.064   1.136 -0.3809  0.2843 -0.1033
12230W        W28304   1.251   0.733   5.025 -0.2385 -0.0651 -0.1450
12231W        W28305  13.029   7.110   1.838 -0.2517 -0.0531 -0.1009
12232W        W28306   7.827  14.623   3.927  0.3085  0.1151  0.1312
12233W        W28307  16.522   1.746   0.994 -0.1295  0.1918 -0.0538
12234W        W28308   9.372  10.908  10.933  0.3808 -0.0253  0.1297
12235W        W28309   2.546  11.574   5.358 -0.1484 -0.0181 -0.0261
12236W        W28310  11.087   6.119  13.023  0.1235  0.0376  0.5017
12237W        W28311  10.067   0.841   0.362 -0.1364 -0.3020  0.2407
12238W        W28312   2.609   7.522  13.985  0.1862  0.2304  0.0387
12239W        W28313   8.886   4.195   2.347  0.0605 -0.2003  0.0773
12240W        W28314   7.283  15.749   6.463  0.1502  0.1138 -0.2008
12241W        W28315   5.777   1.274   2.222 -0.0699 -0.1919 -0.1276
12242W        W28316  10.952   1.620  16.259  0.1334  0.2679 -0.2092
12243W        W28317   8.454   5.921  16.272 -0.0830 -0.0670 -0.0642
12244W        W28318   4.048  17.479  14.018 -0.0702 -0.1148  0.0436
12245W        W28319  12.994  15.482  12.762 -0.0637 -0.1320 -0.3102
12246W        W28320   7.410  15.838  13.373 -0.1225 -0.2279 -0.1582
12247W        W28321   1.628  13.713   1.265  0.1095 -0.1274 -0.2557
12248W        W28322   6.793  15.306  13.445  0.2378 -0.0049  0.2024
12249W        W28323  11.524   9.962   4.433  0.3470 -0.0444  0.1271
12250W        W28324  14.761  16.331  15.571 -0.0566  0.3241  0.0913
12251W        W28325  10.769   0.415   4.691  0.0156 -0.0229  0.1360
12252W        W28326   8.327   7.351  13.819  0.0322 -0.0325  0.0918
12253W        W28327   5.267   1.740  13.886 -0.0522  0.0361  0.0512
12254W        W28328   4.908   4.976   3.657  0.1712 -0.0605 -0.0903
12255W        W28329  17.082  16.191  14.430  0.3346 -0.1232 -0.3740
12256W        W28330   0.602   0.492   3.791  0.1570  0.0453  0.1785
12257W        W28331   5.405   7.657  15.759 -0.0605  0.0403 -0.1105
12258W        W28332  12.134   5.172  13.469 -0.0033  0.3021 -0.1406
12259W        W28333  10.710  16.165   5.879  0.1947 -0.1889  0.2705
12260W        W28334   3.031   1.971   1.226  0.4803 -0.1638  0.0295
12261W        W28335   9.764  10.321  12.712  0.0425  0.2582 -0.3382
12262W        W28336   6.408  16.847  12.135  0.1039  0.0647  0.0682
12263W        W28337  13.034   5.162   4.875 -0.0070 -0.4267  0.0540
12264W        W28338  12.736   5.903  11.885 -0.1162 -0.2260  0.0552
12265W        W28339   2.298  17.356  12.921 -0.0407 -0.3583  0.0542
12266W        W28340   3.982  16.116   5.278 -0.0420 -0.0104 -0.0599
12267W        W28341   7.116   0.305   0.712  0.1708  0.4191  0.2178
12268W        W28342  10.915  15.841  14.217 -0.1872 -0.2739 -0.2141
12269W        W28343  17.585  15.001   1.832  0.3141 -0.0135  0.1319
12270W        W28344   0.390   1.599  12.213 -0.1629 -0.2193 -0.0293
12271W        W28345   6.346   3.294  16.398  0.0454 -0.2234 -0.2058
12272W        W28346  11.171  10.804  13.566  0.3458  0.2399 -0.0988
12273W        W28347   0.067  16.175   2.186 -0.2456  0.3518 -0.0286
12274W        W28348   6.357  14.339  15.391 -0.2074  0.2446 -0.2741
12275W        W28349  12.267   1.976  16.113  0.2782 -0.1195  0.1224
12276W        W28350   8.281   1.787   4.056  0.0867  0.1764  0.4417
12277W        W28351   0.288  14.121   0.081 -0.0202  0.2866 -0.0514
12278W        W28352   1.588  10.419   1.844  0.0583 -0.1235 -0.1215
12279W        W28353  10.886   0.160  14.724  0.0598 -0.2020 -0.1338
12280W        W28354  16.738  12.052  13.289  0.0858 -0.1485 -0.2241
12281W        W28355   3.754   7.182   3.862  0.2395 -0.0046 -0.3396
12282W        W28356   5.110   1.126  12.626  0.0011 -0.2063  0.0388
12283W        W28357   3.126  10.216   0.350 -0.2110 -0.0352 -0.0261
12284W        W28358  16.725   3.923   0.329 -0.1157  0.0718  0.2778
12285W        W28359  15.195  17.142  14.690  0.0694 -0.2315 -0.3329
12286W        W28360   7.351  10.364  13.653 -0.0850  0.0851  0.3091
12287W        W28361  13.886  13.891   0.929  0.1124  0.0278  0.0983
12288W        W28362   7.219  16.332  12.017 -0.0778  0.3160 -0.0137
12289W        W28363   8.403   0.005  12.480 -0.2745 -0.0628 -0.3319
12290W        W28364   6.482  16.729  16.476 -0.2288  0.3455  0.0517
12291W        W28365  13.166   9.935  15.693 -0.0372  0.1143 -0.1289
12292W        W28366   4.514  14.112   2.408  0.3300 -0.1392  0.1012
12293W        W28367  10.293   7.027  13.830  0.2300  0.1591  0.0062
12294W        W28368   6.917  14.166  10.915  0.0642 -0.3725  0.2667
12295W        W28369  15.286   1.330  15.922  0.1605 -0.2040 -0.2710
12296W        W28370   2.124   1.619  12.296 -0.0729  0.3313 -0.1991
12297W        W28371   7.927  11.449  12.539 -0.3888 -0.2615 -0.0957
12298W        W28372  12.341   9.725  11.483 -0.1798 -0.1979  0.1227
12299W        W28373  10.225  12.294  16.021  0.3085  0.4246  0.3047
12300W        W28374  13.635  17.603  11.932  0.1256 -0.1739  0.1882
12301W        W28375  13.507  15.812  16.469  0.0252  0.0163  0.0138
12302W        W28376   4.296  14.545   2.595 -0.3345  0.0981 -0.0263
12303W        W28377  15.933  17.202   4.557  0.1970  0.0197  0.0054
12304W        W28378   3.871   0.858   2.184  0.0400 -0.1308 -0.0814
12305W        W28379   3.233  10.918   3.496 -0.1910  0.0058 -0.0988
12306W        W28380   9.316   8.403   4.072 -0.1104 -0.3729 -0.0293
12307W        W28381   3.929  15.067  13.269  0.1147  0.0681  0.1426
12308W        W28382   7.467  15.008  15.556 -0.4342 -0.1338  0.0263
12309W        W28383  13.092  14.769  13.970  0.2741 -0.1453 -0.2044
12310W        W28384  13.720   0.898   4.189  0.2615  0.2305  0.1953
12311W        W28385  11.355  12.071  16.075 -0.0199  0.1029  0.1357
12312W        W28386  17.669  11.402   1.613  0.1617  0.2672 -0.1272
12313W        W28387   9.042   7.056   0.204 -0.0634  0.1718  0.3023
12314W        W28388  16.124   1.832   2.625 -0.2173  0.0126 -0.2084
12315W        W28389  16.362   3.982   4.046  0.3323 -0.3439 -0.0079
12316W        W28390   5.258  14.477   4.145 -0.0776 -0.5493 -0.1946
12317W        W28391  12.946  17.753   0.446  0.0807  0.0357 -0.3401
12318W        W28392  17.478   1.399   1.068 -0.1850 -0.1155 -0.2390
12319W        W28393   8.081  16.864   3.694  0.0257  0.3200  0.1331
12320W        W28394  17.061   6.638  14.634  0.1212 -0.2121  0.1405
12321W        W28395  17.414   8.657  14.683  0.2810 -0.1389  0.1216
12322W        W28396  11.875   8.716  10.735 -0.3389  0.1491  0.2636
12323W        W28397   6.233   7.807   0.940 -0.3883 -0.0336 -0.0233
12324W        W28398  16.086   8.356  15.841 -0.1748 -0.1630  0.0029
12325W        W28399  15.949   9.309   0.321  0.0518 -0.1748  0.0239
12326W        W28400   4.532  14.942  16.482 -0.1783 -0.3340 -0.2492
12327W        W28401  18.161   3.600   4.417  0.1553 -0.3520  0.3119
12328W        W28402   7.256  11.129   4.199  0.1147 -0.1504 -0.0777
12329W        W28403  18.213  15.816   5.716  0.1760  0.0795 -0.2087
12330W        W28404   1.213   5.946   5.461 -0.0822 -0.0633 -0.2837
12331W        W28405  12.268   4.510  13.001  0.1020 -0.4935 -0.3417
12332W        W28406   3.220  13.404   1.768  0.0999  0.0169  0.3367
12333W        W28407   8.612  14.826  14.868 -0.0062 -0.0558  0.3038
12334W        W28408   0.695   9.291  14.624  0.4128 -0.2097  0.0460
12335W        W28409   7.734  12.103   2.962  0.1901 -0.1484  0.0893
12336W        W28410  17.590   7.023   4.040  0.0481 -0.0641  0.1992
12337W        W28411   9.569   9.724   5.544  0.1665  0.1356 -0.1545
12338W        W28412  17.831   9.187   1.052 -0.1334  0.0473 -0.1322
12339W        W28413   6.920   1.926   3.409  0.2156  0.2246  0.0059
12340W        W28414   2.237  15.814   1.612 -0.0922  0.4109  0.0238
12341W        W28415  16.222   1.248  13.762  0.1214 -0.2554 -0.0444
12342W        W28416   1.529  16.019   2.166  0.2337  0.1225 -0.1019
12343W        W28417  11.704  12.736  15.207 -0.2052 -0.2599  0.0015
12344W        W28418  13.690   6.828   5.007 -0.0154  0.0223 -0.0133
12345W        W28419  11.742   8.149  15.035 -0.1621  0.3738 -0.1463
12346W        W28420   6.330  14.825   4.556  0.0448  0.4994  0.0106
12347W        W28421  12.647   9.235   1.649 -0.3665 -0.1959 -0.0158
12348W        W28422   5.820   1.271   4.935 -0.3647  0.0325  0.2040
12349W        W28423   6.020   8.108  11.113  0.0191 -0.1516  0.0705
12350W        W28424   3.088  17.355  12.421 -0.0655  0.1204  0.0783
12351W        W28425  16.316   1.470   2.945 -0.3057 -0.2122 -0.2889
12352W        W28426  14.305   4.131   4.384  0.1038  0.1696 -0.4128
12353W        W28427   6.917  17.906  14.975  0.0343 -0.1338  0.0308
12354W        W28428  11.187  12.536   1.912 -0.2255 -0.0343  0.0240
12355W        W28429  18.246   1.921   5.292  0.0812  0.0403 -0.0879
12356W        W28430  11.740  12.252  11.175  0.0837  0.0225  0.0452
12357W        W28431   2.180  13.812   1.570 -0.0539  0.1477 -0.3068
12358W        W28432  12.194  16.879   3.303 -0.2532  0.1190  0.1261
12359W        W28433  17.078   4.137   4.672  0.2733 -0.0673 -0.0561
12360W        W28434  15.141   7.549  11.776  0.0908 -0.2984  0.0040
12361W        W28435  14.238  11.529   0.662 -0.2325  0.0289 -0.3828
12362W        W28436  13.965   7.663   4.703  0.0978 -0.0870 -0.0271
12363W        W28437   7.533  10.420   5.776 -0.2423 -0.2404 -0.0896
12364W        W28438   4.050  11.854   4.446  0.0388 -0.1230 -0.0063
12365W        W28439   1.295   6.188  15.208  0.0062 -0.0504  0.1993
12366W        W28440   6.191   0.892   1.681 -0.0509  0.1728 -0.0062
12367W        W28441   4.162  12.177   3.650  0.2401  0.0450 -0.1245
12368W        W28442   1.909  17.640   6.279  0.1572 -0.1488 -0.3374
12369W        W28443   9.866   1.923  13.386  0.0126  0.0017 -0.0526
12370W        W28444  13.126   4.491   1.372 -0.2678 -0.2377  0.0384
12371W        W28445   9.560  13.701   3.822 -0.2348 -0.3071  0.2182
12372W        W28446  13.881  11.455  11.310 -0.1261 -0.0867  0.0084
12373W        W28447   8.020  10.812   1.431 -0.2181 -0.0050  0.1739
12374W        W28448   7.804  10.856  14.344 -0.1215 -0.2461  0.1150
12375W        W28449   4.838   9.883  11.018  0.0104 -0.0036  0.0302
12376W        W28450  13.136  11.700   1.466  0.0726  0.2073 -0.2144
12377W        W28451  17.517   7.692  13.500 -0.1035  0.0680  0.0094
12378W        W28452   3.412  14.245   6.065  0.2142 -0.2272 -0.2913
12379W        W28453  14.899   2.205   5.629 -0.0847 -0.0399  0.0099
12380W        W28454  10.226  10.061   0.090 -0.2391 -0.5068 -0.0123
12381W        W28455   6.430   6.345   1.186  0.1701 -0.1334 -0.1218
12382W        W28456   3.668   3.269   1.870  0.1514  0.0461  0.0858
12383W        W28457   0.828  17.547  12.990  0.3543  0.0397  0.1984
12384W        W28458  16.965   3.029   5.710  0.0604  0.0704 -0.0881
12385W        W28459   5.440  11.706   1.600 -0.0566  0.1641  0.2096
12386W        W28460   7.828  13.356   0.142 -0.2535 -0.2911  0.1030
12387W        W28461   7.665   7.894  15.657 -0.0057 -0.2468  0.2809
12388W        W28462   4.161   6.470   5.381 -0.0032  0.1893 -0.0286
12389W        W28463  17.259  16.548   4.399  0.0525  0.0345 -0.1953
12390W        W28464  15.677  16.403   0.739 -0.1548 -0.0374 -0.0349
12391W        W28465  13.354  11.731  15.105 -0.1178  0.1318  0.3720
12392W        W28466  13.016  10.738  15.773  0.3036  0.1463  0.1618
12393W        W28467  10.611   2.959   3.322  0.2549  0.1260  0.0005
12394W        W28468   4.070   0.248  16.449 -0.1044  0.1833  0.2717
12395W        W28469   3.499  11.031   4.371  0.0011  0.3718  0.2269
12396W        W28470  17.572   7.755  12.529  0.0521  0.3073 -0.0414
12397W        W28471  15.443   0.957   0.919 -0.2302 -0.2124  0.2431
12398W        W28472   6.985  12.946  15.709  0.1547 -0.2338 -0.3676
12399W        W28473   5.896   5.791  15.940 -0.0124  0.1303  0.3040
12400W        W28474  17.700   8.528  12.016 -0.0808 -0.2002  0.1159
12401W        W28475  13.236   4.827   2.760  0.1677  0.0587  0.1135
12402W        W28476   4.271   7.737  14.736 -0.3425 -0.1404 -0.1881
12403W        W28477  17.046   2.114  12.592 -0.1262 -0.1114  0.0802
12404W        W28478  16.019   5.800  14.716  0.1680  0.3802  0.1001
12405W        W28479   6.652   8.608   2.609 -0.4855 -0.3851  0.1140
12406W        W28480  16.878   2.236  11.421 -0.0969 -0.1911 -0.1368
12407W        W28481  16.524   2.180  11.737  0.1983 -0.0480 -0.0876
12408W        W28482  11.228  12.879   4.547 -0.0430 -0.2502  0.2970
12409W        W28483  11.443   8.686   5.259  0.2381 -0.0896 -0.2316
12410W        W28484   7.230  13.350  12.314  0.2858  0.0711 -0.0732
12411W        W28485  17.139  13.542   2.027  0.3785 -0.0605  0.2754
12412W        W28486   5.749  15.712  13.963 -0.1353  0.1163  0.1080
12413W        W28487  11.345  17.584   2.563  0.5233  0.1646 -0.1014
12414W        W28488   0.281  12.752   3.817 -0.0953 -0.2560  0.1166
12415W        W28489   1.488   0.717  15.189 -0.2535 -0.0973  0.0088
12416W        W28490  14.267   6.125  12.415 -0.4077 -0.2327  0.3684
12417W        W28491   8.039   5.837   5.210  0.0496 -0.1213  0.2491
12418W        W28492   3.655   3.565   4.505  0.1342 -0.1875 -0.4917
12419W        W28493  13.352  14.812   1.637  0.2494  0.3359 -0.1007
12420W        W28494  12.474   4.369  14.751  0.0969 -0.4993 -0.1409
12421W        W28495   2.331  10.008  12.194  0.0700 -0.1278 -0.0296
12422W        W28496  11.294   4.097  14.466  0.3305  0.0923 -0.0416
12423W        W28497   5.512  11.682  14.579  0.1848  0.3290 -0.3539
12424W        W28498  11.885   3.571  13.138  0.1726  0.0115 -0.2123
12425W        W28499  15.949  10.340  12.841 -0.0850  0.0676 -0.0094
12426W        W28500  13.664  11.821  16.129  0.2236 -0.3612 -0.1597
12427W        W28501   0.217   9.919   2.773 -0.0877 -0.1989 -0.1906
12428W        W28502  13.553  10.984  15.656  0.0402  0.0187  0.1188
12429W        W28503   6.536   0.871  11.953 -0.3125  0.2044  0.0638
12430W        W28504   7.147  17.046   1.724 -0.1924  0.0979  0.1673
12431W        W28505  10.387   3.373   5.648  0.1378 -0.1616  0.0242
12432W        W28506   7.398   1.273  15.630 -0.0348  0.1755  0.1297
12433W        W28507   7.555   2.476   2.805  0.0833 -0.2555 -0.1824
12434W        W28508  16.345   2.565  15.529  0.1214  0.1521 -0.2305
12435W        W28509   4.504  15.064   1.371 -0.0084  0.1456  0.1030
12436W        W28510  17.296  17.988  13.671 -0.0230 -0.0741  0.1524
12437W        W28511  15.017  15.192   0.716  0.0216 -0.1004  0.0355
12438W        W28512  17.235   5.355  13.628  0.0187  0.0563 -0.1106
12439W        W28513   7.011   3.001  15.893  0.1156  0.0072  0.0914
12440W        W28514  10.794  16.654   4.046 -0.2962  0.0186 -0.0087
12441W        W28515  16.999   0.480   5.951  0.1482 -0.1717  0.0289
12442W        W28516   2.747  10.871   1.004  0.0729  0.0138  0.1175
12443W        W28517   7.062   4.717   4.093 -0.1512  0.2841  0.2259
12444W        W28518   0.732   0.528   1.197 -0.2231 -0.3814  0.2239
12445W        W28519   9.899  10.725  11.708  0.0515 -0.2645  0.4424
12446W        W28520   9.765   0.962  13.011 -0.2367  0.1999  0.1980
12447W        W28521  10.658   8.180   4.344 -0.1425 -0.1909  0.0812
12448W        W28522  12.323   0.323   5.159 -0.1714  0.2845 -0.1648
12449W        W28523  11.755  10.336  15.497  0.0218 -0.1109 -0.2494
12450W        W28524  13.725  15.790   3.322 -0.1866 -0.0485  0.0202
12451W        W28525   7.825  14.969   5.351 -0.1159  0.0426 -0.1140
12452W        W28526  15.417   8.938   0.019 -0.0546 -0.0354  0.0615
12453W        W28527   8.049  13.679  13.439 -0.0357 -0.0294  0.0304
12454W        W28528  14.409   9.915   1.788  0.0800 -0.4819 -0.1729
12455W        W28529   6.697  11.416   3.822  0.4244  0.2757 -0.1358
12456W        W28530  17.382   2.552  12.265 -0.0818 -0.0128 -0.1241
12457W        W28531   9.648   1.367   5.035  0.1967  0.0415  0.0665
12458W        W28532   1.744  15.327   4.281 -0.0327 -0.3525  0.0884
12459W        W28533   5.360   6.076  14.213  0.0872  0.1883 -0.0953
12460W        W28534  11.336  15.033  16.263 -0.0853  0.2562  0.0658
12461W        W28535  13.072  13.100   2.433  0.2154  0.2633 -0.1879
12462W        W28536   6.588   6.834  12.316  0.0208 -0.3462  0.0962
12463W        W28537  10.157  15.166   1.698 -0.0070  0.0758 -0.1921
12464W        W28538   5.745   3.363   0.015  0.2854  0.0190  0.0791
12465W        W28539   1.493  18.129   0.031 -0.0704 -0.0596 -0.1139
12466W        W28540  16.263   7.943   1.897  0.1852  0.0093  0.2009
12467W        W28541   6.104  12.779  12.319 -0.2507  0.0862  0.0784
12468W        W28542  13.820  15.227   1.876  0.1466 -0.0682 -0.0029
12469W        W28543   0.828  16.427   0.796  0.5638 -0.1103  0.4191
12470W        W28544   1.794   6.040   1.212  0.2270 -0.1730 -0.4186
12471W        W28545   1.675   8.614  12.886 -0.1997 -0.1050  0.0450
12472W        W28546   1.579   1.236   0.380  0.0388  0.4375 -0.2961
12473W        W28547  14.221   2.071  12.847 -0.3570 -0.3203  0.0370
12474W        W28548   9.243   6.715  15.195  0.1522 -0.0334 -0.2323
12475W        W28549  17.676   6.188  11.925  0.1507  0.1691  0.1878
12476W        W28550  17.373  16.732   0.646  0.1096  0.0090  0.0930
12477W        W28551   1.280  15.130  13.312  0.0211 -0.2121  0.0607
12478W        W28552  11.448   0.207   1.866 -0.0043  0.1797  0.0647
12479W        W28553   8.444   6.291   3.553  0.0343  0.1157 -0.3436
12480W        W28554   3.691   1.320   1.109 -0.0789 -0.0686 -0.1467
12481W        W28555  13.707   9.207   1.220 -0.4822 -0.0570  0.1988
12482W        W28556   4.214  15.016  12.886  0.0052 -0.0107  0.0597
12483W        W28557  11.688  12.741  15.702 -0.2361  0.1849 -0.0685
12484W        W28558   3.272   8.723   2.831  0.2964 -0.1548 -0.4764
12485W        W28559   6.625  12.346  15.301  0.1124 -0.1519  0.2313
12486W        W28560   3.257  14.895   3.545 -0.3270 -0.0287  0.0974
12487W        W28561   6.602   0.615  13.609  0.0930  0.1787  0.0701
12488W        W28562   4.013  13.147  12.666  0.1382 -0.1460  0.3015
12489W        W28563  17.694   1.163   1.539  0.3918  0.1769 -0.2300
12490W        W28564   8.918  15.857   5.771  0.1267 -0.1339 -0.0794
12491W        W28565  10.161   1.280   3.233  0.0535  0.1716 -0.0975
12492W        W28566  17.151  17.315   1.131 -0.0683  0.0760  0.2596
12493W        W28567  17.963   6.570   4.904  0.1536  0.0496  0.0400
12494W        W28568   5.492  15.694   2.336 -0.1434  0.0321  0.1500
12495W        W28569   0.949   8.818  12.349 -0.0110 -0.1407 -0.0091
12496W        W28570   6.287  10.582   2.242 -0.0808  0.2092  0.1448
12497W        W28571   2.587   7.577   4.590 -0.2227  0.1108  0.0324
12498W        W28572   4.083   8.560  12.771 -0.1091  0.1852  0.1617
12499W        W28573   0.351   8.685  15.804 -0.0144 -0.1827  0.1111
12500W        W28574   1.381  15.917  11.346  0.0890  0.4228 -0.0571
12501W        W28575  11.351  12.974   3.094  0.0126  0.1076  0.3430
12502W        W28576  13.083   1.696   5.070  0.1425  0.0583  0.1233
12503W        W28577  17.309  12.657   1.984  0.4968  0.0706  0.2846
12504W        W28578   8.448   4.614   2.278 -0.0529 -0.0339  0.0779
12505W        W28579   7.806  11.551   5.708 -0.0816  0.1266 -0.0094
12506W        W28580   0.978   7.273   0.564  0.1534  0.0540  0.2158
12507W        W28581  11.025  17.532  14.115 -0.0315 -0.0271  0.0871
12508W        W28582   4.377  16.551   3.262 -0.1455 -0.0256 -0.0751
12509W        W28583   5.327  11.406  15.913  0.0100 -0.0192  0.0035
12510W        W28584  12.593   3.104   5.213  0.0310  0.0233 -0.1155
12511W        W28585   6.280  16.100  15.323  0.0353  0.2287  0.2128
12512W        W28586   3.934  16.298   5.798 -0.1755  0.1557 -0.2764
12513W        W28587   3.084   7.874  15.116  0.3536  0.0484 -0.1547
12514W        W28588   0.200   1.460  12.717  0.1952  0.0245  0.0354
12515W        W28589   3.877   6.938   5.347  0.3555 -0.0037 -0.0670
12516W        W28590   9.432   6.551  13.444  0.3583 -0.0016 -0.2742
12517W        W28591  10.874  16.406  16.263  0.1453 -0.0560  0.1548
12518W        W28592   0.984  17.904   3.753  0.4114 -0.3192 -0.2798
12519W        W28593  15.644   5.371  14.727 -0.0184 -0.0450 -0.0336
12520W        W28594   2.903   9.045   9.674  0.1360  0.0465  0.0137
12521W        W28595   5.324   6.135   1.411 -0.1055 -0.0239  0.1901
12522W        W28596  15.952   9.091  13.256  0.1854 -0.0322  0.3271
12523W        W28597   2.132   5.825  13.119 -0.1811  0.1379 -0.0787
12524W        W28598  17.217  13.372   1.502  0.0619  0.1088 -0.2713
12525W        W28599  18.147  10.999   0.190 -0.0673 -0.3999 -0.2207
12526W        W28600  15.387  18.235  15.634  0.1536 -0.2734  0.1040
12527W        W28601   1.358   6.995  11.417 -0.1371 -0.1001  0.0989
12528W        W28602  17.482   7.725  14.405 -0.2204  0.1627 -0.3210
12529W        W28603  17.385   8.724   5.499 -0.0201 -0.0839 -0.3104
12530W        W28604  18.210   8.434  11.615 -0.0972 -0.2241 -0.2609
12531W        W28605  13.591  17.827  14.283  0.0902  0.1496 -0.1941
12532W        W28606   4.463   9.053  12.164 -0.0106 -0.4318  0.2029
12533W        W28607   5.380  13.535   2.794  0.0395 -0.0876 -0.0578
12534W        W28608   5.400  12.532  16.234  0.3624  0.3268  0.3686
12535W        W28609   0.570  15.644   6.444 -0.3536  0.0198  0.4354
12536W        W28610   7.214  11.726  15.023 -0.3950 -0.1892  0.1185
12537W        W28611  14.870   8.000   3.701 -0.0971  0.2820 -0.1362
12538W        W28612   4.193   7.447  11.078  0.0535 -0.0445 -0.0427
12539W        W28613   2.339  11.513  16.185 -0.0671 -0.0432  0.0673
12540W        W28614  14.731   3.112   5.764 -0.4444 -0.0111 -0.4475
12541W        W28615   6.295  17.771  14.005  0.2695  0.1024  0.3506
12542W        W28616   7.192   9.514   3.368  0.1159 -0.3816  0.1486
12543W        W28617   3.906   6.091   5.716 -0.1909  0.0861 -0.1202
12544W        W28618  12.072   3.211  11.729  0.1837  0.0408  0.2723
12545W        W28619   5.344  12.960   4.680 -0.0709  0.0310  0.0431
12546W        W28620  14.912  11.393   5.758  0.0917 -0.0975  0.0346
12547W        W28621   8.763  14.876   1.910 -0.1328  0.0596 -0.0363
12548W        W28622  15.242  13.793   0.771  0.0124  0.0886 -0.2423
12549W        W28623  17.663  11.616   0.517 -0.0630  0.1512  0.1807
12550W        W28624  13.616  16.189   4.236 -0.0025  0.3570  0.2036
12551W        W28625  16.208   9.406   5.865  0.0477 -0.0221 -0.1886
12552W        W28626   2.417  11.495  14.181 -0.2014 -0.1378 -0.1284
12553W        W28627  14.056   5.952   2.290 -0.1959  0.2048 -0.0500
12554W        W28628  10.323   0.248  12.505 -0.2909  0.0015 -0.0486
12555W        W28629   1.197   2.417   1.420 -0.0109 -0.1816 -0.1526
12556W        W28630   0.264   4.024  13.091 -0.2109 -0.0593 -0.1566
12557W        W28631  13.399   5.134  14.575 -0.4366 -0.0092  0.0741
12558W        W28632   2.605  15.858  13.933 -0.1538 -0.1214 -0.0327
12559W        W28633  11.253  18.210  12.945 -0.0913 -0.2565  0.0509
12560W        W28634   6.715   0.475   0.577 -0.3498 -0.0436  0.1931
12561W        W28635  14.686   2.146   2.050 -0.1788 -0.2410  0.0418
12562W        W28636   0.277   7.943   0.917 -0.0643 -0.2610  0.1298
12563W        W28637   6.299   2.923  11.906 -0.0106  0.0239 -0.0040
12564W        W28638   8.382  17.766  12.574  0.3889 -0.0078 -0.4347
12565W        W28639   1.044  15.248  11.578 -0.1649  0.0348 -0.0934
12566W        W28640   5.339   9.962  15.197 -0.0785  0.4890  0.2003
12567W        W28641  13.690   1.662   4.081  0.0337  0.3382 -0.2419
12568W        W28642   4.387   1.402   0.319 -0.2532 -0.1407 -0.3565
12569W        W28643   4.968  11.235  16.178 -0.0840 -0.0493  0.0695
12570W        W28644   3.968   5.979  16.147 -0.0274  0.0208 -0.2436
12571W        W28645  17.945   4.328   2.790  0.0677  0.0048 -0.0962
12572W        W28646   0.532  16.181  15.980  0.1126 -0.0750 -0.1222
12573W        W28647  11.289   0.241   4.816  0.0821  0.1564  0.0913
12574W        W28648   6.154   3.749   6.042  0.1552 -0.1054 -0.3547
12575W        W28649   1.999   2.513   5.001 -0.0095  0.1722 -0.2240
12576W        W28650  10.288   4.194  12.568  0.0390  0.1094  0.0769
12577W        W28651  13.128  11.713  16.073  0.4585  0.0476 -0.1226
12578W        W28652  17.086  12.383  16.227  0.0526 -0.0242  0.1893
12579W        W28653   0.621  12.469   4.090  0.0843  0.1367 -0.1788
12580W        W28654  15.109   5.569   5.600  0.0199  0.3082 -0.2170
12581W        W28655  17.705  13.275  10.642 -0.2601 -0.2932 -0.0205
12582W        W28656   4.650   1.006   1.017 -0.0888  0.0669 -0.0294
12583W        W28657  13.631   6.589  13.991 -0.0468  0.2053  0.3023
12584W        W28658   0.106  10.869   5.447  0.2552 -0.0503 -0.1825
12585W        W28659  16.926   9.463   3.467 -0.0047 -0.6473 -0.1876
12586W        W28660  12.569  14.627  12.963 -0.0925  0.1837 -0.1594
12587W        W28661  16.506  12.121   1.250 -0.1031  0.0211 -0.0104
12588W        W28662   8.136  10.659   3.600 -0.2311  0.1888 -0.0623
12589W        W28663  15.422   2.191  11.894  0.0281  0.0117 -0.0273
12590W        W28664  14.465  10.350  11.641  0.1551  0.0165  0.1766
12591W        W28665   1.400   4.435   1.767  0.1834 -0.1520  0.3060
12592W        W28666   5.956   5.693  15.075 -0.3399  0.2267  0.1665
12593W        W28667  15.012   5.270  12.257  0.0762  0.1059 -0.2740
12594W        W28668  11.696   7.479  14.480  0.2909  0.3871  0.1883
12595W        W28669  12.137  14.818   4.964  0.0931  0.1656  0.0444
12596W        W28670  14.472   0.058  11.383 -0.2790  0.3337 -0.1625
12597W        W28671  14.057   3.376  15.327  0.0452  0.1394 -0.0294
12598W        W28672  18.148  16.011   1.483 -0.0394  0.3137  0.1803
12599W        W28673   4.806   7.552  12.401  0.2454  0.2347 -0.1001
12600W        W28674   7.095   8.642  15.749 -0.3279 -0.1812 -0.2079
12601W        W28675   9.203  13.153   1.574  0.0449 -0.2948  0.0858
12602W        W28676  16.426  15.225  15.328  0.0849  0.0809  0.1252
12603W        W28677   9.848   9.710  14.801  0.0818  0.0007  0.1291
12604W        W28678  10.223   5.211   6.516 -0.0645  0.0311 -0.1189
12605W        W28679  13.051   1.904   0.762  0.0700 -0.0306 -0.0332
12606W        W28680   7.332  18.073  13.777 -0.3383 -0.1207  0.2744
12607W        W28681  13.589  12.340   0.105 -0.0645 -0.0538 -0.0614
12608W        W28682   3.316   0.761  15.587 -0.1066  0.0750  0.0635
12609W        W28683  11.783  18.166  14.109  0.0819  0.0815 -0.4210
12610W        W28684   2.995   0.134   1.006  0.0038 -0.0054  0.1061
12611W        W28685   2.898   6.135  12.541 -0.1485  0.1549 -0.0660
12612W        W28686  13.936   9.967   3.457  0.5832  0.0124 -0.0522
12613W        W28687  14.101   1.715   2.474 -0.0297 -0.0104 -0.1892
12614W        W28688   7.450   4.025  15.634  0.2162 -0.1787  0.1946
12615W        W28689  16.578   4.797   3.953 -0.1208  0.1871 -0.0905
12616W        W28690   6.627   6.968  13.455 -0.1139  0.1061  0.0148
12617W        W28691  12.540   6.779  12.990  0.2882  0.0670  0.2237
12618W        W28692   6.554   5.847  11.582  0.0609 -0.3555 -0.3098
12619W        W28693   3.267   9.198   4.676 -0.0055  0.2792 -0.0846
12620W        W28694   0.684  13.435   1.984 -0.1022  0.1306 -0.0742
12621W        W28695   5.450  11.787   3.221  0.3442  0.0453 -0.3280
12622W        W28696  12.842  14.835  11.994 -0.0481  0.2606 -0.2640
12623W        W28697  13.642   3.554  13.662  0.1271  0.5845  0.1474
12624W        W28698  10.353   1.244  13.534 -0.0246  0.1465 -0.1018
12625W        W28699   8.963  13.090   5.210  0.0015  0.0415  0.1092
12626W        W28700   4.390  17.123   0.595  0.0544  0.1814  0.0775
12627W        W28701  10.670   3.888  12.691 -0.2015 -0.4464 -0.1086
12628W        W28702   4.702   5.716   4.362 -0.3620  0.0517  0.2027
12629W        W28703  13.887  10.828   0.418  0.0523  0.1594  0.0296
12630W        W28704  17.497   1.888  13.504  0.0908 -0.3189 -0.1714
12631W        W28705   5.728  11.617   4.147  0.1021  0.1337  0.0183
12632W        W28706  12.232  10.629   4.154  0.1985 -0.0188  0.0086
12633W        W28707   8.919   7.216  11.469  0.0200 -0.0137 -0.0232
12634W        W28708  15.657  12.411   5.373  0.0450 -0.0723  0.0130
12635W        W28709   2.131   1.123   3.223  0.0890  0.3122  0.3315
12636W        W28710  17.113   2.764   2.992 -0.0034 -0.1325 -0.3376
12637W        W28711   6.173   1.978  12.914 -0.0292  0.2732 -0.0585
12638W        W28712   5.150   9.899  15.685 -0.2506  0.1958  0.0033
12639W        W28713  12.547   7.768  13.375  0.0789  0.2190  0.1923
12640W        W28714  13.038   1.631   1.190  0.0762 -0.0349  0.0023
12641W        W28715   9.376  15.594   0.245 -0.1423  0.0398 -0.2921
12642W        W28716  10.682  11.999   1.901  0.1850  0.0290 -0.0107
12643W        W28717   3.390  14.006   1.501 -0.3300 -0.3456 -0.0224
12644W        W28718  13.590   9.959   4.073  0.2033 -0.1981 -0.1726
12645W        W28719   7.756   3.030  15.502  0.2617 -0.1729 -0.3836
12646W        W28720   0.034   7.898  15.785  0.0728  0.1344  0.1425
12647W        W28721   4.905   6.420   4.746  0.0467  0.2679  0.0729
12648W        W28722   3.775   3.080   3.714 -0.1302 -0.0771 -0.4791
12649W        W28723  10.979  16.614  12.955  0.2228 -0.1585  0.4782
12650W        W28724  11.994  14.859   4.345 -0.2392 -0.2210 -0.0588
12651W        W28725   3.985   5.258   2.282 -0.3759  0.1695 -0.0527
12652W        W28726   6.513   9.937   0.268 -0.0938 -0.0590 -0.1292
12653W        W28727  14.761   3.427   2.245 -0.0824 -0.0542  0.0120
12654W        W28728   5.435   5.001  15.618  0.0015 -0.0441  0.3765
12655W        W28729  13.159   8.236  14.686 -0.2351 -0.0182 -0.0750
12656W        W28730   5.816   3.329   3.181 -0.1394 -0.1973  0.0573
12657W        W28731  16.339  12.860   0.034 -0.0126 -0.0808  0.0444
12658W        W28732   8.604   1.427   4.323  0.1891 -0.1381  0.1742
12659W        W28733  11.014   9.683  12.104  0.1686 -0.4016  0.1290
12660W        W28734   7.913  14.560  12.630 -0.1116 -0.2636  0.1167
12661W        W28735  16.760   5.646  12.287  0.0649  0.1751 -0.0979
12662W        W28736   1.438   1.754  12.962 -0.1040  0.2347  0.1101
12663W        W28737  16.017  11.145   4.533  0.0388  0.0948  0.0121
12664W        W28738   9.226  10.672  12.307  0.2200  0.0004 -0.5160
12665W        W28739   0.909   7.002   4.146  0.0923 -0.1780  0.5505
12666W        W28740   7.498  11.078   3.415  0.0136 -0.1408 -0.0538
12667W        W28741   0.140  15.770   1.901  0.1115 -0.1015 -0.0090
12668W        W28742  15.993   6.340  11.343 -0.0919 -0.0378  0.0777
12669W        W28743   3.734   9.125  10.634 -0.2402 -0.2559 -0.1796
12670W        W28744   8.959   2.605   4.869  0.1352  0.1393 -0.1622
12671W        W28745  11.206  11.037   3.234 -0.0312 -0.0352 -0.0371
12672W        W28746  16.282  15.676  13.091 -0.1975 -0.1031 -0.1595
12673W        W28747   4.698  17.485   4.275 -0.1181 -0.1646  0.3042
12674W        W28748   4.383   6.431  14.939  0.4639 -0.1183 -0.0726
12675W        W28749   3.625   2.123   5.620  0.2187  0.0798 -0.1045
12676W        W28750   2.383  16.186   3.095 -0.0444  0.0672  0.2747
12677W        W28751   0.034  12.133  11.945  0.0819 -0.2803 -0.1174
12678W        W28752   9.266  11.866   6.330  0.2314 -0.1278 -0.0156
12679W        W28753   4.963   5.161   1.060 -0.0751 -0.2869 -0.0640
12680W        W28754   0.923   8.334  12.227 -0.0785  0.1161  0.3464
12681W        W28755   2.931   9.342   3.782 -0.0256 -0.1354 -0.0482
12682W        W28756  10.658  16.313   2.199  0.1917 -0.2681 -0.2465
12683W        W28757   7.442  16.839  15.125  0.1211 -0.1542 -0.2307
12684W        W28758   3.892   6.572  14.195 -0.0318  0.3546 -0.0238
12685W        W28759  12.625   7.603   0.445  0.0533 -0.1276  0.0373
12686W        W28760   9.798   6.846   0.534 -0.2972 -0.0558 -0.1556
12687W        W28761   4.500  17.868   4.473  0.2132  0.0618 -0.0101
12688W        W28762   7.060   2.657  13.977  0.0409  0.0096 -0.1551
12689W        W28763  11.573   4.513  12.684 -0.0729 -0.0089 -0.0204
12690W        W28764   8.943   3.618   6.004  0.1713  0.0092  0.0651
12691W        W28765  14.452   0.940   4.755 -0.0954  0.0647 -0.1130
12692W        W28766  15.992   5.132   4.485 -0.1289 -0.2306 -0.1236
12693W        W28767   0.538  15.544  12.893 -0.0894 -0.2007 -0.2983
12694W        W28768   8.026   7.265  16.164  0.0089  0.1833 -0.2046
12695W        W28769   6.820  12.229   1.552 -0.1029 -0.1704  0.1751
12696W        W28770   1.783   7.497   4.753 -0.2931 -0.1106  0.0696
12697W        W28771  16.505  13.688   5.271  0.1008 -0.2214 -0.0267
12698W        W28772   4.124  17.288   0.196 -0.1163  0.2760  0.2004
12699W        W28773  14.283  11.903  13.463  0.0478 -0.0704 -0.2100
12700W        W28774   7.167   5.848  13.604  0.3309 -0.2154  0.1935
12701W        W28775   6.708  10.547  15.067 -0.0833 -0.0826 -0.1500
12702W        W28776  16.746  11.927  11.376  0.0721 -0.3914  0.1053
12703W        W28777   9.036  10.595   3.294 -0.0022  0.0311  0.3751
12704W        W28778   9.020   6.146   0.031  0.1372 -0.2433  0.1930
12705W        W28779   4.717   0.595  16.184 -0.4677 -0.1161  0.0031
12706W        W28780  14.041  13.453   0.046  0.2811  0.2063 -0.0198
12707W        W28781   2.015  12.221   2.068 -0.1080  0.0616  0.1465
12708W        W28782  13.647   0.159   0.118  0.3242  0.0063  0.2594
12709W        W28783   0.879  13.447   1.196 -0.0134  0.0228  0.2086
12710W        W28784   8.841  11.757  14.675 -0.0041 -0.0410 -0.1526
12711W        W28785  17.571   6.179   4.235 -0.1512 -0.1650 -0.0213
12712W        W28786   4.181  16.600   5.074 -0.1299  0.0168  0.2765
12713W        W28787   3.156   5.595   2.712  0.0772  0.0129  0.0962
12714W        W28788   0.676  10.402   0.517  0.2222  0.0301 -0.2818
12715W        W28789   8.242   3.036  13.074 -0.0837 -0.1971  0.2738
12716W        W28790  14.677   1.774   5.710  0.2301 -0.3323  0.3771
12717W        W28791   5.871  10.550   5.693 -0.2607 -0.0160  0.1668
12718W        W28792  14.811   0.920   6.156 -0.0426 -0.0817 -0.1027
12719W        W28793   5.930  12.421  11.942 -0.2512  0.3506 -0.0432
12720W        W28794  14.661   9.000   1.627  0.1295  0.1222 -0.1468
12721W        W28795   9.411  16.427  11.771  0.1131  0.2524 -0.0256
12722W        W28796   0.153  13.250  12.340 -0.1506  0.2673  0.1725
12723W        W28797   3.487   7.325   6.106  0.1300 -0.1234 -0.2410
12724W        W28798   4.384   8.653   6.072  0.1864 -0.0974 -0.0876
12725W        W28799   8.222   2.094  13.518  0.2694 -0.1056  0.3491
12726W        W28800   3.543  15.895  14.135  0.1222  0.4693 -0.0667
12727W        W28801  13.874  15.317   4.605  0.0096  0.0537 -0.0203
12728W        W28802   8.633  15.775  14.547  0.0522  0.2490 -0.1822
12729W        W28803   4.064   4.301  12.439  0.3218  0.2493 -0.1571
12730W        W28804  17.857  16.680   0.823 -0.1691 -0.0558 -0.0395
12731W        W28805   9.405  14.873   4.851 -0.0863 -0.0577  0.0331
12732W        W28806   5.869   1.186   5.440 -0.5395 -0.0292  0.0508
12733W        W28807  15.713  10.237   2.903  0.3066  0.3613 -0.1966
12734W        W28808   5.521  12.196   0.111  0.0651  0.1997  0.4148
12735W        W28809   1.531   8.858  13.420  0.1444 -0.0366 -0.0746
12736W        W28810   0.920  16.216  13.333 -0.0798 -0.1903 -0.1079
12737W        W28811   3.902  17.823   6.156  0.0041  0.1189  0.4011
12738W        W28812  12.705   4.095   1.582 -0.1003 -0.1704  0.0947
12739W        W28813  12.858   1.254  14.188 -0.1575  0.0621 -0.3739
12740W        W28814  17.305  10.080  14.202 -0.2704 -0.0088  0.1684
12741W        W28815   6.745   3.595   4.172 -0.0146 -0.2299  0.0703
12742W        W28816  15.802   0.131   3.126 -0.2470  0.2913 -0.0672
12743W        W28817   8.971  12.311  13.757  0.1946 -0.2318  0.1694
12744W        W28818   7.671   4.586  13.911 -0.1318  0.1991  0.2146
12745W        W28819  13.191   1.943  15.094  0.3980 -0.1799  0.0887
12746W        W28820  12.239   8.371  16.466 -0.3299  0.2119  0.2481
12747W        W28821   8.056  15.991   4.797  0.0864 -0.7413  0.2233
12748W        W28822  13.809   3.267  12.239 -0.2231  0.3523 -0.2012
12749W        W28823   3.662  15.210   2.653  0.2840  0.0185  0.0603
12750W        W28824  17.521  10.111  14.638 -0.3749  0.1510 -0.4460
12751W        W28825   7.937   1.021  14.467  0.0184 -0.2432  0.0378
12752W        W28826  13.182  10.331   0.729  0.1288  0.2030  0.0988
12753W        W28827   0.617  17.373   1.050 -0.0920  0.1335  0.0752
12754W        W28828   3.956   3.992   0.226 -0.4984 -0.1580 -0.0427
12755W        W28829  16.290  16.592   4.910  0.1442 -0.1316  0.0247
12756W        W28830   0.724   5.019   2.289  0.0446  0.1805 -0.0148
12757W        W28831   0.509   0.205   4.237  0.0953 -0.0154 -0.1979
12758W        W28832   2.577   8.979   5.958  0.2292 -0.0726 -0.1057
12759W        W28833  16.212  15.709   1.711  0.0596 -0.0930 -0.2225
12760W        W28834   8.081   3.296   4.363  0.1475 -0.1571 -0.0747
12761W        W28835  17.681   0.955   3.278  0.0135  0.1166 -0.1433
12762W        W28836   8.379   9.351  14.610  0.0229 -0.0425  0.0481
12763W        W28837   8.374  15.283  15.637 -0.0182  0.1469 -0.1358
12764W        W28838   0.635   4.704   3.406 -0.1945 -0.3163  0.0468
12765W        W28839   3.833   0.550  12.224  0.2055  0.3353 -0.0249
12766W        W28840  13.029   8.697   3.280  0.0706 -0.0254  0.0544
12767W        W28841   9.686  14.941  15.669 -0.0334  0.2148  0.1375
12768W        W28842   5.344   2.867  15.186 -0.1766 -0.1192  0.0521
12769W        W28843  16.096   2.004   1.179 -0.2431  0.1386 -0.3477
12770W        W28844   2.124   9.500  10.961  0.1233 -0.0903  0.2283
12771W        W28845   2.585  16.261   0.477 -0.1058  0.5001  0.3226
12772W        W28846   8.394  16.773  12.809 -0.1856  0.0702 -0.1503
12773W        W28847  12.986  17.257  15.107 -0.0411 -0.1505 -0.1023
12774W        W28848   5.805   2.932  14.301 -0.0234 -0.2677  0.3626
12775W        W28849   1.953   0.034  15.518 -0.0578 -0.1445  0.0936
12776W        W28850   9.067  18.004   0.030 -0.1711  0.0165  0.0838
12777W        W28851  12.633   4.870   2.101  0.1552 -0.2045  0.2006
12778W        W28852  13.488   2.641  15.641  0.1868  0.2060 -0.1125
12779W        W28853   8.183   2.195  16.447 -0.2012 -0.0122  0.0918
12780W        W28854   5.724  13.264   0.795  0.2499  0.2341 -0.0309
12781W        W28855  11.894   6.934   3.031  0.2513  0.3128  0.0660
12782W        W28856   1.732   3.120   0.752 -0.0583  0.1059  0.0144
12783W        W28857  16.021   5.061  14.196  0.0501  0.1386 -0.0465
12784W        W28858  14.210  10.840   1.786  0.2276  0.2148  0.1555
12785W        W28859  16.113  17.918  11.724  0.1304 -0.2613  0.4567
12786W        W28860  18.027   8.024  14.394 -0.1676 -0.0748  0.1666
12787W        W28861  17.982   4.918  15.189 -0.3675  0.1433  0.3360
12788W        W28862   0.411   7.560  11.844 -0.1003 -0.0573  0.4031
12789W        W28863   5.639   2.892  16.495  0.3439 -0.1966  0.1581
12790W        W28864   9.290  17.696  12.271  0.0640 -0.0881 -0.2192
12791W        W28865  17.926  10.294   2.372 -0.3278  0.1197  0.2233
12792W        W28866   8.057   1.109  13.946 -0.0730  0.3522 -0.1172
12793W        W28867   3.147  13.018  11.707  0.1985 -0.0091  0.0143
12794W        W28868   5.322   2.530   2.742  0.0973  0.0690 -0.0278
12795W        W28869   9.181   5.910  12.105  0.1944  0.3836  0.1822
12796W        W28870   7.855  17.951  14.951  0.0264 -0.2316 -0.1915
12797W        W28871   1.751   6.339  11.405 -0.2400 -0.1852  0.4765
12798W        W28872  16.463   3.893   5.040  0.0920 -0.1859 -0.0156
12799W        W28873   2.538  15.118  11.373 -0.0930  0.2726  0.3856
12800W        W28874  17.067  12.587  15.496 -0.2384 -0.0435  0.0788
12801W        W28875   3.588  14.007  12.953 -0.1144  0.2655  0.0877
12802W        W28876   1.956   7.138  14.373  0.2505 -0.1141 -0.1738
12803W        W28877  12.195   9.537   1.261  0.2490 -0.0962 -0.1225
12804W        W28878   4.062  12.859   1.754 -0.2301  0.1581  0.0472
12805W        W28879   1.189   8.835   3.643  0.1368 -0.1248  0.0977
12806W        W28880  11.190   6.213   5.261  0.1280 -0.0812  0.1068
12807W        W28881   7.649   8.353  12.809  0.0301 -0.1507  0.1018
12808W        W28882   1.733   2.845   0.360  0.3662 -0.0483 -0.3799
12809W        W28883   5.929  10.981   5.444  0.1516 -0.2693  0.0112
12810W        W28884   2.983   1.705   5.883  0.2397 -0.1153  0.1088
12811W        W28885   6.078   0.933   3.574 -0.1518 -0.2000  0.0680
12812W        W28886   2.380   5.266  14.613 -0.2168 -0.0683  0.2921
12813W        W28887  11.122   6.035  15.164  0.0149  0.2140 -0.0649
12814W        W28888   1.817  13.284   4.193  0.1509 -0.0205 -0.1689
12815W        W28889   5.601  10.645   5.208  0.0024  0.0531 -0.2188
12816W        W28890   3.162   3.122   6.361  0.1187  0.0480  0.1908
12817W        W28891  10.782   3.775   2.939  0.2271  0.0499 -0.0857
12818W        W28892   6.089   9.560   0.258 -0.2132  0.0469  0.2449
12819W        W28893   7.618   9.219   3.166 -0.2429 -0.3256  0.0830
12820W        W28894   0.293   8.624   1.646 -0.0446  0.2418  0.0261
12821W        W28895   4.700   8.094   4.416 -0.2741 -0.4516  0.1134
12822W        W28896  14.903  17.634   1.132  0.0445 -0.4956  0.0112
12823W        W28897  11.687  15.882  12.146  0.1239  0.3992  0.0074
12824W        W28898  14.012   4.854  12.530 -0.1597 -0.0401 -0.4584
12825W        W28899   2.511  17.072   3.597  0.1588  0.0803 -0.0321
12826W        W28900  16.144   1.355   1.328  0.0911  0.2199  0.1245
12827W        W28901   7.909   9.568  12.368 -0.0618  0.1135 -0.0264
12828W        W28902  18.230  10.652  14.656  0.0765  0.1434  0.5077
12829W        W28903   6.178   0.554   3.230 -0.1850  0.1008  0.0765
12830W        W28904   5.163  11.107   0.865  0.1853  0.1036  0.1713
12831W        W28905  13.025   3.185   5.456 -0.1953 -0.4980  0.5320
12832W        W28906   6.689   7.383  12.390 -0.0325 -0.2303  0.0187
12833W        W28907   8.445  14.386  12.296 -0.0422 -0.0154 -0.1209
12834W        W28908  15.630   3.798   1.123  0.1739  0.0816  0.0188
12835W        W28909   0.495   9.235   2.644 -0.3328  0.1086  0.1017
12836W        W28910  14.412  10.402  13.912  0.2814 -0.3731 -0.0159
12837W        W28911   4.408   1.773   2.627  0.0483 -0.1250 -0.0795
12838W        W28912   6.760   4.076   4.177 -0.0316 -0.1179 -0.3338
12839W        W28913   9.715   8.119  12.499 -0.0447 -0.0014  0.0181
12840W        W28914   8.479  12.134   0.532 -0.0206  0.1335 -0.0856
12841W        W28915  10.778  16.750   3.485 -0.1256  0.1804 -0.0046
12842W        W28916  14.433   4.415   3.177  0.2720  0.0882  0.0996
12843W        W28917   2.508   2.536   5.727  0.0498 -0.1166  0.0920
12844W        W28918  16.572   2.300  13.621  0.0483 -0.0301 -0.0453
12845W        W28919  14.464   0.755  12.491 -0.2295  0.0612 -0.3003
12846W        W28920   6.580  17.626   0.900  0.1329  0.0144 -0.2070
12847W        W28921   6.798  17.613  16.080  0.1355 -0.2450 -0.0745
12848W        W28922  16.098  16.343   0.069 -0.3107 -0.2978  0.0342
12849W        W28923  11.755   4.759  16.067 -0.1041  0.0494 -0.1091
12850W        W28924   5.479   1.885  10.739  0.2917  0.1155  0.1387
12851W        W28925   1.044  14.064  12.549  0.0745  0.1433 -0.1934
12852W        W28926   4.818   5.395  12.459 -0.2863 -0.1420 -0.1646
12853W        W28927   3.750   5.840   1.365 -0.2221  0.4896  0.1998
12854W        W28928  16.650   2.562   5.163  0.2805  0.2958  0.1384
12855W        W28929   7.798   2.361  14.349 -0.5029  0.0350 -0.0346
12856W        W28930   7.123   0.079   5.406  0.0404 -0.0790  0.1271
12857W        W28931  14.732  16.329  12.716 -0.0112  0.3556 -0.1187
12858W        W28932  11.944  11.161   6.242  0.1038 -0.2064 -0.2980
12859W        W28933   1.408   3.335  14.657 -0.1214 -0.2155  0.0575
12860W        W28934   6.306   4.729  10.802  0.0995 -0.0838 -0.1240
12861W        W28935   2.907  10.051  10.048 -0.0431  0.0383  0.1242
12862W        W28936  14.991   5.360   3.906 -0.0246  0.3951 -0.0121
12863W        W28937   2.952   2.177  15.573 -0.0871 -0.1287  0.1425
12864W        W28938   7.657   1.220   4.380 -0.0942 -0.2052  0.0756
12865W        W28939   2.889   7.366  11.542 -0.2012 -0.0821 -0.0120
12866W        W28940   6.552  16.085  15.791  0.1353  0.0907 -0.0886
12867W        W28941   4.738  16.801  14.589 -0.1054 -0.0531 -0.0462
12868W        W28942  11.372  15.702   1.247 -0.0007 -0.0146  0.1552
12869W        W28943   6.548  10.586  11.714 -0.0607  0.0716  0.2970
12870W        W28944   6.951   7.247  15.931 -0.2595 -0.1621 -0.0216
12871W        W28945   3.717  17.616   0.132  0.0329  0.0527  0.1925
12872W        W28946  16.192  10.724  12.238 -0.0775  0.2635  0.0860
12873W        W28947  10.221   4.527   2.087 -0.3796 -0.3148  0.0363
12874W        W28948   6.848   1.440  13.010  0.3204  0.1988 -0.3910
12875W        W28949   6.883  12.094  13.459 -0.1073 -0.1489 -0.1396
12876W        W28950  11.477  11.611   0.024 -0.1463  0.1855 -0.1825
12877W        W28951   3.951   1.983  15.167  0.0727  0.0683  0.0440
12878W        W28952   4.675   1.907  12.897  0.2854 -0.3927  0.2171
12879W        W28953   9.824   5.382   5.409  0.0659  0.1780  0.0956
12880W        W28954   1.753   6.966  15.345 -0.2205 -0.1664 -0.0569
12881W        W28955  16.720   1.702   3.137 -0.1840 -0.2390  0.1624
12882W        W28956   0.360  16.337  13.335 -0.0496 -0.2331 -0.0403
12883W        W28957   3.785   1.576  12.954  0.1614 -0.1299 -0.1836
12884W        W28958  18.080  16.517  14.207  0.1299 -0.0947 -0.1925
12885W        W28959  12.768  13.566  14.375  0.0758 -0.0111  0.2541
12886W        W28960  17.973  10.176  10.735  0.0079 -0.2264 -0.1280
12887W        W28961  10.206   4.668   4.857  0.0127  0.0957 -0.0608
12888W        W28962   9.347   0.448   5.252 -0.4500 -0.0067 -0.1690
12889W        W28963  13.345   6.504  12.753 -0.1049 -0.0031 -0.0056
12890W        W28964   5.078  13.517  14.386 -0.0287 -0.2083  0.0326
12891W        W28965   5.104   6.617  11.428  0.0707  0.3792  0.1847
12892W        W28966   2.677   7.522   5.074 -0.0895  0.2702 -0.1809
12893W        W28967  18.117  18.074   5.514  0.1130  0.2129  0.0010
12894W        W28968   6.311  13.414  15.623 -0.0494  0.0658  0.1628
12895W        W28969  14.016  10.111  13.782 -0.0495  0.1677  0.1645
12896W        W28970   2.735   9.798   3.853  0.0512  0.0360  0.0243
12897W        W28971   2.189   0.795   0.257 -0.2709  0.1392  0.1110
12898W        W28972  10.041  17.979   5.898 -0.1529 -0.1886  0.1269
12899W        W28973  14.901  11.487  14.625  0.0273  0.1823  0.1607
12900W        W28974   8.092   7.056   5.240  0.1699  0.1378  0.0165
12901W        W28975  10.918  13.111   2.718  0.1048  0.0370 -0.0508
12902W        W28976   0.362  11.757   2.076  0.1793 -0.3238 -0.0224
12903W        W28977  16.929  12.197   1.014  0.1891  0.2523  0.2658
12904W        W28978  16.659   9.206   3.835  0.0843  0.3226 -0.1803
12905W        W28979   8.796   3.955  11.992  0.1855  0.0991  0.1534
12906W        W28980   4.861   8.294  11.218 -0.3283  0.2187  0.1522
12907W        W28981   7.977  11.959  15.714 -0.3124 -0.0189 -0.0850
12908W        W28982   7.094  11.357   1.850 -0.2409 -0.0260  0.0464
12909W        W28983  14.615   3.789   1.806  0.2700 -0.0717 -0.3178
12910W        W28984   8.470   1.091  15.685 -0.2415  0.2060  0.0222
12911W        W28985  15.405   8.656  12.593 -0.1424 -0.0399  0.1534
12912W        W28986  11.190   7.869   2.218  0.1469  0.2414 -0.2959
12913W        W28987   8.588   1.634   6.075  0.0332 -0.0235 -0.2548
12914W        W28988   1.173   3.553  16.369  0.3127 -0.2171  0.3812
12915W        W28989   6.467   7.425  14.236 -0.0874 -0.0451 -0.2234
12916W        W28990  16.114   1.955  12.968 -0.0205  0.0963  0.0502
12917W        W28991  11.818   2.163   4.723  0.0910 -0.3966 -0.2340
12918W        W28992  15.050   8.329   5.496  0.0452 -0.2062 -0.2199
12919W        W28993   0.305   6.848  12.016  0.3043 -0.0120  0.1095
12920W        W28994   3.089   1.703  14.149 -0.2346 -0.1014 -0.1895
12921W        W28995  16.163  11.185   1.838 -0.1642 -0.0564 -0.2067
12922W        W28996   8.872  15.313  12.597 -0.0434  0.0767 -0.0235
12923W        W28997   5.578  17.723  14.314  0.1125  0.1967  0.0220
12924W        W28998  13.437   5.952   1.028  0.0651 -0.3080 -0.3291
12925W        W28999   8.425  14.686   4.613  0.3424  0.0778  0.0808
12926W        W29000  11.586  14.517  12.468 -0.2207 -0.0062 -0.1352
12927W        W29001   9.617   2.353  13.372  0.2685 -0.5184 -0.0165
12928W        W29002  11.226   5.158   1.207  0.4253  0.0818 -0.2057
12929W        W29003   5.111   3.304   5.344 -0.3523  0.2111 -0.1757
12930W        W29004   0.735  14.853   2.671  0.2383  0.0752 -0.4258
12931W        W29005   1.046  13.152   2.765 -0.0416  0.3891  0.1632
12932W        W29006  14.269  14.878  14.454  0.0632 -0.2502 -0.1728
12933W        W29007  13.737   1.348   1.142 -0.2131  0.2099  0.1556
12934W        W29008   2.235   4.814   1.913 -0.1360  0.1449 -0.1738
12935W        W29009   0.998   4.673  14.177 -0.0705 -0.2268  0.2058
12936W        W29010  13.421   2.140  15.588 -0.1195  0.2713  0.0342
12937W        W29011   9.436   8.031   3.594 -0.2369  0.1952 -0.1092
12938W        W29012   3.651   5.857  15.045 -0.2952 -0.0825  0.4013
12939W        W29013   3.613   1.321   2.831  0.2278  0.3929 -0.2666
12940W        W29014   8.940  14.204   2.989 -0.4123 -0.2289 -0.0189
12941W        W29015   6.823   0.748   4.662  0.1183  0.2852 -0.0916
12942W        W29016  13.851   1.364   5.395 -0.0751  0.0067 -0.0039
12943W        W29017   7.390   4.867  14.163 -0.0981  0.4483 -0.3500
12944W        W29018   5.265  17.595  15.312 -0.0738  0.3564 -0.2390
12945W        W29019   4.230  12.915  11.973 -0.1618 -0.1913 -0.3946
12946W        W29020   7.309   2.663   3.257  0.2367 -0.0330 -0.0158
12947W        W29021  11.185   0.474  11.881  0.0909 -0.2579  0.1863
12948W        W29022  13.065  10.083  12.732 -0.0775 -0.0155 -0.1704
12949W        W29023  12.202   0.520   2.466 -0.0782  0.0376 -0.0799
12950W        W29024   0.046   9.803  11.695  0.1576  0.1817 -0.1360
12951W        W29025  15.011  10.503   5.337 -0.1118  0.1360 -0.1007
12952W        W29026   3.069  14.391   1.611 -0.0935 -0.1909 -0.1330
12953W        W29027  14.420  14.110   4.179  0.0584 -0.1910  0.1744
12954W        W29028   2.942  17.358   1.525  0.0309 -0.3003 -0.3225
12955W        W29029   8.517  16.265  12.961  0.2719  0.3636  0.1916
12956W        W29030   6.909  13.137   4.382  0.0204 -0.0571 -0.3570
12957W        W29031   2.046   1.213  13.656 -0.0202 -0.0116  0.0087
12958W        W29032  16.946  10.744  13.013 -0.2387 -0.2332  0.1552
12959W        W29033  15.723  14.806  14.461  0.1742 -0.1051 -0.0701
12960W        W29034   3.098   8.315  16.400  0.4611 -0.2369  0.0057
12961W        W29035  15.331  12.758  16.225 -0.3476  0.2715  0.0838
12962W        W29036  17.370   5.878  14.633  0.0336 -0.0078  0.0967
12963W        W29037   5.222   7.927   2.303 -0.0228 -0.4208  0.0149
12964W        W29038  14.127   6.946  16.238  0.2710  0.0861  0.3674
12965W        W29039   4.745   2.787   3.601  0.1613  0.0068  0.1491
12966W        W29040  13.052   2.469   5.692  0.1873  0.5759  0.0278
12967W        W29041  17.388   8.813   6.047  0.1122 -0.2183 -0.2725
12968W        W29042   0.538   6.125   0.879  0.0228 -0.0758  0.0781
12969W        W29043   0.857  13.796  15.638 -0.1349  0.4172  0.1293
12970W        W29044  14.695   8.948   5.592 -0.0638  0.1119  0.0323
12971W        W29045  17.361  12.821  16.416 -0.2100 -0.3257 -0.0685
12972W        W29046  16.240   9.284   1.892 -0.0626  0.1987 -0.0693
12973W        W29047  12.778   8.335  14.156 -0.0086  0.2741  0.0515
12974W        W29048   9.308  17.336   3.832 -0.0938  0.5182 -0.3397
12975W        W29049   9.841  17.172   3.100 -0.1659 -0.1664  0.4336
12976W        W29050   7.262   3.145  15.458  0.0021  0.2519 -0.0047
12977W        W29051   3.672  12.344   3.618 -0.2639 -0.0427  0.0323
12978W        W29052  10.286   0.966   1.968  0.1758 -0.2154  0.1156
12979W        W29053  14.717  17.719  15.877  0.3090 -0.2500 -0.0766
12980W        W29054   0.012  13.760   4.967 -0.0256 -0.1093  0.0086
12981W        W29055   3.603   2.506  13.990 -0.1115 -0.2596 -0.4398
12982W        W29056  12.486  18.059  13.238  0.0711 -0.2559 -0.2293
12983W        W29057  13.823   5.729   3.050  0.4049 -0.0392 -0.0591
12984W        W29058  14.940   9.156   5.165 -0.2545 -0.2058  0.0617
12985W        W29059   2.609  13.152  11.566 -0.2043 -0.0095 -0.1247
12986W        W29060  11.203  17.208  15.367  0.0845  0.1178  0.0353
12987W        W29061   9.504   9.589   2.837 -0.2177 -0.2043 -0.0300
12988W        W29062   6.824   6.387  12.382  0.0509 -0.0367  0.1269
12989W        W29063   7.896  13.163   2.229  0.1091  0.0139  0.1475
12990W        W29064  11.847   1.724  14.430  0.2866  0.1282 -0.1459
12991W        W29065  15.025   8.650  12.865  0.0116  0.0509  0.1450
12992W        W29066   2.294  15.781  14.922  0.2386  0.3007 -0.0581
12993W        W29067   6.340   2.066  11.224  0.4282  0.2840 -0.0976
12994W        W29068   2.738   5.097  15.181 -0.3680 -0.4129  0.0774
12995W        W29069   7.209   3.068  13.814 -0.2361 -0.0665 -0.2187
12996W        W29070   0.393  14.005   5.001 -0.0595  0.3998  0.0955
12997W        W29071   9.905   8.475   0.905 -0.0585 -0.2360  0.1731
12998W        W29072  14.176   1.549  15.765  0.1343  0.0816 -0.1807
12999W        W29073   5.655  11.091  13.377 -0.1433  0.1005  0.0887
13000W        W29074   1.498  10.096   0.802  0.1351 -0.1694  0.0991
13001W        W29075   7.983   8.318   5.103 -0.3932 -0.0533 -0.1457
13002W        W29076   0.203  18.036   2.348 -0.1053  0.1788 -0.2308
13003W        W29077   1.700  10.252  12.298 -0.1839 -0.0115  0.1653
13004W        W29078  12.043   9.567   0.769  0.0364 -0.1037  0.0979
13005W        W29079  11.389   1.542  14.644  0.1086  0.1529 -0.3642
13006W        W29080   2.259  11.938  13.897  0.1165  0.1382 -0.2288
13007W        W29081  14.468   9.838   0.280  0.0881  0.3678  0.1277
13008W        W29082  11.341  17.892   1.077  0.3886 -0.3980  0.2724
13009W        W29083   0.694   0.665  12.976 -0.2889 -0.3120 -0.0504
13010W        W29084   2.704  13.072  15.037 -0.0839  0.2469 -0.0136
13011W        W29085  15.004   7.788   5.615 -0.0796 -0.2049  0.0654
13012W        W29086   3.677  11.095  15.799 -0.0604  0.2915  0.1302
13013W        W29087  10.093   4.217   2.768  0.2248 -0.0992  0.0422
13014W        W29088  16.467  16.583   3.215 -0.2614  0.0400  0.0668
13015W        W29089   3.567   9.530  13.474 -0.1622  0.0586  0.2939
13016W        W29090   8.165  14.091  13.790 -0.2388  0.0913 -0.2668
13017W        W29091  17.244  10.355   6.261  0.0847  0.3139 -0.2678
13018W        W29092   1.305  11.727   3.786 -0.1257 -0.1206 -0.2505
13019W        W29093  10.110  11.763  13.566  0.1617 -0.2429  0.0057
13020W        W29094   9.513  11.522  11.286 -0.2104 -0.2029 -0.2526
13021W        W29095  10.455   9.080  13.575 -0.1881  0.1559 -0.1402
13022W        W29096   1.653   8.544  13.905 -0.0046  0.1794 -0.1361
13023W        W29097   3.821  12.542  15.811 -0.2518  0.1254 -0.2055
13024W        W29098  11.408  12.435   3.218 -0.0748  0.0095 -0.1745
13025W        W29099  11.965   4.743  15.577  0.1539  0.2017  0.1223
13026W        W29100  11.639   8.861   3.010  0.0959 -0.2010  0.0833
13027W        W29101  12.784  10.084   0.582 -0.2213  0.0601  0.0059
13028W        W29102   0.944   9.951   2.205  0.1872  0.3714 -0.0670
13029W        W29103  15.337  11.286  15.398 -0.0172  0.0213  0.1881
13030W        W29104   5.736   4.367  12.142  0.4267 -0.1230 -0.1911
13031W        W29105  11.140   5.393   5.853  0.2847  0.0191 -0.2446
13032W        W29106   2.305   4.812  11.053 -0.0270  0.2200 -0.1134
13033W        W29107  14.921   1.559  11.949 -0.0724 -0.0931 -0.0257
13034W        W29108  17.098   8.786  11.923  0.0815 -0.0985 -0.1459
13035W        W29109   2.234  16.589  13.352 -0.1068 -0.2699 -0.1650
13036W        W29110  13.914  16.381   2.721 -0.3830  0.1962 -0.0000
13037W        W29111  15.685  11.773   1.082 -0.3537 -0.1958  0.0973
13038W        W29112   3.307   7.933  16.134  0.1836 -0.2258  0.2417
13039W        W29113   8.471   3.835   1.795 -0.1184  0.0791 -0.2908
13040W        W29114   3.770   1.089  15.549 -0.2511 -0.1145 -0.1140
13041W        W29115   9.488   7.057  12.059  0.2325 -0.0847 -0.2216
13042W        W29116   0.353   1.116  14.684 -0.0279 -0.3465 -0.0318
13043W        W29117   3.418   8.981  14.620  0.0645  0.2144  0.4157
13044W        W29118   9.966   7.987  16.337  0.2087 -0.1459 -0.2233
13045W        W29119   7.121  16.822  14.128  0.0631  0.3607 -0.1836
13046W        W29120  11.512  14.022  12.221 -0.0368  0.1388 -0.1303
13047W        W29121   3.961   5.106   0.269 -0.0151  0.1023  0.1165
13048W        W29122   0.185  18.073  15.325 -0.3883  0.0367 -0.0773
13049W        W29123  12.117   8.776   0.229  0.0609 -0.0213  0.0936
13050W        W29124   8.182   0.337   4.838  0.3986  0.0291  0.1557
13051W        W29125   3.032  15.458  13.226  0.1778  0.0657  0.3725
13052W        W29126   3.581  15.194  11.491  0.1141  0.2646 -0.0595
13053W        W29127  13.594  13.195   4.960  0.3069  0.1017  0.0618
13054W        W29128   6.403   5.357   2.595  0.0962  0.0170  0.1392
13055W        W29129  13.368   2.698  14.036  0.2601 -0.2594 -0.0847
13056W        W29130   5.832  15.918   4.896  0.1065  0.0920  0.1922
13057W        W29131   9.014  13.059  11.608 -0.0753  0.1943 -0.1452
13058W        W29132   4.602  10.898   4.019 -0.0943  0.2426 -0.1557
13059W        W29133  11.196  10.017   3.456 -0.1632  0.1527  0.1508
13060W        W29134  10.375   0.079  14.469 -0.2053  0.2436 -0.1814
13061W        W29135   4.565   0.888  13.329  0.2310 -0.0199  0.0074
13062W        W29136  16.363   1.693  12.065 -0.3084 -0.0093  0.0559
13063W        W29137  11.986  17.092   5.537 -0.2599  0.2428 -0.0396
13064W        W29138  13.185   9.641  11.616  0.1634  0.1215  0.0862
13065W        W29139  10.169  17.558  16.037 -0.3533 -0.0363  0.1521
13066W        W29140  13.431   4.103   2.249  0.1193  0.4620  0.0775
13067W        W29141   0.031  16.839  12.034  0.0927 -0.2524  0.2985
13068W        W29142  16.721  10.368  14.054 -0.0203 -0.1280  0.1300
13069W        W29143   3.739   6.664   4.102  0.0650  0.1215  0.3272
13070W        W29144  15.914  15.599   1.265 -0.1001 -0.0655 -0.0991
13071W        W29145   8.253   0.324   0.292  0.2021 -0.1812  0.1961
13072W        W29146  10.258  13.599   5.132  0.3238 -0.1427 -0.2031
13073W        W29147  11.550   2.343   4.365  0.1736  0.2276  0.4258
13074W        W29148   7.068  10.970   2.747 -0.1314  0.2700 -0.2524
13075W        W29149  16.720  12.564  12.722 -0.0553 -0.1343  0.0568
13076W        W29150   5.780  15.039  14.866  0.3078 -0.0382 -0.0297
13077W        W29151   8.569  12.194  11.991  0.1129  0.2557 -0.0130
13078W        W29152   3.284   2.123  13.896 -0.0735 -0.0481 -0.2126
13079W        W29153  18.181   6.775  14.821  0.0936 -0.1611 -0.4694
13080W        W29154   7.830   1.354   3.280  0.0869  0.3249  0.3057
13081W        W29155  16.427   2.712   1.915 -0.2889 -0.0999 -0.2531
13082W        W29156   6.351   8.406   3.376 -0.2234 -0.3430  0.0592
13083W        W29157  16.342  12.529  12.397  0.0741  0.0760 -0.2170
13084W        W29158  13.075  17.723   4.989 -0.1280  0.2411  0.1813
13085W        W29159   8.094  11.179   1.760 -0.1846 -0.0888 -0.1555
13086W        W29160  13.431  10.056   2.336  0.0756  0.1808 -0.1650
13087W        W29161  12.259   4.160   4.399 -0.0319  0.0535  0.1562
13088W        W29162   9.321  16.507   4.593 -0.0038  0.1041  0.0187
13089W        W29163  16.234   7.487   1.803  0.2244 -0.0750  0.0846
13090W        W29164   9.178  17.348   1.976  0.2071  0.0375  0.2284
13091W        W29165  13.395  17.461   4.035  0.2757 -0.0779  0.1407
13092W        W29166  15.186   7.358  15.538  0.3467 -0.0428  0.0289
13093W        W29167  11.635  13.708  15.236  0.3649 -0.2056 -0.1775
13094W        W29168   5.592   3.159   5.450 -0.2259 -0.1282 -0.3735
13095W        W29169  12.162   3.962   2.631 -0.0835 -0.1188  0.0449
13096W        W29170   1.767   6.906  11.050  0.0863 -0.0508 -0.3601
13097W        W29171  14.373   3.513   4.956  0.1545  0.0373  0.1165
13098W        W29172  11.621   8.240   1.469  0.0323 -0.0463  0.0199
13099W        W29173  13.757  10.937  11.435  0.1403 -0.1004  0.2525
13100W        W29174   0.577   1.525  11.708  0.4618 -0.1149 -0.0014
13101W        W29175   2.718  13.333  16.043  0.2119  0.0714  0.1754
13102W        W29176   1.463   3.944  15.549 -0.1875  0.1372  0.0719
13103W        W29177   2.222   1.842   0.993 -0.1562  0.1809  0.1904
13104W        W29178  12.664   4.667   1.612  0.0446 -0.1270 -0.3424
13105W        W29179  14.039  18.240  13.704 -0.3804  0.1069  0.1133
13106W        W29180   3.338   4.724  13.020 -0.3725  0.1397 -0.1419
13107W        W29181  11.641  16.185   0.252 -0.1823  0.1721 -0.0068
13108W        W29182   0.375  17.168  15.509  0.2950  0.0013  0.1298
13109W        W29183   8.666  13.661   2.959  0.0925  0.1588 -0.4321
13110W        W29184   7.174   8.508   2.726  0.0551 -0.1577 -0.0764
13111W        W29185  12.512  13.802   0.618 -0.0763  0.1143  0.1774
13112W        W29186  17.351   1.832   3.166 -0.0730 -0.0653 -0.0847
13113W        W29187  10.462   5.705   3.087  0.0506 -0.0105  0.1851
13114W        W29188   6.780   3.630   0.807 -0.2127 -0.1734  0.1672
13115W        W29189  17.494   4.642  11.417  0.0918  0.3142 -0.1099
13116W        W29190   4.191   2.661   4.991 -0.0604  0.1586 -0.1833
13117W        W29191  15.876  18.018  14.379  0.1709 -0.1917  0.0268
13118W        W29192  11.967   9.542  16.084  0.2303  0.2357 -0.1890
13119W        W29193   4.566  17.957   2.114 -0.1008 -0.1889  0.0097
13120W        W29194   9.008   4.725   3.669  0.0392  0.1731  0.1365
13121W        W29195  16.820  17.848   6.333  0.3075 -0.0780 -0.0331
13122W        W29196  16.872   1.074   0.352  0.0609  0.0775 -0.0383
13123W        W29197   7.877   6.383   0.443 -0.1029  0.0830  0.0215
13124W        W29198   8.557   9.640   5.099 -0.2324 -0.0282  0.0954
13125W        W29199  13.943   7.910  13.041 -0.0736  0.4355 -0.0232
13126W        W29200   3.419   2.751  13.112 -0.0262  0.3110  0.1904
13127W        W29201  13.679  12.777   4.648  0.0131 -0.0189  0.2036
13128W        W29202  13.785  13.533  11.636  0.3489  0.0284  0.2912
13129W        W29203   4.507   1.124   2.758 -0.1529 -0.1297 -0.1425
13130W        W29204  10.343   4.715   5.340 -0.1408  0.2173 -0.0394
13131W        W29205   3.512   0.033   2.019 -0.0321 -0.0723  0.1602
13132W        W29206   0.624  12.280   3.069 -0.0417 -0.2940 -0.3882
13133W        W29207  14.864   0.013  15.772  0.1860 -0.1261 -0.0926
13134W        W29208   2.384   7.125   0.163 -0.2787  0.2751  0.0733
13135W        W29209   8.898   4.574  14.696 -0.2117 -0.0219  0.0908
13136W        W29210  10.869  17.228  15.737 -0.1504 -0.1174  0.1592
13137W        W29211   4.420   6.970  11.859 -0.3679  0.1062 -0.2335
13138W        W29212   1.891  15.916  13.230 -0.2244 -0.1427  0.0186
13139W        W29213   6.617   2.708   1.450  0.0447  0.0644 -0.0451
13140W        W29214  11.493   3.696   0.534 -0.0981 -0.1257  0.1605
13141W        W29215  12.608   9.343  15.252  0.1675  0.1535 -0.0160
13142W        W29216  17.920  14.691   5.936 -0.0717  0.0805  0.0332
13143W        W29217  16.981   4.701   4.368 -0.2989 -0.0654 -0.2887
13144W        W29218   4.573  11.819   3.807  0.2339 -0.0473  0.0352
13145W        W29219   5.359   7.187  14.818 -0.0380 -0.2978  0.1854
13146W        W29220   8.900  11.782   4.667 -0.1670 -0.0402 -0.0745
13147W        W29221   2.976   1.978  11.577 -0.0942  0.0353  0.2090
13148W        W29222   5.248   9.399   2.418  0.1090  0.0606 -0.0063
13149W        W29223   0.240   0.677  13.232  0.3193  0.2831 -0.1308
13150W        W29224   9.451   6.162  15.857 -0.2541 -0.1962  0.2693
13151W        W29225  15.663  13.007   1.435  0.1529  0.0635  0.0609
13152W        W29226   1.979   9.929  13.474  0.0183  0.0217 -0.4607
13153W        W29227   4.658   6.961   4.992  0.1863  0.1002  0.0917
13154W        W29228  15.049   6.906  12.503 -0.3072 -0.2551 -0.0182
13155W        W29229   3.024   6.349  10.993 -0.1155  0.1089  0.0808
13156W        W29230   5.404   4.286   3.146  0.1167 -0.2648  0.0747
13157W        W29231   7.570  14.437   6.366  0.1100 -0.0424 -0.1492
13158W        W29232  15.195   5.189   5.286 -0.0765 -0.2262 -0.1200
13159W        W29233  12.819  17.603  16.479 -0.1889  0.0085 -0.0928
13160W        W29234   9.235   0.656  16.453  0.0451 -0.1090 -0.0502
13161W        W29235   1.805   8.404  11.885 -0.1289 -0.1384 -0.3880
13162W        W29236   5.778   6.420  14.934  0.0273  0.1861  0.0986
13163W        W29237   0.665  14.294  14.288 -0.0285  0.0875  0.1327
13164W        W29238  16.172  15.227   4.884  0.0100  0.0244 -0.0589
13165W        W29239  12.618   4.743   4.908  0.0512  0.1197 -0.1609
13166W        W29240   6.890   4.868  14.065  0.2790  0.1260  0.0816
13167W        W29241   3.830  11.770  15.710 -0.2779 -0.3011 -0.0766
13168W        W29242   4.603   7.494   5.531 -0.1053  0.2498  0.0799
13169W        W29243   9.499   2.035  14.832 -0.1772  0.1412  0.2959
13170W        W29244   7.525  17.220  13.814  0.2611 -0.1337 -0.0173
13171W        W29245   0.146  13.736  15.207 -0.0249  0.1955 -0.0341
13172W        W29246   9.420   4.473   0.744 -0.4652  0.0149 -0.2221
13173W        W29247  10.371  12.427   0.220  0.0541  0.1680  0.0301
13174W        W29248  11.283  10.543   3.460 -0.1243  0.0541 -0.0493
13175W        W29249  16.457   1.436  16.494  0.0366  0.2626  0.5458
13176W        W29250   0.411   8.049  13.924  0.2566  0.2547 -0.0816
13177W        W29251   4.897   8.628  12.362  0.1920 -0.2736 -0.2294
13178W        W29252  11.940   1.761  15.801  0.0284 -0.1473  0.3583
13179W        W29253  11.583   0.316  12.752 -0.0705 -0.0398  0.0530
13180W        W29254  10.203   2.033  11.790 -0.1460  0.1589 -0.0083
13181W        W29255  13.601   8.345  12.597 -0.1321  0.0776 -0.1712
13182W        W29256   3.865  15.706  14.552  0.0246 -0.0770 -0.1009
13183W        W29257  17.142   8.030  16.307  0.1410 -0.2870 -0.0755
13184W        W29258   5.654   7.950   2.600 -0.2254  0.1744  0.1493
13185W        W29259  16.825   8.232  11.905  0.0252 -0.0668  0.2754
13186W        W29260   9.692  11.284  14.342  0.1163  0.0412  0.2593
13187W        W29261   1.291   0.830  15.637  0.1593  0.1631  0.1724
13188W        W29262  13.302  17.050   1.948 -0.0124  0.0987  0.2553
13189W        W29263   0.757  14.325  12.899  0.1483  0.0985  0.3011
13190W        W29264  17.282   4.587  14.432  0.1863 -0.2419 -0.3444
13191W        W29265   1.646   0.842  13.379  0.1278 -0.2667 -0.1821
13192W        W29266   3.584  12.964  15.916  0.1146 -0.2139  0.0142
13193W        W29267   3.013  11.163   6.344  0.0258 -0.1702 -0.1323
13194W        W29268   7.698  11.646  15.045 -0.0856  0.0893 -0.0027
13195W        W29269  15.278   2.611   1.662  0.1448  0.0213 -0.2629
13196W        W29270  15.804   3.503   2.860  0.0142 -0.0302  0.0511
13197W        W29271   0.675   2.986   4.422  0.3167  0.1251 -0.1097
13198W        W29272  10.417  12.187  11.046 -0.2508 -0.2573  0.0481
13199W        W29273  16.410   7.040  12.144 -0.0676 -0.0303 -0.0651
13200W        W29274  15.592   9.797   4.629  0.0608  0.1906 -0.2010
13201W        W29275   6.132   8.774   5.026  0.0901  0.2316  0.0096
13202W        W29276  12.547   5.015   3.301 -0.3167 -0.0511  0.0851
13203W        W29277   6.008   6.946   0.828 -0.0624 -0.3146  0.1827
13204W        W29278   5.359  11.529  10.554  0.0637  0.0087  0.3495
13205W        W29279   3.696   0.256  12.604  0.1297  0.3097 -0.1588
13206W        W29280  15.017  13.930   5.855  0.0430  0.1706  0.2782
13207W        W29281   3.590  17.271  16.254 -0.2400 -0.0618 -0.1609
13208W        W29282  13.605   0.169   5.922  0.4185 -0.0333  0.1931
13209W        W29283  11.962   9.333   2.892  0.0461 -0.3366  0.2691
13210W        W29284  10.138   5.453  15.834 -0.0390  0.0206  0.0101
13211W        W29285   3.370  10.089  13.625  0.1122 -0.0170  0.1534
13212W        W29286   8.820   6.727  14.313 -0.0239  0.3191 -0.0132
13213W        W29287  11.567   9.372  14.429 -0.0893 -0.2295  0.0631
13214W        W29288   8.921   3.802   1.431  0.0508  0.1283  0.1116
13215W        W29289   8.184   6.706   3.797 -0.1103  0.0803 -0.2343
13216W        W29290  11.855  12.842  14.635  0.0330  0.0743  0.3693
13217W        W29291  12.744   5.229   1.708  0.0211 -0.1423 -0.3663
13218W        W29292   4.650   3.499   2.296  0.0250 -0.0354  0.0316
13219W        W29293  15.052   2.503  15.331 -0.0143 -0.0447  0.3399
13220W        W29294   6.022   5.186  12.644 -0.3728  0.3094 -0.1009
13221W        W29295  10.327  17.945  15.209  0.3267 -0.1191 -0.2247
13222W        W29296  14.205  16.268  15.877 -0.2021  0.0295  0.0131
13223W        W29297  11.021   8.364   1.731 -0.1739  0.0329  0.3001
13224W        W29298   7.668   9.302  14.676 -0.0449  0.3154  0.1470
13225W        W29299   3.301   1.468   5.542  0.0047 -0.0734  0.0936
13226W        W29300  11.273  17.524   5.103  0.0002 -0.0616 -0.0929
13227W        W29301  10.704   7.258  12.864 -0.2075 -0.2356 -0.1130
13228W        W29302   6.785  15.478  15.907  0.0698  0.4774  0.0270
13229W        W29303  13.485  14.940   5.460  0.2791  0.1692 -0.0659
13230W        W29304   8.930   3.217   5.639 -0.1067 -0.1782  0.1220
13231W        W29305   2.089  13.741  15.508 -0.1629 -0.2413 -0.1608
13232W        W29306   3.673  16.777   3.873  0.1941 -0.0162  0.1124
13233W        W29307   5.656   5.212  12.236 -0.0063 -0.1964  0.0743
13234W        W29308  14.466   8.606   0.058  0.0046  0.0183 -0.0238
13235W        W29309   2.573   2.010   5.637  0.1076  0.0398  0.0241
13236W        W29310  16.357  15.116   0.273  0.4203 -0.0296  0.3916
13237W        W29311  14.805   5.830   2.070  0.1479  0.0141  0.2968
13238W        W29312   6.520   9.990  13.222 -0.1047  0.1162 -0.1508
13239W        W29313   0.939   4.590   6.107 -0.1060 -0.1627  0.3409
13240W        W29314   6.989   7.167   3.060 -0.0889 -0.1905 -0.2318
13241W        W29315   8.833   7.709  10.571 -0.0966  0.0512  0.1417
13242W        W29316  12.458  12.723   2.333 -0.1250 -0.1113  0.2325
13243W        W29317   9.482  13.445   2.499  0.1855 -0.0129 -0.0188
13244W        W29318  11.210   1.258   2.146  0.2044 -0.2273  0.1062
13245W        W29319  18.112   3.760   0.416  0.2755 -0.0398 -0.0733
13246W        W29320  17.024   4.999  14.746  0.1323 -0.3469 -0.0923
13247W        W29321  14.922  11.973   1.590  0.2650  0.1628  0.1896
13248W        W29322   8.434   7.361   4.197 -0.1988  0.3921  0.0216
13249W        W29323   7.210   0.965   0.538 -0.0617  0.1249 -0.1853
13250W        W29324  17.661  14.778  15.224  0.2077 -0.0868 -0.1169
13251W        W29325  15.743  16.267  12.665 -0.0855  0.0167 -0.0488
13252W        W29326   0.426  17.576  15.216 -0.0976  0.2261 -0.0989
13253W        W29327   7.885  10.660  15.144 -0.0808  0.1033  0.1733
13254W        W29328  15.235   0.950  12.781  0.2206 -0.0628  0.2192
13255W        W29329   0.890   4.764   0.561  0.2919  0.2543 -0.1676
13256W        W29330  13.155  10.321   1.540  0.1017 -0.0270  0.3260
13257W        W29331   1.931   5.739   0.233  0.2090  0.2446 -0.3730
13258W        W29332   4.550   2.228   0.389  0.0543 -0.3410 -0.2376
13259W        W29333   7.979   3.702   3.559  0.0353  0.0835  0.6467
13260W        W29334   3.345  10.584   4.006 -0.1564 -0.0770 -0.0283
13261W        W29335  16.358  11.768   5.960  0.1931 -0.1205  0.1048
13262W        W29336  16.986   9.352  16.393 -0.0747  0.1241 -0.3423
13263W        W29337  12.916  17.276   4.176 -0.2032  0.1436 -0.0221
13264W        W29338  12.494  17.541   3.804  0.1925 -0.0630 -0.3037
13265W        W29339   3.173  11.785   5.166  0.1794  0.2290  0.4509
13266W        W29340   4.650   3.431  13.702  0.0457  0.3903 -0.1583
13267W        W29341  12.734   6.212   2.127  0.1322  0.6036 -0.0084
13268W        W29342  10.348   2.372  15.792  0.0974  0.0880  0.0438
13269W        W29343   2.989   3.951  15.820 -0.0892  0.1906 -0.2022
13270W        W29344   7.405   5.612  15.312  0.0439  0.0613 -0.1693
13271W        W29345   1.512  17.531  13.736  0.1041 -0.2994  0.1457
13272W        W29346   1.634  15.298  13.653 -0.0985 -0.1006  0.2576
13273W        W29347   7.630  17.629   0.701 -0.1095  0.0723 -0.1854
13274W        W29348  13.323   8.944   5.699  0.2386  0.0046 -0.0512
13275W        W29349  11.601  11.888  11.876 -0.1385  0.1435  0.2875
13276W        W29350   8.111   3.470   0.853 -0.0811  0.1136 -0.1631
13277W        W29351   5.691   7.303  12.304  0.0265 -0.0591  0.2501
13278W        W29352  14.890   2.779   3.494  0.1898  0.3173  0.1995
13279W        W29353  14.745  10.559  16.077  0.1223  0.1576 -0.2615
13280W        W29354   2.441   5.522  11.839 -0.1284  0.2573 -0.1679
13281W        W29355   1.190  12.497   3.033  0.1314  0.0505 -0.1288
13282W        W29356  16.644  11.338   5.685 -0.1373 -0.0842 -0.0729
13283W        W29357  17.457  14.198   0.943 -0.1463 -0.3357  0.0595
13284W        W29358   3.213   0.721   2.741  0.0824 -0.2460 -0.4237
13285W        W29359   0.787  12.582   1.432  0.0758  0.1032  0.1260
13286W        W29360   9.603  18.022   0.912  0.0194  0.2415  0.2985
13287W        W29361   1.373   5.407   4.525  0.0326 -0.0260 -0.2209
13288W        W29362   1.389  15.049   0.660 -0.1523  0.0299  0.0350
13289W        W29363   2.836   1.398  11.178 -0.1971  0.2832  0.0576
13290W        W29364  17.870   3.734   5.118  0.0140  0.1866  0.3412
13291W        W29365  12.652   1.012   4.545 -0.0941 -0.4013  0.0257
13292W        W29366   7.260   8.119   3.189  0.0560 -0.4159 -0.2160
13293W        W29367  12.212  17.707  14.763 -0.0112 -0.0976  0.1594
13294W        W29368  12.261  18.124   1.791  0.2186 -0.0350 -0.0473
13295W        W29369  17.444   0.658  11.428  0.0782 -0.2121  0.1877
13296W        W29370   2.461  13.855   5.060 -0.1807  0.2369 -0.0759
13297W        W29371  14.651  16.162   3.318  0.0104 -0.1488 -0.0822
13298W        W29372   9.566  12.598  12.319 -0.0246 -0.0592  0.1162
13299W        W29373  14.415  14.089  14.094  0.0065 -0.4419  0.2783
13300W        W29374  17.577  16.216  14.621  0.0868  0.0626  0.2347
13301W        W29375  13.883   2.015  11.602 -0.1480 -0.3129 -0.2787
13302W        W29376  15.135  17.986   2.157  0.1685  0.3326 -0.0423
13303W        W29377   5.484   0.119   0.757  0.1301 -0.0551 -0.2030
13304W        W29378   9.618   4.510  15.410  0.0959 -0.1598  0.0558
13305W        W29379  12.848   3.345   2.754 -0.1014 -0.0956  0.1757
13306W        W29380   2.294   0.498  16.276 -0.2302  0.0367  0.2714
13307W        W29381  10.056   0.867   4.102  0.4054  0.3459 -0.1505
13308W        W29382  17.995   9.926   5.421  0.0111 -0.1060  0.1487
13309W        W29383   8.681  16.092   2.001 -0.1553 -0.1536 -0.0187
13310W        W29384  12.671  18.193   5.118  0.2416 -0.2537 -0.0382
13311W        W29385   7.742   0.128  14.118  0.3026  0.0861  0.1691
13312W        W29386  15.577  12.242   4.117  0.1183  0.1332 -0.2473
13313W        W29387  12.108  17.579   0.759  0.4872 -0.1819 -0.0092
13314W        W29388   4.555  15.235  13.529 -0.0133 -0.0200 -0.0074
13315W        W29389   9.910   9.750  12.815 -0.1921  0.0929 -0.0375
13316W        W29390   4.769  14.338  12.913 -0.0161  0.1732  0.1533
13317W        W29391  11.544  13.925   2.896 -0.2112 -0.1583  0.2914
13318W        W29392  11.130   6.394  11.657  0.2211 -0.0127 -0.2022
13319W        W29393   8.190   9.167   0.039 -0.0669 -0.5217 -0.0751
13320W        W29394  11.378  10.644   0.409 -0.2255 -0.2088  0.0699
13321W        W29395   0.601  11.959  12.407  0.1977 -0.0981 -0.4452
13322W        W29396  12.356   8.454  13.835  0.1124 -0.1459  0.1792
13323W        W29397  11.264  15.553  13.545 -0.0193 -0.0273 -0.3150
13324W        W29398  10.608   1.926  12.770  0.1407 -0.0683 -0.0526
13325W        W29399   6.175   9.153   2.005 -0.3358  0.2417  0.2383
13326W        W29400   3.540   6.797  12.563  0.1128 -0.1302  0.3878
13327W        W29401  12.959   4.316   6.128 -0.0836 -0.0497  0.0663
13328W        W29402  14.489  12.592  11.074 -0.1994 -0.2040  0.2859
13329W        W29403   6.800   7.524   1.551 -0.1447 -0.3260 -0.1281
13330W        W29404   8.272  15.663   2.005  0.1527 -0.2324 -0.2264
13331W        W29405   6.328   4.305  12.953 -0.0966 -0.0005  0.0485
13332W        W29406   0.671   1.782   1.553 -0.1119 -0.0115  0.1362
13333W        W29407  17.756   7.848   3.829  0.0320 -0.4820  0.0550
13334W        W29408   6.634  10.139   4.846  0.3058  0.3353 -0.3031
13335W        W29409  15.247  13.846   2.328 -0.0584 -0.0316  0.1747
13336W        W29410   5.387   9.358  13.784 -0.1343 -0.1085  0.2429
13337W        W29411  13.192   1.428  15.959  0.0424 -0.0716  0.4067
13338W        W29412   1.739   2.253  12.111  0.0099 -0.1619 -0.0137
13339W        W29413  16.269  14.965   1.135 -0.0617  0.2245 -0.2425
13340W        W29414   2.937   5.206   2.998  0.0485  0.0960  0.2043
13341W        W29415   6.250  17.844   5.306 -0.3989 -0.2501 -0.0676
13342W        W29416  12.687   2.152  14.426  0.2085 -0.1536 -0.0566
13343W        W29417   0.562  16.398   2.351  0.0215 -0.1030  0.0409
13344W        W29418  11.720   6.384   5.367 -0.1040  0.4956 -0.1569
13345W        W29419  15.779   4.031  15.589  0.0357  0.0135  0.0394
13346W        W29420  11.453  11.412  11.292  0.1327  0.0454  0.2599
13347W        W29421  13.016  13.954   5.184  0.3829 -0.1480  0.0727
13348W        W29422   9.867  13.397   5.362  0.0571  0.0407  0.2408
13349W        W29423   7.822  12.500   1.675  0.1979 -0.1566 -0.1689
13350W        W29424  10.005   1.978   2.087 -0.3271 -0.0286  0.1868
13351W        W29425  11.731  11.091   0.592  0.1423  0.2403 -0.0402
13352W        W29426  17.069   2.214   1.447 -0.3251  0.0635  0.0636
13353W        W29427   2.507   2.894   1.132 -0.0560 -0.0260  0.2923
13354W        W29428   0.522   9.030   0.875 -0.2844 -0.0682  0.0332
13355W        W29429   1.815   8.166   3.038  0.0587 -0.5217 -0.2971
13356W        W29430   2.931   6.636  13.894  0.0560 -0.0553 -0.1295
13357W        W29431   7.442  11.968  15.502  0.1406 -0.3317 -0.1682
13358W        W29432  14.859  18.036   5.186 -0.1352  0.2465 -0.0017
13359W        W29433   0.550   9.617   3.009  0.0252  0.0351  0.1604
13360W        W29434   6.476  16.557  15.103 -0.0455 -0.0921 -0.2173
13361W        W29435   8.070  11.332  15.998  0.2603  0.0486 -0.1127
13362W        W29436   3.424  10.373   1.279  0.2432 -0.1531  0.1651
13363W        W29437   0.518  17.820  10.999  0.1973 -0.0556  0.1642
13364W        W29438  17.665   9.467  12.983 -0.0533  0.0151  0.2169
13365W        W29439   7.442   1.808  15.779  0.1400 -0.1656 -0.0781
13366W        W29440   6.527  15.790  16.238  0.0986  0.0782 -0.3289
13367W        W29441   7.169  12.818  11.205 -0.3591  0.1483 -0.1281
13368W        W29442   1.240   3.372  12.530  0.2203 -0.3588 -0.0135
13369W        W29443  10.429  13.955   4.313 -0.0172  0.0525 -0.4068
13370W        W29444   2.351  11.121  11.765 -0.0960  0.2446  0.3465
13371W        W29445   9.758  10.005   0.297  0.1517  0.2532  0.1339
13372W        W29446   5.639  13.166   0.213  0.2197 -0.3695  0.3655
13373W        W29447  15.393   6.432  15.677  0.2826 -0.2032 -0.1784
13374W        W29448   8.545   0.008   2.120  0.1802 -0.2980  0.2575
13375W        W29449  16.491  16.082  13.712  0.2867  0.2698 -0.1612
13376W        W29450  15.740  15.495   2.478  0.1985 -0.2234 -0.0453
13377W        W29451   2.445  18.044  13.530 -0.2102  0.1118  0.0776
13378W        W29452   9.348  10.696  11.817 -0.0694 -0.1002 -0.0007
13379W        W29453   0.448   0.325  11.718 -0.2099 -0.1883 -0.1301
13380W        W29454   1.313   7.499  15.321  0.1686  0.2765 -0.1294
13381W        W29455   6.286   4.466  12.042 -0.1595 -0.0545 -0.1367
13382W        W29456  12.509   3.599   2.498  0.2967 -0.2707 -0.1129
13383W        W29457  10.003   0.447   3.232 -0.1600 -0.0043 -0.2082
13384W        W29458  13.013   5.116   3.140  0.4164  0.4342  0.0480
13385W        W29459  14.104   9.958  15.200  0.3423 -0.5119 -0.2276
13386W        W29460  15.353   7.106   3.390 -0.1893  0.0236 -0.3054
13387W        W29461  12.685   0.424  13.774  0.2542 -0.1110  0.0143
13388W        W29462   0.116  13.488   0.519 -0.1302  0.2330 -0.1044
13389W        W29463   8.035   6.873   2.902  0.2678 -0.2311  0.0450
13390W        W29464   8.244  11.913  13.833 -0.3385  0.0910 -0.0066
13391W        W29465   1.100   4.860   1.802 -0.0534  0.3126 -0.1811
13392W        W29466   6.344   7.373  13.261 -0.0581 -0.1068 -0.2289
13393W        W29467   3.449   8.593  11.357  0.2912  0.3172 -0.1643
13394W        W29468   0.805   2.265  12.780 -0.0658 -0.0628  0.0635
13395W        W29469  12.777   9.298   0.249  0.3488 -0.2875  0.2304
13396W        W29470  15.425   4.438  14.070 -0.3415 -0.0121 -0.0537
13397W        W29471  17.726  18.081   5.817 -0.2678  0.0790 -0.2538
13398W        W29472   6.522   7.094   1.681 -0.0541  0.1984  0.0033
13399W        W29473  10.420   6.084  11.225  0.1694  0.1102  0.0604
13400W        W29474   4.689  10.501   4.334  0.1218  0.0708 -0.2058
13401W        W29475  13.386   5.126   2.336  0.1589  0.0357 -0.4231
13402W        W29476   7.298   0.423  12.630  0.1805 -0.0677  0.0738
13403W        W29477  15.463  10.094  14.812 -0.0793 -0.0925 -0.1051
13404W        W29478   3.545  11.288  11.704 -0.0821  0.0056 -0.1580
13405W        W29479   7.698  14.170  12.961 -0.2631 -0.2043  0.2863
13406W        W29480  11.192   6.025   5.801  0.0814  0.1196  0.0145
13407W        W29481   5.769  17.179  16.044  0.1740 -0.2125 -0.0653
13408W        W29482  15.819  14.982  11.025  0.1350  0.1562 -0.0266
13409W        W29483   9.365  12.065   4.327 -0.4269 -0.0499 -0.1032
13410W        W29484   6.024   8.866   0.650  0.0055 -0.2149 -0.1502
13411W        W29485   3.200  12.922  15.423  0.2440 -0.0592  0.0027
13412W        W29486   8.003  13.309   4.373 -0.0020  0.0809 -0.0056
13413W        W29487  12.739   1.368  11.644  0.0713 -0.1689  0.2221
13414W        W29488   8.117   4.073  16.377 -0.0619 -0.3900  0.1467
13415W        W29489   7.334  15.348  13.586  0.0843 -0.0666 -0.1092
13416W        W29490   0.003  17.600   1.228  0.0954 -0.0909 -0.0963
13417W        W29491  10.746   0.648  15.044 -0.0031  0.1079 -0.1110
13418W        W29492  15.003   2.329   2.606  0.0331  0.1049  0.6179
13419W        W29493  11.641   2.462   5.466  0.1309 -0.1283  0.0685
13420W        W29494  17.784   5.254   1.230  0.0232 -0.6691 -0.0558
13421W        W29495   8.765  15.049   1.380 -0.1211  0.1441  0.1333
13422W        W29496   2.680   2.683   3.409  0.0451  0.0580 -0.0076
13423W        W29497  12.834  14.633   4.327  0.0516  0.2857 -0.1628
13424W        W29498  14.616   1.753   0.400 -0.2494  0.1403  0.1012
13425W        W29499   8.921  12.633  11.894  0.0866 -0.3720  0.0346
13426W        W29500   6.303   3.931   4.972  0.0798  0.0694  0.2392
13427W        W29501   2.829   0.969  15.591 -0.2086  0.0767  0.1657
13428W        W29502   4.731   7.857   1.103  0.2544 -0.2878 -0.1611
13429W        W29503   6.143   3.216   5.320 -0.3532 -0.0104  0.0496
13430W        W29504  16.981   9.939   3.323 -0.2522 -0.1187 -0.1064
13431W        W29505   0.117  15.014  14.111  0.1085  0.3396  0.0559
13432W        W29506   9.508   2.530   0.207 -0.0051 -0.1339  0.1110
13433W        W29507   9.699  13.119  12.251 -0.4498  0.2685 -0.1093
13434W        W29508  12.882   3.355  15.023  0.0429  0.1467  0.1977
13435W        W29509   0.007   5.180   5.771  0.2237 -0.3101 -0.1811
13436W        W29510   8.968  14.685   4.448 -0.1268  0.1351  0.1168
13437W        W29511   3.448   4.150   1.867 -0.4661 -0.0961  0.1778
13438W        W29512  17.180   2.878  11.965 -0.0991  0.1139 -0.0226
13439W        W29513   8.562   8.560   3.580  0.2236 -0.0022 -0.2275
13440W        W29514  14.931  18.068  16.430  0.1333  0.2266 -0.1146
13441W        W29515   0.196  14.225  12.827 -0.3830 -0.0309  0.1269
13442W        W29516  17.119  12.816  15.983 -0.3325  0.3857  0.1584
13443W        W29517   1.601  11.137   0.829 -0.1222 -0.0287 -0.2256
13444W        W29518  14.280   6.920  11.847 -0.0744 -0.0507  0.0857
13445W        W29519   9.844   6.786   3.862 -0.1940  0.1576 -0.0938
13446W        W29520   5.133   0.541   4.036  0.1002 -0.0088  0.1844
13447W        W29521   8.496   1.163  14.365 -0.1250 -0.0008  0.0735
13448W        W29522   3.060   6.060   2.932  0.1343  0.0801 -0.1376
13449W        W29523   7.107   4.109   5.019  0.1611 -0.0179  0.0334
13450W        W29524   0.816  12.333  13.128  0.1319  0.0607 -0.0999
13451W        W29525  10.923   7.594  12.454 -0.1644  0.2588 -0.1136
13452W        W29526  17.646  13.881  12.450  0.2443 -0.0960  0.1769
13453W        W29527  14.131  17.303   1.247 -0.1968 -0.0187  0.1152
13454W        W29528   7.086   6.043   5.396  0.1768  0.1070 -0.1783
13455W        W29529   7.337   7.739   4.275 -0.3344 -0.1163 -0.1075
13456W        W29530  11.648  10.866   1.397 -0.3222  0.2064  0.0454
13457W        W29531   4.799  15.048   3.520  0.0499  0.1839  0.0403
13458W        W29532  12.495   8.188   1.030 -0.2455  0.2513  0.0247
13459W        W29533   0.458   7.357   0.010  0.0207  0.0450 -0.0548
13460W        W29534   9.279   0.011   4.238 -0.0180 -0.1618 -0.2028
13461W        W29535   4.018   4.692   2.231  0.1044 -0.2547 -0.1093
13462W        W29536  18.227   2.154   3.905  0.1976  0.0921 -0.1115
13463W        W29537   9.715  15.488  15.794 -0.0179  0.2520  0.1590
13464W        W29538  10.781  16.382   4.511 -0.0575 -0.4021  0.3030
13465W        W29539   8.463  11.851  15.768 -0.2113 -0.1056  0.0137
13466W        W29540   1.653  11.450  14.483  0.2697 -0.0125  0.1793
13467W        W29541  16.633  10.838  14.437 -0.1224  0.0984 -0.0299
13468W        W29542  11.835  16.563   3.183 -0.1459  0.2452  0.0508
13469W        W29543  13.336  15.530   3.512  0.2556 -0.0200 -0.0833
13470W        W29544   0.274  10.208   1.434  0.0728  0.1499 -0.1688
13471W        W29545  16.363  10.745  13.205  0.0609  0.1911  0.0932
13472W        W29546   2.573   3.568  13.117  0.1091  0.0044  0.0813
13473W        W29547  12.104   4.208  13.432 -0.1897  0.0174 -0.0902
13474W        W29548   5.449   1.460  13.361  0.2314 -0.0564 -0.0654
13475W        W29549   5.939  12.892   0.489 -0.0462 -0.1592  0.1158
13476W        W29550  17.449  16.815   2.535 -0.1616  0.2436  0.2659
13477W        W29551  15.510  15.873  13.562  0.1448 -0.3157  0.0657
13478W        W29552   1.008   6.317   0.145  0.3953  0.2601 -0.0481
13479W        W29553   8.938  10.020   5.043 -0.0259  0.0552  0.0593
13480W        W29554  16.550   3.467   6.261  0.0075  0.0530  0.1667
13481W        W29555   2.277  16.315   1.455  0.0181 -0.2384  0.1615
13482W        W29556  12.481  12.476   5.474 -0.0043  0.0082  0.0022
13483W        W29557   0.225  11.899   3.111  0.0835  0.0408  0.3990
13484W        W29558   8.304  14.648   2.146  0.0024  0.0830 -0.0161
13485W        W29559  15.582   1.087   3.078  0.0506  0.0114  0.3473
13486W        W29560  18.249   6.662   2.118  0.1469 -0.0069  0.0915
13487W        W29561   2.417  18.110   4.612 -0.0990  0.1534 -0.2474
13488W        W29562   3.817   9.031   1.416  0.0534 -0.0762 -0.0265
13489W        W29563   6.652  14.722  14.483  0.0164  0.0236  0.5619
13490W        W29564  13.895   5.897  13.200 -0.1536 -0.1830  0.0755
13491W        W29565  13.315   1.120  15.563 -0.1739  0.2515  0.1209
13492W        W29566  16.843   6.368   2.440 -0.0191 -0.2011 -0.0016
13493W        W29567   5.148  10.473  13.834  0.3874 -0.2088 -0.4591
13494W        W29568  12.125   4.595  11.875 -0.0299 -0.2453  0.1304
13495W        W29569  17.639   4.586  12.725  0.1286  0.1465  0.1152
13496W        W29570   9.418   3.499   1.901  0.1805 -0.0944  0.4606
13497W        W29571   6.983   4.890   2.111  0.3200  0.3458 -0.0079
13498W        W29572   3.801  10.436  13.318  0.0650  0.1171  0.1279
13499W        W29573   2.974  13.822   5.161 -0.0351 -0.2364  0.1437
13500W        W29574  10.626   7.918   3.367  0.0109  0.3563  0.2110
13501W        W29575   0.857   1.798  15.748 -0.0069  0.0444  0.0982
13502W        W29576   9.705  12.960  11.194 -0.2908  0.1488  0.0741
13503W        W29577  14.094  10.999   5.279  0.1274 -0.4802  0.0762
13504W        W29578  10.537   8.338  14.042  0.1701  0.0066 -0.3325
13505W        W29579   8.663   6.152  15.726  0.0066  0.0663 -0.0473
13506W        W29580  14.021   2.131   5.307 -0.1556 -0.3284  0.2208
13507W        W29581   5.881   2.412  16.244  0.0818  0.1733  0.1559
13508W        W29582  18.248   0.954  12.785 -0.1512  0.0737 -0.1595
13509W        W29583   1.981  15.584   0.106 -0.0934  0.3938 -0.1720
13510W        W29584   9.190  11.543  15.294 -0.2413  0.0498  0.1003
13511W        W29585  14.495   8.873  12.776  0.3012  0.0553 -0.2315
13512W        W29586   7.998   3.280   6.138 -0.1610  0.2069 -0.1655
13513W        W29587   6.658  12.972   4.792  0.1825 -0.0913  0.1533
13514W        W29588   5.771   0.510   1.260 -0.0569  0.0122 -0.0818
13515W        W29589   3.484   9.678   2.568  0.0376 -0.2659  0.0114
13516W        W29590   3.360   2.577  12.595 -0.2008  0.1482  0.1363
13517W        W29591  16.629   0.258   1.808 -0.0486 -0.1938 -0.3393
13518W        W29592  10.627  15.929  11.689 -0.1120 -0.0420 -0.0126
13519W        W29593   3.068   3.916  16.340 -0.2906 -0.3959 -0.2155
13520W        W29594  15.109   6.953  13.961  0.0244 -0.1563 -0.0319
13521W        W29595  17.088   1.757  14.574 -0.0447 -0.3596 -0.1968
13522W        W29596  10.740   9.044   4.833 -0.0127 -0.0387  0.0317
13523W        W29597   4.712   6.346  11.136 -0.0150 -0.1923  0.0581
13524W        W29598   2.424   7.956   4.922  0.0018 -0.2964 -0.1987
13525W        W29599  11.771   0.884   2.451  0.1299  0.0699  0.0463
13526W        W29600   3.676   4.641  11.292  0.1197 -0.0118 -0.3814
13527W        W29601   8.420  14.385  14.706 -0.1502  0.1285  0.0607
13528W        W29602  17.494   7.326   2.129 -0.0020 -0.0050  0.0975
13529W        W29603  14.165   8.707   2.412 -0.0363 -0.0917 -0.2963
13530W        W29604  11.900   9.592   2.115 -0.1696 -0.1300  0.3684
13531W        W29605   4.202   2.083   2.256  0.0801 -0.0621  0.1376
13532W        W29606  12.594   7.229   2.497  0.2569 -0.1059 -0.2651
13533W        W29607   9.678  12.802  14.975  0.1903 -0.1117  0.0763
13534W        W29608  13.293   6.168   3.822 -0.0210  0.1392 -0.0029
13535W        W29609  10.569   4.117   3.497  0.1110 -0.1823  0.0428
13536W        W29610  16.754  12.269   2.100 -0.0512  0.2026 -0.2660
13537W        W29611   1.468  11.614   2.239  0.0996 -0.1040  0.0584
13538W        W29612  10.380  14.175   1.695 -0.2993  0.1484 -0.0548
13539W        W29613   8.485   4.034  12.410 -0.3098  0.2913  0.0436
13540W        W29614  10.283  17.052   1.701  0.1467  0.0782 -0.3382
13541W        W29615   1.507   4.764  13.281 -0.2481  0.1266  0.2186
13542W        W29616  14.167  11.389  13.483 -0.0669  0.1623 -0.0260
13543W        W29617   6.266   6.984   2.738 -0.2612 -0.0553  0.0871
13544W        W29618   4.936  14.857   3.991 -0.0941  0.0143  0.5266
13545W        W29619   9.598   8.210  13.763  0.0034 -0.3389  0.1031
13546W        W29620   1.309   6.018  11.410  0.1319 -0.2528 -0.0540
13547W        W29621   1.394  18.026  11.857 -0.0255  0.2447 -0.0912
13548W        W29622   2.093  17.331   4.980 -0.3537 -0.5908 -0.1220
13549W        W29623   2.017  14.672   4.469 -0.2497  0.1100  0.0948
13550W        W29624  16.697   3.322   5.286 -0.3282 -0.2149 -0.2856
13551W        W29625   0.059   3.591  16.433 -0.1572 -0.1675  0.2105
13552W        W29626  10.351   6.141  15.672 -0.2702  0.0806  0.1343
13553W        W29627   4.725  11.361  14.064 -0.1336 -0.0908  0.0263
13554W        W29628  14.690  13.877  13.591  0.2056  0.2773 -0.0405
13555W        W29629  13.281  14.199  11.875  0.2751 -0.3144  0.0295
13556W        W29630   0.564  14.260   2.450  0.1303 -0.3401  0.2223
13557W        W29631   5.663   0.722   3.809 -0.0977  0.1782  0.0662
13558W        W29632  17.271   9.667  14.518  0.1186  0.0054  0.3752
13559W        W29633   9.773  14.324   4.866  0.0456 -0.1494  0.2266
13560W        W29634  11.537  15.484  16.052 -0.1058 -0.0127 -0.0812
13561W        W29635   5.008  12.959  13.521  0.1966 -0.1372  0.0206
13562W        W29636  15.325   6.196  11.275  0.2299  0.2301 -0.0807
13563W        W29637  13.981  16.708  12.313 -0.0948  0.0046  0.2289
13564W        W29638  15.417   7.075   1.930  0.0382 -0.1672 -0.2898
13565W        W29639   6.373   2.856   2.707  0.1782  0.0025 -0.0424
13566W        W29640  11.672  14.759   1.370  0.0271 -0.0604  0.2654
13567W        W29641  12.222   0.631  13.632 -0.5326 -0.1724  0.1292
13568W        W29642  12.169   5.223   0.375  0.0270  0.3492 -0.0700
13569W        W29643  11.611  16.644   4.320  0.0719 -0.0421 -0.1260
13570W        W29644   5.357  10.972  14.728 -0.2987  0.1919  0.0986
13571W        W29645   1.320  14.428  16.436  0.1390  0.0708  0.0179
13572W        W29646   9.708  12.521   5.158  0.0955  0.0674  0.2304
13573W        W29647   7.069  15.285   6.314  0.3537  0.1542 -0.4932
13574W        W29648  13.548  15.445   2.813  0.1082 -0.0537 -0.1308
13575W        W29649   3.171  18.230   3.374  0.1544 -0.2113 -0.4456
13576W        W29650   2.363   7.994  16.440  0.1099  0.3473 -0.2258
13577W        W29651  10.116  11.937   3.545  0.1775  0.3205  0.1528
13578W        W29652  12.081   7.929  12.577 -0.0118  0.2764  0.0335
13579W        W29653  12.060   2.724   2.414 -0.1218  0.1319  0.2789
13580W        W29654   1.006   6.594  13.185  0.0106 -0.1390 -0.0851
13581W        W29655   1.511  14.873  11.430 -0.2243  0.0330 -0.0784
13582W        W29656  14.078   2.718   2.471  0.3428 -0.0501 -0.3246
13583W        W29657   9.159   5.564  16.168  0.0438  0.1293  0.1260
13584W        W29658   8.569   6.025   5.252 -0.1414 -0.1161 -0.0425
13585W        W29659  15.131   8.587  10.507  0.3488 -0.2273 -0.0155
13586W        W29660   0.553  15.736  13.374  0.3831 -0.3114  0.1232
13587W        W29661   6.067   9.059   0.189 -0.0398 -0.1543  0.2124
13588W        W29662  17.019  15.153  13.990  0.1191  0.1168  0.1432
13589W        W29663   9.700  10.276  15.828  0.0316 -0.1327 -0.0132
13590W        W29664   3.786  11.371   4.080  0.0555  0.1962  0.0462
13591W        W29665   1.291   9.211   0.283  0.0413  0.3402  0.0766
13592W        W29666  13.140   3.336   0.313  0.0200 -0.1119  0.0915
13593W        W29667   6.509  18.199  12.548  0.1055 -0.4039 -0.0486
13594W        W29668  17.565   9.515  13.565  0.0970  0.2524 -0.1672
13595W        W29669   8.688   2.190  14.434 -0.0216 -0.0856 -0.2954
13596W        W29670   7.825   6.907  15.703  0.0262  0.2593  0.1092
13597W        W29671  11.074  12.081   5.469  0.0090 -0.3268 -0.1940
13598W        W29672  15.202  16.989   3.635  0.1082  0.0908  0.2518
13599W        W29673  12.923   6.756   0.770 -0.3284 -0.0579 -0.0863
13600W        W29674   2.393   9.896  15.603  0.1059 -0.0758  0.0665
13601W        W29675   0.804   3.808   5.420 -0.0202  0.0835 -0.1841
13602W        W29676   3.918   7.881   1.619 -0.0468  0.1244 -0.2946
13603W        W29677  12.614   0.860   5.109 -0.0541  0.1739  0.0780
13604W        W29678  12.614  11.750  13.694  0.0225  0.1874 -0.0338
13605W        W29679  17.490  16.518  13.170 -0.1760  0.1757 -0.1487
13606W        W29680  15.599   8.297   4.155  0.0473 -0.0226  0.1889
13607W        W29681  13.026   2.098   4.730 -0.3182  0.3547  0.1755
13608W        W29682  17.100   1.314   2.784 -0.0176  0.1066  0.2307
13609W        W29683   9.035  13.106   4.175 -0.1083 -0.1420  0.0354
13610W        W29684   9.332   8.194   5.291  0.0079  0.0761 -0.0726
13611W        W29685  13.626  17.639   3.572 -0.0144  0.2470  0.2416
13612W        W29686   4.427   0.423  14.197 -0.1601 -0.3381  0.2984
13613W        W29687  11.093  15.391   4.219 -0.0249  0.0023  0.1885
13614W        W29688  12.819  14.899  16.214  0.2038 -0.2401  0.4597
13615W        W29689   7.238   6.010   2.431  0.0989 -0.1108  0.2036
13616W        W29690   8.753  13.377  12.692 -0.3046 -0.2092 -0.1079
13617W        W29691  11.073   9.867  13.042  0.0457  0.1079 -0.1051
13618W        W29692   1.648  13.550  11.265 -0.3108  0.0934  0.0938
13619W        W29693   5.831  12.716   1.728 -0.0587  0.0668  0.3532
13620W        W29694  10.573   8.296  14.823  0.1417  0.0934 -0.1713
13621W        W29695   7.886  15.383   2.944  0.2289 -0.4712  0.1274
13622W        W29696   9.126   5.371  15.375  0.1681 -0.0752 -0.2651
13623W        W29697   5.632   9.653   3.311  0.2498 -0.0500  0.1241
13624W        W29698   7.911   8.230  13.238  0.2353  0.0893  0.2433
13625W        W29699  10.048  14.270   4.381  0.1224  0.0786 -0.0367
13626W        W29700   5.581   4.571   6.284  0.1774  0.2906  0.1854
13627W        W29701  14.649   4.766  14.249 -0.2464  0.2861 -0.2558
13628W        W29702   7.853   6.399   1.645  0.0901 -0.0437  0.0600
13629W        W29703   4.189   4.431   4.333 -0.0332  0.0990 -0.3847
13630W        W29704  10.815  17.546  14.590  0.2417 -0.1545  0.3397
13631W        W29705  17.414  17.325  12.256 -0.0084 -0.3190  0.5042
13632W        W29706   4.756   9.928   3.094 -0.1135  0.2289 -0.3280
13633W        W29707   0.518  12.851  13.697 -0.1237  0.3353  0.1067
13634W        W29708   8.647   8.451  15.503 -0.1438 -0.0279 -0.4058
13635W        W29709  11.386   9.343   2.239 -0.3771 -0.0625 -0.2377
13636W        W29710   2.703   4.106  13.938  0.0228  0.1164  0.0631
13637W        W29711   2.029  17.674   1.624 -0.0283 -0.3212 -0.2113
13638W        W29712  15.732  15.844  13.094  0.0313 -0.2374 -0.1821
13639W        W29713  13.329   9.785  14.585  0.0255  0.3210 -0.0398
13640W        W29714  12.617   1.835   5.355  0.0208  0.3201  0.2753
13641W        W29715  17.062  10.209  11.169  0.2856 -0.1549 -0.0201
13642W        W29716   7.304   9.658  15.799 -0.2029  0.1550 -0.0597
13643W        W29717   3.153  13.297   0.868 -0.1953 -0.4216  0.0553
13644W        W29718   4.077  12.683   3.424  0.2987  0.1870  0.2246
13645W        W29719   6.100   7.313   5.168  0.1435  0.1713 -0.2549
13646W        W29720   9.794   5.227   1.074 -0.1047 -0.2172  0.1842
13647W        W29721  10.276   0.269  16.021 -0.3271  0.1084  0.1010
13648W        W29722   1.388  15.529   3.974 -0.1119 -0.1768 -0.0034
13649W        W29723   4.336  16.610  12.118 -0.0480 -0.0819  0.2735
13650W        W29724   3.490  15.983   5.072 -0.0104  0.0607  0.1200
13651W        W29725  13.907  15.839   2.814 -0.1135  0.1528 -0.2983
13652W        W29726   2.342  14.976   0.353 -0.3523 -0.1189 -0.1462
13653W        W29727  10.503   2.313   0.908 -0.0635  0.5061  0.0120
13654W        W29728   0.242   4.945  12.313  0.0599  0.0346 -0.3825
13655W        W29729   6.531   0.622  14.141  0.0305  0.0715 -0.1990
13656W        W29730   3.358  11.671  11.439 -0.0668 -0.0644 -0.1642
13657W        W29731   1.089  13.882   1.156  0.0228  0.0052 -0.0241
13658W        W29732  13.405   5.839   0.534 -0.0865  0.1125 -0.0655
13659W        W29733  11.895   2.078   3.557 -0.0077 -0.0782  0.2355
13660W        W29734  10.234   5.271  13.805 -0.0907 -0.2110 -0.3880
13661W        W29735  18.125  15.263  13.639 -0.1158 -0.2107  0.2214
13662W        W29736   7.116  12.745   4.766 -0.0905  0.1509  0.1428
13663W        W29737   4.636   7.128   2.513 -0.1658  0.0574  0.1261
13664W        W29738   2.898   9.501  12.184  0.0153  0.4087  0.2008
13665W        W29739  17.649   0.832   4.781 -0.0935  0.1349  0.2254
13666W        W29740  12.477  16.756   2.078  0.3147 -0.0747 -0.1632
13667W        W29741  12.524   4.576   4.281  0.0731  0.0379  0.0658
13668W        W29742   4.979  13.851  13.687  0.1759  0.3266 -0.3982
13669W        W29743   2.735  14.098  13.312 -0.3520  0.0146  0.1617
13670W        W29744  16.663   4.709   3.505 -0.0068  0.0304  0.2038
13671W        W29745  14.689  12.306  14.284  0.1548 -0.1343 -0.0957
13672W        W29746   1.485   9.775  12.337  0.1899 -0.4835 -0.0198
13673W        W29747  16.515  13.091   2.701 -0.0497 -0.1087 -0.3081
13674W        W29748   8.464   5.329  11.747 -0.0529  0.1006  0.2452
13675W        W29749  10.469  11.333  13.595  0.2796 -0.2854 -0.0701
13676W        W29750   9.351   5.305   4.823 -0.0831 -0.0794  0.1660
13677W        W29751   9.809  10.186   3.853 -0.0816 -0.3061  0.3357
13678W        W29752  10.245   8.357  15.229 -0.1432  0.0219 -0.0533
13679W        W29753  18.098   4.561   5.171 -0.2178 -0.1050  0.0761
13680W        W29754   8.791   8.460   0.418 -0.1618 -0.0415 -0.1519
13681W        W29755   4.104  17.053  13.378  0.0937  0.0043 -0.1729
13682W        W29756  17.945   3.843  11.799  0.2905  0.4812  0.0862
13683W        W29757   6.150  14.457   5.686  0.0920  0.1062 -0.0392
13684W        W29758   0.702   7.519   0.891 -0.1219  0.1004  0.0487
13685W        W29759   4.367  16.065   3.512  0.0328 -0.3080 -0.0709
13686W        W29760   7.884  13.359  15.600 -0.1203  0.1420 -0.0731
13687W        W29761  13.010   2.422  15.892 -0.4096  0.0189 -0.0962
13688W        W29762   9.063   2.494   2.874 -0.0065 -0.0535  0.0932
13689W        W29763   7.692  10.610   2.133 -0.1732 -0.3159  0.0292
13690W        W29764   3.397   3.025  14.075  0.3327 -0.0179 -0.1428
13691W        W29765   2.795  12.361   5.040 -0.1867 -0.3989 -0.0254
13692W        W29766  12.196  11.597  14.823  0.1193  0.2495  0.4334
13693W        W29767   1.253   9.053  15.390 -0.0836  0.0512 -0.0512
13694W        W29768   7.738   3.076  13.768  0.2413  0.2434 -0.0240
13695W        W29769   8.053   7.771  12.470 -0.4504 -0.2139  0.0451
13696W        W29770  16.739  10.207   5.861  0.2891 -0.1223  0.1690
13697W        W29771   2.052   3.761  14.572  0.0843 -0.0187  0.0940
13698W        W29772   9.941   8.473  14.121 -0.1464  0.1527  0.2555
13699W        W29773  10.565   7.726   1.314 -0.0627  0.1786 -0.0233
13700W        W29774  16.636  14.484  13.064  0.2030 -0.3060  0.2030
13701W        W29775  14.453   2.556   4.949  0.3150  0.0503 -0.2190
13702W        W29776   7.085  14.108   0.292  0.2948  0.4370  0.3962
13703W        W29777  15.102  12.483   1.464  0.1304  0.2856  0.2430
13704W        W29778   0.094  14.999  12.236 -0.1249  0.1789 -0.1043
13705W        W29779   8.145   8.846   4.355 -0.0225 -0.0258 -0.1497
13706W        W29780  12.456   5.997  14.024 -0.0871  0.2227  0.2962
13707W        W29781  12.703   4.408   5.320 -0.0096  0.0693  0.0755
13708W        W29782  16.859   5.166  15.667 -0.4630 -0.2027  0.3320
13709W        W29783   1.550   4.233  11.950 -0.4050  0.0556  0.1792
13710W        W29784   4.320   4.970  12.002  0.1998  0.2469  0.3040
13711W        W29785   3.358   5.936   2.409 -0.0590  0.1877 -0.3939
13712W        W29786   4.574   8.150   1.711  0.2155 -0.1328 -0.5533
13713W        W29787   1.041   4.875   2.673 -0.0386  0.3902  0.0152
13714W        W29788   7.611   6.513  15.431  0.0350  0.2697  0.2502
13715W        W29789   3.238   3.456  16.076 -0.1335  0.0688  0.2805
13716W        W29790   7.379   1.889   2.662  0.0590  0.1456  0.2896
13717W        W29791  16.391  11.132   0.716  0.0791  0.0891 -0.1555
13718W        W29792   3.119   1.197  12.589  0.1004  0.3925  0.1857
13719W        W29793  12.700  10.843  13.919 -0.1458 -0.1838  0.0395
13720W        W29794  12.006  13.663  14.898  0.0218  0.4188 -0.1657
13721W        W29795  16.315   0.598   6.301  0.0695  0.1375  0.1744
13722W        W29796   6.376  16.968   5.016  0.0637 -0.0021  0.3462
13723W        W29797   3.590   4.565  12.383  0.2700 -0.1841  0.0316
13724W        W29798   3.252  16.931   5.326  0.1405  0.3034 -0.2675
13725W        W29799  15.152   1.565   3.047  0.0900  0.0216  0.0105
13726W        W29800   9.333  14.444  12.051 -0.0391 -0.3191 -0.1666
13727W        W29801   2.486   3.143  13.891  0.4445 -0.3554  0.1707
13728W        W29802   6.928   9.277   1.478 -0.0488 -0.4296  0.3122
13729W        W29803   6.556   3.876   2.172  0.0975 -0.0689 -0.3342
13730W        W29804   6.535  14.227   2.887 -0.2536 -0.1348  0.0930
13731W        W29805  15.598  15.393   4.606  0.0276  0.1412  0.3656
13732W        W29806   2.136   6.439   4.614  0.0027 -0.1076 -0.0277
13733W        W29807  15.180   6.576  13.334  0.0403 -0.4084  0.0755
13734W        W29808  12.032   9.705   3.254  0.0822  0.0191 -0.0342
13735W        W29809   1.035   9.523   1.259  0.0858 -0.2360  0.1217
13736W        W29810  16.375   7.907  12.985 -0.0466  0.0748 -0.0055
13737W        W29811   6.088   5.441   4.780 -0.3409  0.1778  0.1669
13738W        W29812   0.100  15.306   1.706 -0.0874  0.2332  0.1764
13739W        W29813  14.862  12.776   5.391  0.0821  0.2006  0.0432
13740W        W29814   8.869   8.003  15.383 -0.1389  0.2387  0.2556
13741W        W29815   4.155  15.386  14.347 -0.0934  0.3004  0.2346
13742W        W29816   7.699  11.875  12.730  0.1610 -0.1263 -0.1666
13743W        W29817   5.901   3.653   5.272 -0.2722 -0.2858  0.1708
13744W        W29818   0.793  16.273   0.324  0.0684  0.1017 -0.1258
13745W        W29819   1.158   8.967   1.991  0.2165  0.1893 -0.1612
13746W        W29820  16.103  17.146   5.898 -0.0508 -0.2179  0.0106
13747W        W29821   7.837  10.267  13.652 -0.0494 -0.3816  0.1441
13748W        W29822  11.504   2.210  13.595  0.3857 -0.0338  0.1097
13749W        W29823   0.970  12.089   1.794  0.0700 -0.5845  0.1962
13750W        W29824  16.129   3.808  13.114 -0.2027 -0.2298 -0.0042
13751W        W29825   5.710  15.005   3.287  0.2144  0.0581 -0.1658
13752W        W29826  16.520   8.337   1.196  0.0815  0.1417  0.0821
13753W        W29827   5.798  13.133   1.406 -0.4557 -0.0457  0.0405
13754W        W29828  13.731   0.029   2.248  0.0258 -0.1009 -0.0264
13755W        W29829   8.062  15.737   1.161  0.2903 -0.0427  0.0666
13756W        W29830  13.047  16.440   2.852 -0.0678  0.0581  0.4576
13757W        W29831  10.278   6.172  12.127 -0.0263 -0.2938 -0.1598
13758W        W29832  11.062   1.694   0.644  0.1609 -0.1489  0.0143
13759W        W29833  16.772   1.061  16.302 -0.3263  0.0084  0.0813
13760W        W29834  11.862   3.155   4.624  0.0314 -0.1095 -0.1148
13761W        W29835   8.972   0.244   5.471 -0.2251  0.0446 -0.2107
13762W        W29836   0.972   1.000   0.434 -0.1581 -0.1062 -0.1581
13763W        W29837  15.702  16.989   0.099 -0.1458 -0.1345 -0.3241
13764W        W29838   7.575   1.491  16.156 -0.0766  0.1328  0.3576
13765W        W29839   9.925   9.198  13.511 -0.2305 -0.0517 -0.0791
13766W        W29840  13.298  15.565  12.213 -0.0546 -0.2270 -0.2560
13767W        W29841  14.096  13.070   4.802 -0.5437 -0.2337 -0.1682
13768W        W29842   9.913  15.146   4.212  0.3399 -0.0256 -0.0654
13769W        W29843   5.708  11.056  15.812 -0.3292  0.1237 -0.0541
13770W        W29844  17.945   1.136   1.088  0.0344 -0.2599  0.3946
13771W        W29845   8.986   2.789  15.592 -0.1056  0.2559 -0.0617
13772W        W29846   8.220  11.189   5.774  0.1312 -0.2570  0.3300
13773W        W29847   9.967   7.509   4.196 -0.2916 -0.0421  0.1236
13774W        W29848  13.709   8.618  11.669 -0.2751  0.1658 -0.1930
13775W        W29849   8.909  10.206   0.462 -0.1081 -0.0089  0.2334
13776W        W29850  15.406   2.044   5.334 -0.3706 -0.1875 -0.2334
13777W        W29851  10.744  17.417  12.713  0.2535  0.0129 -0.0444
13778W        W29852  17.874  11.630   1.196 -0.0560 -0.0075 -0.2656
13779W        W29853  10.627   0.013   4.183  0.2024 -0.0235 -0.2600
13780W        W29854   9.039  16.175  12.200  0.1128 -0.2037  0.3238
13781W        W29855   3.997   2.653   4.046  0.1807  0.0625 -0.1224
13782W        W29856   6.160  15.221  15.193 -0.3500 -0.1591 -0.1042
13783W        W29857  13.894  10.480   3.652  0.0112 -0.0903  0.2055
13784W        W29858  16.080   0.228   5.965 -0.0657  0.2790 -0.2376
13785W        W29859  18.045  18.086   4.124  0.1260 -0.0607 -0.4246
13786W        W29860   1.931  13.601   2.194 -0.2413 -0.2613  0.1976
13787W        W29861  13.060  12.818   0.724  0.1843  0.0978 -0.1032
13788W        W29862  15.693  11.945   1.618 -0.0242  0.1053 -0.0233
13789W        W29863   2.523  17.229   0.646  0.2038  0.5101 -0.0858
13790W        W29864   4.123   4.944   2.745  0.1313 -0.1892  0.0657
13791W        W29865   0.389   6.548  14.679 -0.1640 -0.4453  0.1657
13792W        W29866  17.297  15.799   0.981 -0.0528 -0.0863 -0.0584
13793W        W29867  11.887   7.358   0.990  0.3064 -0.0389  0.3087
13794W        W29868  15.099   6.330  12.314 -0.0222  0.0226  0.2680
13795W        W29869  12.488   2.857   3.821 -0.1812 -0.2936  0.2459
13796W        W29870  17.552  16.330   0.472  0.0125  0.0626  0.1192
13797W        W29871   0.505   9.163  15.999  0.0376  0.1242  0.0923
13798W        W29872   7.383  14.677   4.261 -0.1170 -0.0097  0.0987
13799W        W29873  13.646   1.958  15.118 -0.1189 -0.0212 -0.1116
13800W        W29874   6.081  13.272  14.260 -0.1976  0.1275  0.2274
13801W        W29875   6.539   0.962   3.372 -0.1686 -0.0165 -0.2173
13802W        W29876   3.396   6.706   0.928  0.1115 -0.1231 -0.0596
13803W        W29877  11.862   0.589  13.166 -0.0194 -0.2664 -0.0967
13804W        W29878   7.271   6.445  14.127  0.0455  0.1151 -0.2441
13805W        W29879   8.285  10.436   5.351 -0.1309  0.1694 -0.0043
13806W        W29880  14.281   4.264  11.844  0.0380  0.5588  0.0471
13807W        W29881  13.107   1.489  11.949  0.0092 -0.0054  0.0123
13808W        W29882  14.847   7.851  12.114  0.2564  0.4242 -0.1386
13809W        W29883  16.768  11.282   0.046 -0.2319 -0.3507 -0.0486
13810W        W29884   1.804  15.962   2.612  0.0720  0.2323 -0.1870
13811W        W29885   0.019   1.973   1.176 -0.3434 -0.0589  0.0226
13812W        W29886   8.595  17.801  13.453 -0.3070 -0.0793 -0.4385
13813W        W29887  17.923   4.254   0.357 -0.1019  0.0137  0.2027
13814W        W29888   5.209   2.610   6.051 -0.0277  0.0437  0.1768
13815W        W29889  17.587   0.477   0.400  0.1559  0.0308  0.3649
13816W        W29890   8.081   0.771  15.507 -0.2548 -0.0585 -0.1595
13817W        W29891  14.080  17.583  16.454 -0.0459 -0.0132 -0.0988
13818W        W29892   4.258  15.450  15.854  0.3048  0.1412  0.2086
13819W        W29893  16.291  14.229  12.805  0.0709 -0.2107 -0.2793
13820W        W29894   0.192   6.256   1.819  0.0914  0.4175  0.2467
13821W        W29895   8.790   5.170  12.136 -0.0946  0.0731  0.0941
13822W        W29896   7.896  17.043   5.026  0.1333  0.2469  0.3178
13823W        W29897   2.807  17.254   4.059 -0.0279  0.1659  0.1714
13824W        W29898   2.513   1.643  16.482 -0.0092  0.1888 -0.2158
13825W        W29899   5.559   9.728   0.340 -0.2272 -0.0505  0.3584
13826W        W29900  14.668  12.778   2.591  0.2404  0.3256 -0.0343
13827W        W29901   1.646  15.222  14.795  0.0215 -0.2067  0.0543
13828W        W29902  15.312  17.332   0.543  0.2075 -0.1022  0.0456
13829W        W29903   8.318  15.447  13.245  0.0375 -0.3024  0.0231
13830W        W29904  15.488   0.947   3.706  0.0651  0.0812 -0.2668
13831W        W29905   5.203  14.787   4.617 -0.0216 -0.0024 -0.1659
13832W        W29906   0.675   7.562   1.838 -0.0433 -0.1877 -0.0480
13833W        W29907   0.480   2.500   4.713  0.0121 -0.0596 -0.0602
13834W        W29908  15.793  17.753   0.639  0.2462  0.1725  0.4718
13835W        W29909  13.577   6.193   5.571 -0.1928 -0.1558  0.0426
13836W        W29910   7.581   8.863   2.646  0.0553  0.2339  0.0287
13837W        W29911  13.968   6.807   4.192  0.1321 -0.2207 -0.0207
13838W        W29912   3.921   3.680   1.831  0.0326 -0.0668 -0.1215
13839W        W29913  10.032  11.607  13.070 -0.1949 -0.0438 -0.2353
13840W        W29914   5.681  14.822   1.632 -0.3562  0.2303  0.4213
13841W        W29915   5.310   3.419   2.946  0.2573  0.0011  0.0319
13842W        W29916  11.528   9.299   0.596  0.0996 -0.3173 -0.0963
13843W        W29917   2.808  10.599  14.841 -0.3706 -0.3602 -0.1574
13844W        W29918   0.517   8.208   3.543 -0.0464  0.1089 -0.0123
13845W        W29919  18.062   4.923   3.548  0.2214 -0.3091  0.0267
13846W        W29920  16.589   4.431   0.133  0.2773 -0.0753 -0.0337
13847W        W29921  17.488   2.335  13.113 -0.1925  0.0177 -0.0470
13848W        W29922  15.814   1.419   2.341 -0.1678  0.0989 -0.5255
13849W        W29923   8.747   1.626  16.095  0.0983  0.1303 -0.1797
13850W        W29924  12.145   3.123   5.039  0.0251  0.1447 -0.0048
13851W        W29925   6.533  10.288  13.926  0.0739  0.1232 -0.1332
13852W        W29926  14.856  15.335  16.175  0.1036  0.2024 -0.2418
13853W        W29927   6.597  13.320   1.943  0.0518  0.1158  0.1499
13854W        W29928   5.567  14.556  14.917 -0.1920 -0.3623  0.0864
13855W        W29929   6.045  16.146   5.907 -0.1324 -0.0548 -0.1601
13856W        W29930  15.430   6.652  16.131  0.3320  0.0716  0.0654
13857W        W29931   1.923   1.351  14.171 -0.1438  0.1897  0.1044
13858W        W29932   8.401  11.898   3.668  0.0492 -0.1054 -0.0336
13859W        W29933   8.122   5.745   2.886 -0.0284 -0.0640 -0.1918
13860W        W29934   3.835  11.161   2.557  0.0622 -0.2799 -0.1856
13861W        W29935  15.423  14.527  15.908  0.2664 -0.2449 -0.0492
13862W        W29936  13.464  17.027   0.141 -0.2062  0.0016 -0.1012
13863W        W29937   6.942   6.519   0.530  0.0348  0.1919 -0.2270
13864W        W29938  14.392  12.802  13.578 -0.2249  0.0807  0.2836
13865W        W29939   2.079  11.586  15.725 -0.1926  0.2681  0.2971
13866W        W29940   7.221  16.627  13.379 -0.1892 -0.2753  0.1822
13867W        W29941   8.747  11.205   4.294 -0.2926 -0.0485  0.3314
13868W        W29942  17.184  16.046   0.579 -0.1110 -0.0085 -0.0019
13869W        W29943   1.519  11.609  13.786  0.1327  0.1219 -0.0738
13870W        W29944  10.856  11.511  13.263 -0.0356 -0.3603  0.2785
13871W        W29945  13.285   9.547  15.969 -0.2929  0.1559 -0.1103
13872W        W29946  13.697  13.071   2.503  0.0288 -0.0929  0.0307
13873W        W29947   0.177   0.208   3.430 -0.3514  0.3514  0.2178
13874W        W29948   4.766   3.052   0.892  0.1231  0.2278 -0.2205
13875W        W29949   2.070  16.759   2.318  0.0235 -0.0309  0.1796
13876W        W29950  16.594  15.731  14.547 -0.0389 -0.3433  0.0729
13877W        W29951  11.180  17.546  14.996  0.3536 -0.2213  0.3881
13878W        W29952   6.004   2.803   0.637  0.1577  0.5240 -0.0302
13879W        W29953   9.796   3.442   3.999 -0.3533  0.0374 -0.3110
13880W        W29954   2.876  15.087   0.231 -0.0568 -0.2471  0.1420
13881W        W29955  13.322   5.120  16.302 -0.0100  0.0979 -0.0660
13882W        W29956  17.315   6.562  12.658 -0.0806 -0.1117 -0.1077
13883W        W29957   4.800   9.061   1.378  0.0288  0.0068 -0.2456
13884W        W29958  16.759  15.893   3.388  0.5307 -0.1333  0.0948
13885W        W29959   4.036   0.457   1.499  0.1676 -0.1878  0.0116
13886W        W29960  11.622   5.497   4.198  0.1405 -0.2682 -0.2972
13887W        W29961  12.696  14.493  13.712 -0.0778 -0.0058 -0.1090
13888W        W29962  17.569   7.210  14.219  0.1318  0.1594  0.0921
13889W        W29963  16.010   4.337  14.963  0.0974 -0.2532 -0.1680
13890W        W29964  12.830   5.716  15.630 -0.2951 -0.1340  0.1339
13891W        W29965   7.755   1.227  12.457 -0.1258  0.2821 -0.0632
13892W        W29966   3.862  14.795   2.507 -0.1428 -0.0805 -0.2171
13893W        W29967   9.751  12.503  11.386 -0.1552  0.1219  0.1236
13894W        W29968  11.305  17.369   6.373  0.0763 -0.1346  0.2517
13895W        W29969  17.507  12.477  11.597 -0.2979 -0.1991  0.2094
13896W        W29970   9.618   7.517   5.985 -0.0134 -0.0096 -0.0941
13897W        W29971   5.368  15.435  15.565 -0.0628 -0.0959 -0.1028
13898W        W29972   0.974   0.993   1.035  0.3047  0.1433  0.3219
13899W        W29973  17.745   8.540  11.483  0.0019  0.1381 -0.0701
13900W        W29974   0.288   8.830  11.647  0.1902  0.2057 -0.0502
13901W        W29975   9.706  12.231   5.571  0.3822  0.1214  0.0500
13902W        W29976   0.970  10.291  10.908 -0.2551 -0.1266  0.1745
13903W        W29977  16.526   1.716  15.750 -0.3645 -0.0639  0.0078
13904W        W29978   1.299   8.919  12.737 -0.0997 -0.0404  0.0305
13905W        W29979   3.450   2.946  16.249 -0.1694  0.3080 -0.0335
13906W        W29980  12.349   5.471  12.413 -0.1014  0.2790 -0.1016
13907W        W29981   0.403  14.200   4.457  0.0888 -0.1096  0.1661
13908W        W29982  17.941  14.676  14.283  0.2131  0.0174 -0.1769
13909W        W29983   0.459   7.719   0.472 -0.1646  0.1687 -0.1721
13910W        W29984  10.802  14.362   1.613  0.1482 -0.3653 -0.1054
13911W        W29985   2.099   7.632   5.136 -0.1157  0.0620 -0.1030
13912W        W29986   1.236   8.571  15.606 -0.3122  0.0244 -0.1023
13913W        W29987   1.652  16.003  12.734  0.0139 -0.2708 -0.1682
13914W        W29988   6.508   9.115   5.219  0.0867 -0.0015 -0.0155
13915W        W29989  12.050  15.707  12.521  0.1830  0.0864  0.1872
13916W        W29990  14.840  11.449   2.412 -0.0645 -0.0908 -0.0860
13917W        W29991  13.320  12.856   5.886  0.2547 -0.1034  0.1882
13918W        W29992   7.326  15.764   4.112  0.1857 -0.1868  0.0273
13919W        W29993   2.716  16.597  10.505  0.1508  0.2188  0.0648
13920W        W29994   8.607   2.138  16.086  0.0141  0.1514 -0.2202
13921W        W29995   8.395  10.927   3.964  0.0295 -0.2333  0.0897
13922W        W29996   8.758   6.152   4.754  0.2093 -0.1894 -0.2148
13923W        W29997  17.831  17.082   5.154  0.1537 -0.1404  0.1223
13924W        W29998  14.388  16.091   4.289 -0.2806 -0.1376 -0.1896
13925W        W29999   1.175   0.491   1.695 -0.3799 -0.0077 -0.0098
13926W        W30000  10.048  11.297   0.342  0.1533 -0.1267  0.0249
13927W        W30001  15.274  13.136  11.887  0.1894  0.0972  0.1468
13928W        W30002  10.004  16.709   0.045 -0.2298 -0.2089 -0.3273
13929W        W30003  15.319  17.822  11.330  0.0991  0.0621  0.3165
13930W        W30004  12.367   5.068  15.479 -0.0400 -0.0419  0.1291
13931W        W30005  12.124  10.936   3.394 -0.3174 -0.1380  0.0799
13932W        W30006   0.330  10.676   5.035 -0.0720  0.2994 -0.0824
13933W        W30007   0.059   5.658  15.944  0.1591 -0.2298 -0.1247
13934W        W30008  11.320  12.617   6.790 -0.2546 -0.1305 -0.1644
13935W        W30009  13.696   3.584   0.405  0.0879 -0.2283 -0.2854
13936W        W30010   7.084  14.603  14.670  0.3203  0.4145 -0.3064
13937W        W30011   7.078  17.636   4.867 -0.0215 -0.1690  0.0588
13938W        W30012   7.486   0.898  14.316  0.0408  0.1873 -0.0877
13939W        W30013   3.522  11.728   4.313 -0.3482  0.1864 -0.2519
13940W        W30014   2.106  14.608  12.871 -0.2201  0.0981  0.0335
13941W        W30015  14.837   0.410   0.784 -0.0514 -0.0714 -0.1078
13942W        W30016  10.660   3.231   1.412 -0.1496 -0.0983 -0.1091
13943W        W30017  11.989   4.339  12.542  0.1969 -0.0772 -0.0643
13944W        W30018   9.195  10.311  15.780  0.0115 -0.0989  0.0155
13945W        W30019  18.056   7.318  15.047  0.0147  0.1154 -0.1428
13946W        W30020   2.892  17.860   3.319 -0.1048 -0.0239 -0.1530
13947W        W30021  15.857  14.117  12.619 -0.0412  0.1924  0.1375
13948W        W30022   1.420  10.404   3.632 -0.1414  0.2762  0.1606
13949W        W30023  11.581   5.423   0.966  0.0296  0.0737  0.3505
13950W        W30024   7.855  17.115  14.718 -0.3445  0.0625  0.2439
13951W        W30025   3.428  13.679   3.257 -0.4722  0.1985 -0.3364
13952W        W30026   7.550   9.029  13.897  0.1895  0.1697 -0.1576
13953W        W30027  12.138   2.086   2.786 -0.1287 -0.1687 -0.0617
13954W        W30028   7.378  16.159  14.826  0.1109  0.0683 -0.0286
13955W        W30029  12.384   9.683   4.051  0.1092 -0.1834 -0.2912
13956W        W30030   1.883  17.305   4.315 -0.1288  0.0276  0.3198
13957W        W30031   1.072   4.495  16.108 -0.0022 -0.1284  0.0673
13958W        W30032   9.336  15.065  14.420 -0.1294  0.0936  0.2488
13959W        W30033  10.781  12.399  11.715 -0.3522  0.1111 -0.1324
13960W        W30034  18.200   0.918  15.642 -0.0981 -0.1016  0.3748
13961W        W30035  12.649  12.986   1.570  0.0056  0.1632  0.0449
13962W        W30036  14.359   2.957  14.045 -0.1253 -0.2708 -0.2823
13963W        W30037   4.150  17.038  13.878  0.1439  0.0645  0.4090
13964W        W30038   0.777  15.135   4.738 -0.4533 -0.2672  0.1282
13965W        W30039   1.472   9.408   2.990  0.0333 -0.1955 -0.0307
13966W        W30040   7.729   9.837   3.521  0.0203 -0.1286  0.0230
13967W        W30041  17.335  15.103   0.514  0.1125 -0.2437 -0.3363
13968W        W30042   8.832   3.150  11.081 -0.4265  0.0571  0.0012
13969W        W30043   4.346  14.098  12.229  0.0105 -0.0656 -0.1660
13970W        W30044  10.192   9.991   3.549  0.0531  0.0875  0.0915
13971W        W30045   0.749  16.860  14.568 -0.1715  0.1109 -0.0955
13972W        W30046   5.468   0.239  12.872 -0.0954  0.1486  0.1140
13973W        W30047  17.792  14.387   4.521 -0.1033  0.3859  0.0311
13974W        W30048   7.635  13.784  15.483  0.0763 -0.1246  0.0726
13975W        W30049  15.088  16.443   2.378  0.4283 -0.1447 -0.2148
13976W        W30050   5.742   4.937   3.336 -0.0728 -0.2502 -0.1058
13977W        W30051  17.069   3.989  12.073  0.1926 -0.0958 -0.0609
13978W        W30052  17.277   6.075  12.812 -0.0846  0.0709 -0.2187
13979W        W30053   1.575   0.110   1.936 -0.1625 -0.1058 -0.0508
13980W        W30054  14.583   5.431   2.792  0.3183  0.1109  0.2361
13981W        W30055  15.187  13.555  12.899 -0.0627  0.0466  0.2289
13982W        W30056  17.448   1.451   5.093 -0.0792 -0.0464 -0.1438
13983W        W30057   6.132   9.894  13.791  0.2336  0.0007 -0.1870
13984W        W30058   5.181   6.662   4.342  0.0582 -0.2986 -0.3095
13985W        W30059   3.500  13.157   1.231  0.0329  0.2466  0.1282
13986W        W30060  15.200   4.643  12.639  0.1711 -0.0206 -0.1359
13987W        W30061   1.979  13.795  14.029 -0.1306 -0.3884 -0.0786
13988W        W30062  12.429   1.742  15.594 -0.1128  0.1014  0.2367
13989W        W30063   0.655  13.938   0.891  0.0425 -0.0579  0.4602
13990W        W30064   3.420  11.403   2.474 -0.1718  0.1026  0.3276
13991W        W30065  15.772  14.656  11.367 -0.2488  0.1977  0.0087
13992W        W30066  15.662   5.803   1.524  0.0445  0.0473  0.2451
13993W        W30067   2.577  14.349   4.843 -0.0373 -0.1790 -0.1958
13994W        W30068   3.939   5.310   4.000  0.0526  0.0120 -0.2037
13995W        W30069   1.529   3.319   2.955  0.2807  0.1939 -0.0873
13996W        W30070   7.702   3.702   5.643  0.1235  0.0916 -0.1452
13997W        W30071  16.484   4.817   3.011  0.0353  0.1375  0.0871
13998W        W30072  13.760   9.723   4.543  0.2431 -0.2482  0.0321
13999W        W30073   6.132   5.494  12.272 -0.1667  0.3128  0.2083
14000W        W30074   2.859  16.303   3.056 -0.0764 -0.0701 -0.1639
14001W        W30075   7.558   8.071   0.531 -0.0187 -0.0392  0.1102
14002W        W30076   6.704  17.311  15.727 -0.4051 -0.1953 -0.0696
14003W        W30077  14.931   5.590   1.212  0.0952 -0.2027 -0.0042
14004W        W30078   9.359   0.936   6.201 -0.0533  0.2237  0.2521
14005W        W30079   5.828  15.367   5.760  0.1515 -0.3237  0.2577
14006W        W30080   9.894  14.330   3.092  0.2473  0.1095  0.1495
14007W        W30081  14.858   9.820   0.992 -0.0089 -0.3039 -0.1196
14008W        W30082   3.569   5.912  13.711 -0.0011  0.2210 -0.1656
14009W        W30083   2.539   4.254   2.351  0.0562  0.0305  0.1579
14010W        W30084  12.098   7.640   2.672  0.1451 -0.2842  0.2132
14011W        W30085   7.977   8.704  13.984 -0.0881  0.0078  0.2760
14012W        W30086  12.099   0.358   1.677 -0.0366  0.0770  0.0295
14013W        W30087  15.028   0.807  13.322 -0.0109 -0.1126  0.1702
14014W        W30088   1.222   1.403   1.573  0.0920  0.0898  0.0047
14015W        W30089   9.232   1.654  15.965 -0.4293  0.2991 -0.1807
14016W        W30090   1.446  12.903   2.937 -0.1150  0.0972 -0.1375
14017W        W30091  11.251   7.218   3.007  0.0675  0.1990  0.0959
14018W        W30092   5.899  11.999  14.658 -0.0029  0.0654  0.0667
14019W        W30093   4.404  16.339   3.963  0.1102 -0.2081 -0.4107
14020W        W30094  16.019   3.206  12.269  0.1224  0.1507 -0.2263
14021W        W30095   9.232  16.001  16.492 -0.3249 -0.0568 -0.1213
14022W        W30096   1.022  13.488  14.274 -0.1892 -0.0692 -0.3365
14023W        W30097   1.780   2.767  10.973 -0.1399 -0.1895 -0.0688
14024W        W30098   4.879  13.297  12.612 -0.0303 -0.0779  0.3525
14025W        W30099   6.460   9.836   2.952  0.2975  0.2858 -0.2523
14026W        W30100   3.981   2.553   1.274 -0.1581  0.1741  0.1181
14027W        W30101  18.076   5.685   2.395  0.1465  0.1732 -0.1255
14028W        W30102  16.306  10.033   3.611 -0.3490  0.2627 -0.1205
14029W        W30103   7.676  16.286   1.634  0.2140  0.0469  0.3309
14030W        W30104   4.533   8.252  15.305  0.0697  0.2409 -0.0820
14031W        W30105   3.128   7.646  12.811 -0.0375  0.1446 -0.1396
14032W        W30106  10.219   8.185   3.455 -0.1864 -0.2337 -0.1808
14033W        W30107  17.855   8.073  13.712  0.0490  0.0567 -0.2353
14034W        W30108   0.621  13.000  15.454  0.0743 -0.2389  0.0580
14035W        W30109   2.718  17.642   3.769  0.1592 -0.0268  0.1743
14036W        W30110   7.610  13.347  15.195 -0.2325 -0.2114 -0.1165
14037W        W30111  12.685  14.742   0.928 -0.2326 -0.1399 -0.0303
14038W        W30112  13.621   0.508   0.864 -0.2647 -0.2174 -0.0370
14039W        W30113   0.477   6.900  16.203 -0.1030 -0.2222  0.0743
14040W        W30114  18.001  16.427   3.951  0.4015  0.1997 -0.3930
14041W        W30115   8.044   6.760  16.127  0.0830  0.1697 -0.3716
14042W        W30116   7.146   5.808   4.115  0.1934  0.0350 -0.0901
14043W        W30117   5.849   5.895   5.640 -0.2283 -0.1177  0.1047
14044W        W30118   8.364   8.551  14.686 -0.3053  0.1109  0.0568
14045W        W30119  15.362  16.720  14.882  0.0800 -0.0230 -0.1529
14046W        W30120  10.965  12.098   3.130  0.1539 -0.2469  0.1726
14047W        W30121   5.581   2.296   4.771  0.0914 -0.0554 -0.1800
14048W        W30122   7.543  11.350   2.973 -0.0798 -0.1285 -0.3799
14049W        W30123  17.040   2.752   2.512  0.0235  0.2128 -0.2386
14050W        W30124   6.868   0.376  15.801  0.0603  0.0009 -0.0039
14051W        W30125   6.109  13.221  12.940 -0.3267 -0.2375  0.0699
14052W        W30126   3.815  18.146   0.243 -0.1280 -0.2095 -0.2002
14053W        W30127   0.020  12.584   0.049  0.3403 -0.0349 -0.1006
14054W        W30128  17.776   8.147  12.815 -0.1608 -0.2107  0.0404
14055W        W30129  17.081  16.516   4.887 -0.1848 -0.1947  0.0760
14056W        W30130  17.667   9.139  13.959 -0.0497  0.4031 -0.1377
14057W        W30131   1.360   9.840   0.357  0.1035  0.3275  0.0438
14058W        W30132   8.485   5.989   3.129  0.1733 -0.4470 -0.3518
14059W        W30133   8.075   6.223   4.021 -0.3209 -0.4615 -0.0664
14060W        W30134  13.059   1.131   3.195 -0.1592 -0.4007  0.0905
14061W        W30135   7.085  11.680  13.556 -0.1762  0.1871 -0.2918
14062W        W30136  16.922   8.625  16.291  0.0957 -0.0802  0.1759
14063W        W30137   5.798   6.369  11.844  0.0748  0.1303  0.1692
14064W        W30138   9.655   9.553   0.526  0.1013  0.0493  0.0818
14065W        W30139  18.207   3.228   0.535 -0.2468 -0.0459 -0.2306
14066W        W30140  12.663   4.481  15.826  0.0384 -0.0365 -0.0725
14067W        W30141   6.403  15.076  12.514  0.0923  0.0798  0.1400
14068W        W30142   1.517   9.802  13.781  0.1273 -0.1053 -0.0527
14069W        W30143  13.479   7.413   2.175  0.0952  0.3250 -0.3109
14070W        W30144   5.543   0.844   4.903 -0.2983  0.0932  0.2067
14071W        W30145  16.751  16.927  12.751 -0.1897 -0.1715  0.1656
14072W        W30146   3.715   0.253   3.984  0.3383  0.0036 -0.0445
14073W        W30147  13.215   0.134  12.653 -0.3774 -0.0882 -0.1622
14074W        W30148   8.685   3.307   1.997 -0.2099 -0.0965 -0.2047
14075W        W30149  10.835  12.533  13.706  0.1384 -0.0575  0.1276
14076W        W30150   3.448   5.336  12.015 -0.1035  0.0631  0.2130
14077W        W30151  12.865  15.503   4.517  0.2031 -0.1408  0.0930
14078W        W30152  14.158   9.268  12.819  0.0517  0.0670 -0.0301
14079W        W30153  11.293   3.317   5.666 -0.0209 -0.1226  0.0945
14080W        W30154  15.963  14.531  14.875 -0.1516 -0.0757 -0.1869
14081W        W30155   5.341  16.687  10.717  0.1886 -0.1079  0.0249
14082W        W30156   4.388  13.898  11.302  0.0384  0.1960 -0.2434
14083W        W30157   3.820  15.576  11.246 -0.1244  0.2970  0.0645
14084W        W30158  16.183   6.358   1.240 -0.0862 -0.1023 -0.2525
14085W        W30159   6.926  17.536   3.943  0.2481 -0.2352  0.2712
14086W        W30160   8.734  12.629   3.335  0.1357 -0.0573  0.1092
14087W        W30161   0.024  15.565   0.518  0.0730 -0.2583 -0.0104
14088W        W30162  13.010  14.339  12.240 -0.0921 -0.4149 -0.3214
14089W        W30163   1.850  16.726   1.746  0.1152  0.0622  0.2238
14090W        W30164  15.551   0.787  15.566 -0.1593  0.1629 -0.0938
14091W        W30165  10.561  15.056  14.573  0.1618  0.0807  0.1413
14092W        W30166   6.271   4.872  11.654  0.1220  0.0437  0.1369
14093W        W30167   0.349  10.988   2.673 -0.0110  0.0335 -0.3107
14094W        W30168   9.822   2.999  14.000 -0.1947 -0.2476 -0.1890
14095W        W30169   2.279   3.532   3.746 -0.2259  0.1720 -0.1445
14096W        W30170   8.709   3.588   0.137 -0.1423 -0.0722 -0.3086
14097W        W30171   2.858   1.246   2.481  0.0494 -0.1987 -0.0349
14098W        W30172   2.163  12.369   3.204  0.0507 -0.1016 -0.0650
14099W        W30173  13.205  16.541  14.573 -0.3229  0.1683  0.2305
14100W        W30174   8.452  16.363   5.415 -0.0181 -0.2758 -0.2636
14101W        W30175   2.000   3.021   4.900  0.0363 -0.2711 -0.0058
14102W        W30176  15.789  17.780  12.069  0.0121 -0.0505 -0.0540
14103W        W30177  11.665   5.531  11.856  0.2013 -0.0754 -0.0090
14104W        W30178  14.303  10.593   1.379  0.1092  0.1196 -0.3975
14105W        W30179  15.694   4.342  13.571  0.1991 -0.1017 -0.1620
14106W        W30180   9.852  17.501   5.218  0.0680 -0.0011  0.0963
14107W        W30181   0.839   8.015   0.292  0.1284 -0.1137 -0.3311
14108W        W30182   5.846   7.515  15.463 -0.0812  0.0738  0.0163
14109W        W30183   7.155  11.265  16.316 -0.2101 -0.2400  0.0196
14110W        W30184  10.136   9.589   2.641  0.0673 -0.1642  0.1260
14111W        W30185  10.197   4.229  14.859 -0.1405 -0.1678 -0.1218
14112W        W30186  10.823  17.106   1.368 -0.1310  0.0790 -0.0160
14113W        W30187  17.104  12.259   2.929 -0.0485  0.1147 -0.2832
14114W        W30188  17.490   2.869   5.516 -0.1687  0.0852  0.2547
14115W        W30189  18.187   2.820   1.668  0.0278 -0.0041  0.1722
14116W        W30190   1.780  13.650  12.626  0.1963  0.1709 -0.2371
14117W        W30191  10.863  14.267   2.593  0.1328 -0.1852  0.0082
14118W        W30192  17.608  12.297   2.797 -0.0997  0.1595  0.2305
14119W        W30193  10.464  12.010  11.517 -0.0343  0.3202  0.0760
14120W        W30194  16.218   2.976  15.853 -0.3227 -0.3805  0.0139
14121W        W30195   5.101   6.363   1.967 -0.0428 -0.0223 -0.0314
14122W        W30196  14.510   7.809  12.574  0.0378 -0.0529  0.0413
14123W        W30197   5.748  14.050  13.020 -0.1745  0.1700 -0.0877
14124W        W30198  11.176   1.388   4.435 -0.1681 -0.0639 -0.3739
14125W        W30199   2.481  11.923   0.645  0.1737  0.0620  0.0969
14126W        W30200  17.054  14.930  10.381 -0.2793 -0.0701 -0.0840
14127W        W30201   2.663   1.613   1.144  0.1865  0.0704 -0.0974
14128W        W30202   1.920  11.885   3.252  0.0599  0.1032 -0.0586
14129W        W30203   2.047  10.590   5.846 -0.1157  0.1182  0.0918
14130W        W30204   6.492   1.113  12.758 -0.0569 -0.1294 -0.0852
14131W        W30205   6.346   8.334   2.874  0.3633  0.1406  0.0308
14132W        W30206  13.535   1.935  13.714  0.1989  0.1621  0.1211
14133W        W30207   0.626  13.050  14.987 -0.0502  0.0932  0.1724
14134W        W30208   7.500   8.716   5.105 -0.3145  0.2049  0.0722
14135W        W30209  14.266   7.265  14.622  0.1377 -0.2018 -0.1586
14136W        W30210  10.111  11.408   3.462 -0.1247  0.1914  0.3675
14137W        W30211   4.353   3.629  15.092 -0.0316  0.0640  0.1513
14138W        W30212  14.593  17.242   1.257  0.0311 -0.2059 -0.0707
14139W        W30213   1.878  14.182   9.978  0.1826  0.0963  0.0092
14140W        W30214   3.562  11.948  13.531  0.0385 -0.0699  0.2079
14141W        W30215  17.372   5.725  16.455 -0.2516  0.1088 -0.3931
14142W        W30216  17.905  13.046   5.194  0.1094 -0.0472 -0.1910
14143W        W30217  13.584   1.760   1.440 -0.0809 -0.0943 -0.0278
14144W        W30218  14.995   3.836  12.166  0.1536  0.1049 -0.1242
14145W        W30219  16.318   9.854  12.763 -0.0656 -0.0465  0.0574
14146W        W30220   8.912   5.880   3.902 -0.0078  0.0169  0.0365
14147W        W30221   0.200  16.030  10.072  0.0978 -0.1624 -0.0562
14148W        W30222   2.639   8.052   0.687 -0.4055 -0.0861  0.0595
14149W        W30223  11.971   3.354  12.186 -0.0356 -0.1221  0.1234
14150W        W30224  17.257   1.834  16.273  0.0075  0.0748 -0.1219
14151W        W30225   4.113  17.275  14.875 -0.0071  0.0942  0.1666
14152W        W30226   3.984  17.141  15.673 -0.0278 -0.0859 -0.0790
14153W        W30227   3.193  10.281  13.236 -0.0053 -0.0439 -0.0293
14154W        W30228  12.026  15.167   1.563 -0.2654 -0.2351  0.0800
14155W        W30229   6.249  16.702   5.866  0.0258 -0.4981 -0.2816
14156W        W30230  10.619  10.795  15.117  0.1201  0.3803  0.1499
14157W        W30231  15.409  14.772   3.998 -0.3808 -0.3204 -0.1841
14158W        W30232  15.529   2.702  15.344 -0.2081  0.0970  0.1299
14159W        W30233  15.564  10.116  11.089  0.1889  0.0420  0.0351
14160W        W30234   3.667   6.678  11.940 -0.2560  0.0208 -0.2595
14161W        W30235  12.812  10.454   5.350 -0.0898  0.3535 -0.1276
14162W        W30236  17.905  16.272   3.012 -0.0831 -0.0863  0.0231
14163W        W30237  13.140   6.186  11.788 -0.0681 -0.2719  0.1855
14164W        W30238  10.093  17.452  12.132 -0.2672  0.1917  0.2925
14165W        W30239   4.256   8.663   0.180 -0.0860 -0.1632 -0.3576
14166W        W30240   9.921  12.827  15.473  0.0547  0.0967 -0.2883
14167W        W30241  10.818  17.170   5.114 -0.0630  0.1945  0.0700
14168W        W30242  17.300   6.412  12.214 -0.0973 -0.1655  0.1844
14169W        W30243   6.565   7.472   2.610 -0.2897 -0.0649  0.1265
14170W        W30244   2.463   6.977   3.197 -0.1695 -0.0098  0.0848
14171W        W30245  15.984   9.081  11.107 -0.1753  0.1320  0.0598
14172W        W30246   9.293  11.351   2.557  0.0842 -0.0205  0.2522
14173W        W30247  17.321  12.759  13.013 -0.2488  0.0281 -0.0309
14174W        W30248  12.823   0.767   3.888 -0.0106 -0.0291 -0.0346
14175W        W30249  12.477   0.103   4.311  0.2778  0.3257 -0.1777
14176W        W30250  16.357  17.909  14.434  0.1201 -0.2972 -0.0254
14177W        W30251   7.150  11.151  10.729  0.0256 -0.4095  0.0348
14178W        W30252   1.984  17.379   2.038  0.0027  0.0815  0.0979
14179W        W30253   8.801   5.662  12.315 -0.0871  0.1338  0.1500
14180W        W30254   0.221   1.126  12.313 -0.4070 -0.0401 -0.2172
14181W        W30255  17.773   3.863  12.380 -0.0657 -0.0995  0.0487
14182W        W30256   6.769   7.722  15.313  0.0468 -0.0195  0.1720
14183W        W30257   2.730   9.601   5.273  0.0338  0.0905 -0.2017
14184W        W30258   0.838  10.874   1.467  0.0143 -0.0380 -0.1706
14185W        W30259  13.478   3.398   1.687 -0.2981  0.1400  0.0804
14186W        W30260   8.262   0.260  16.001  0.1385 -0.2938  0.2921
14187W        W30261  14.151   0.908   6.019  0.2832 -0.0346  0.0525
14188W        W30262   8.335   5.172   3.088  0.0601 -0.0751 -0.0376
14189W        W30263  12.186  12.611  13.928 -0.1693  0.0587  0.2346
14190W        W30264  13.755   3.817   1.898 -0.3729  0.0139 -0.3895
14191W        W30265  10.295   8.607  14.474  0.0061  0.2074  0.1503
14192W        W30266   3.983   2.033   2.821  0.0529 -0.1802  0.0772
14193W        W30267   2.723  16.777   3.939  0.0191  0.0733  0.0529
14194W        W30268  17.166  10.728   0.360  0.0913 -0.2793 -0.2127
14195W        W30269   0.651   5.927   3.438  0.0461 -0.1806 -0.2489
14196W        W30270   1.483   2.417  14.885 -0.0740 -0.3924 -0.5406
14197W        W30271   0.911   3.756   2.542 -0.2289 -0.1683  0.0124
14198W        W30272  15.558   2.222  15.066  0.0722 -0.2513 -0.1606
14199W        W30273   0.660   9.541  12.955 -0.0958  0.0301  0.0321
14200W        W30274  11.929   4.649  13.326 -0.3289  0.0080 -0.0128
14201W        W30275  12.353   4.643  12.307  0.0477 -0.0750 -0.1217
14202W        W30276  11.867  15.098  16.341  0.3342  0.1687  0.3171
14203W        W30277  13.364   2.055   4.087 -0.2502 -0.3924  0.1004
14204W        W30278  15.195  14.888  16.134 -0.1877 -0.2069  0.1670
14205W        W30279   9.282   0.214  14.361  0.0687  0.0604 -0.1410
14206W        W30280  17.968  13.661  11.289  0.1110  0.2754  0.1367
14207W        W30281   5.873   4.370   1.282  0.2878  0.2033 -0.1911
14208W        W30282   6.772  17.119   4.165  0.1388 -0.1676  0.3094
14209W        W30283   7.137  14.827  12.115  0.0932 -0.3226 -0.1704
14210W        W30284   0.055   2.198  12.065 -0.3358 -0.1575  0.2684
14211W        W30285   8.364  14.046   3.004  0.4407  0.1117 -0.4513
14212W        W30286   6.138  13.320  12.117  0.0490  0.0678  0.0927
14213W        W30287  10.953   1.743  14.118 -0.1028  0.0396  0.4795
14214W        W30288  11.414  10.453  10.872 -0.4481  0.3576  0.1005
14215W        W30289   9.474  10.043   4.252  0.2201 -0.2088 -0.3416
14216W        W30290  13.126  15.700   1.584  0.2395 -0.0103  0.0557
14217W        W30291   8.372   4.306  12.824  0.3383  0.0636 -0.2699
14218W        W30292  16.229   8.511   4.861 -0.0293  0.1534  0.0283
14219W        W30293   1.243  18.045  11.390  0.2300 -0.0684  0.0077
14220W        W30294  15.383   5.449  15.766 -0.1946 -0.1165  0.2866
14221W        W30295   6.701   0.266   5.607 -0.1739  0.1187 -0.1730
14222W        W30296   6.828  13.519  13.414 -0.4411 -0.0451  0.1081
14223W        W30297   1.770   9.223  15.442 -0.0123  0.1769  0.0478
14224W        W30298  15.440   7.307   0.235 -0.0624  0.0229  0.0109
14225W        W30299   4.390   0.180   0.938  0.1459  0.0755  0.0169
14226W        W30300   1.017  13.018   3.731 -0.0313  0.3289  0.0544
14227W        W30301   9.080   0.553  11.938  0.2194  0.4157  0.0290
14228W        W30302   9.348   2.323  12.039  0.3011 -0.1169  0.1095
14229W        W30303  10.394   0.575   4.333  0.2148  0.0243  0.2461
14230W        W30304   4.278  16.802  11.622 -0.0688  0.0734 -0.2006
14231W        W30305   5.251   5.123   0.643  0.0918  0.1868 -0.2014
14232W        W30306   0.261   1.526   2.487 -0.0512 -0.0546 -0.1111
14233W        W30307  17.676  11.514   3.260  0.0855  0.1710 -0.1584
14234W        W30308  17.130  17.216   1.682  0.1334 -0.0360 -0.2289
14235W        W30309   7.989  12.925  11.693 -0.2467 -0.1003  0.2693
14236W        W30310   8.744   9.344  11.581  0.0395 -0.0284  0.4091
14237W        W30311   0.670  17.881   1.194 -0.0680 -0.0233  0.0831
14238W        W30312  18.246   1.338   4.357 -0.0220  0.2728 -0.0403
14239W        W30313   4.395   5.291  16.093  0.1941 -0.0433 -0.0792
14240W        W30314   2.765  14.151  14.042 -0.0799  0.1116  0.1326
14241W        W30315  13.678   5.378   0.583  0.5149 -0.0234 -0.0608
14242W        W30316   7.021   3.581  15.611 -0.0003 -0.0499  0.2695
14243W        W30317   4.645   3.129  15.040 -0.3137 -0.4159 -0.0201
14244W        W30318  13.838   9.852   5.788  0.1243 -0.4892  0.1736
14245W        W30319  17.421   1.008  13.112 -0.1270  0.2214 -0.0308
14246W        W30320   7.369  16.490   3.737 -0.2042  0.1915 -0.0429
14247W        W30321  12.232   8.338  15.891  0.0267 -0.1008 -0.0368
14248W        W30322  11.225   9.550   5.438  0.2812 -0.0821  0.2465
14249W        W30323  10.351   0.056   5.161  0.1746 -0.0963 -0.1439
14250W        W30324   3.083   1.547   5.066  0.1904  0.2330  0.2339
14251W        W30325   7.681  10.628   3.452  0.1299 -0.0025 -0.2005
14252W        W30326  16.504  13.407   3.098 -0.0865  0.1260 -0.4745
14253W        W30327   8.750   4.859  13.419 -0.0063 -0.0120  0.0071
14254W        W30328   9.293   7.733   0.597  0.0445 -0.0187  0.0563
14255W        W30329   4.493   7.938  12.701  0.0517 -0.0281  0.4929
14256W        W30330  14.754   1.965  12.852  0.1081 -0.1877 -0.1298
14257W        W30331   2.722   8.446   1.054 -0.1252 -0.0954  0.0825
14258W        W30332   0.163  16.176   4.249  0.0260 -0.0628 -0.0748
14259W        W30333   9.657   3.727   6.045  0.1120 -0.0317  0.0081
14260W        W30334   3.855  10.483   3.467  0.0933  0.0998  0.0090
14261W        W30335  13.869  17.993   1.842 -0.1377  0.0491  0.0977
14262W        W30336  15.938   7.139   0.283  0.2599  0.1105  0.3914
14263W        W30337  17.585  16.983  13.460 -0.1909 -0.0445  0.0133
14264W        W30338   3.917   4.862   4.230 -0.3052 -0.1828 -0.0106
14265W        W30339   9.138   9.065  14.139  0.2163 -0.1103  0.0464
14266W        W30340  12.762   7.184   4.699  0.0395  0.3026  0.0886
14267W        W30341  10.448   3.969   4.157  0.0714  0.0637  0.1325
14268W        W30342   8.827  13.432   0.895 -0.0887 -0.0553  0.0938
14269W        W30343   3.529   7.676  13.132  0.0085 -0.2025  0.3549
14270W        W30344   2.869  12.936  11.097  0.1471  0.2994 -0.3001
14271W        W30345   0.009  13.717  11.704 -0.1024 -0.0193  0.4057
14272W        W30346   6.942  17.021  12.076  0.2570  0.0555  0.2028
14273W        W30347   4.880  12.585   1.915  0.2639 -0.3281 -0.1057
14274W        W30348   3.102  17.135  13.894  0.0301 -0.2101 -0.0608
14275W        W30349   1.277  16.289  11.072 -0.2805  0.3696  0.2181
14276W        W30350   1.574   2.126   5.489 -0.2158 -0.0714  0.0556
14277W        W30351   8.319  12.552   1.852 -0.0879 -0.2818  0.1175
14278W        W30352  11.120  16.700   2.974  0.2838  0.3325 -0.1570
14279W        W30353   9.779   0.898   3.462  0.0631  0.0857 -0.0510
14280W        W30354   3.832  11.894  14.081 -0.1563 -0.0457 -0.0252
14281W        W30355  10.340   7.447   5.192 -0.0580  0.0985  0.3129
14282W        W30356   2.267   6.710  14.461  0.3032 -0.3189 -0.1785
14283W        W30357  10.503  13.727   5.699  0.0533 -0.0453 -0.3575
14284W        W30358   4.800  14.288   1.679 -0.5128 -0.2219  0.2672
14285W        W30359   5.601  11.070   3.607  0.2310 -0.1443  0.1894
14286W        W30360  10.785   5.883  16.430  0.0823  0.2895 -0.0438
14287W        W30361  15.848   2.243   2.652  0.0445 -0.0797  0.0463
14288W        W30362   8.250   0.180   1.348  0.0069 -0.1635 -0.1777
14289W        W30363  17.967   3.574  15.882 -0.0038  0.0738  0.1481
14290W        W30364  13.982   9.272  11.410  0.3240 -0.4548  0.2109
14291W        W30365  15.641  11.030  12.598 -0.1209  0.0281 -0.2234
14292W        W30366   8.365  11.159   0.325 -0.2434  0.0167 -0.0502
14293W        W30367   4.464  17.151  15.811 -0.2813 -0.2123  0.0511
14294W        W30368   2.637  14.211   1.785  0.0145 -0.1578  0.3249
14295W        W30369   6.195  12.478   2.355  0.1309 -0.1769 -0.1672
14296W        W30370  15.226   8.943   1.597 -0.0459  0.0247 -0.1147
14297W        W30371   1.388  10.886   1.664 -0.2088 -0.1461 -0.1093
14298W        W30372   5.641  13.173   1.847 -0.1162  0.0694 -0.1441
14299W        W30373  13.986  17.909   0.468  0.0230 -0.0746  0.1824
14300W        W30374  17.475  12.826  13.854  0.2122 -0.1606 -0.1461
14301W        W30375  11.342   0.700  12.401 -0.1241  0.0144  0.1322
14302W        W30376   6.601  13.909  13.197 -0.1639 -0.1148 -0.1253
14303W        W30377   6.342  11.732  16.051 -0.1590  0.1275 -0.0287
14304W        W30378   5.469  14.718   3.730 -0.3821  0.3472  0.0788
14305W        W30379   8.500   9.405   1.805  0.0039 -0.4015  0.3011
14306W        W30380  13.270   9.440   0.967 -0.1343 -0.1536 -0.0759
14307W        W30381  17.986   0.683  13.190  0.0600 -0.0841 -0.0793
14308W        W30382  16.484   7.281   5.272 -0.0432  0.2027  0.0129
14309W        W30383   1.646  16.517   0.029  0.1398  0.1953 -0.0671
14310W        W30384   8.769   0.986   4.555 -0.0306 -0.2332 -0.0253
14311W        W30385  13.114  17.418  13.019  0.2029  0.1004 -0.1092
14312W        W30386   4.323   6.763  11.392 -0.0437 -0.1158 -0.0247
14313W        W30387  10.475  11.881  13.214  0.3039 -0.1316  0.2232
14314W        W30388   1.090   7.505   4.119 -0.4070  0.1718 -0.1872
14315W        W30389  11.576   5.801  13.716  0.0213  0.2378 -0.1019
14316W        W30390  10.496   4.664  14.000 -0.1272  0.3819 -0.0930
14317W        W30391   1.788  16.038   0.114  0.1508 -0.2415  0.6036
14318W        W30392   9.218   7.289  13.529  0.2039 -0.0324  0.1570
14319W        W30393   9.566  14.834   1.858  0.0230 -0.3486  0.0626
14320W        W30394  13.921  15.862   1.308  0.2345  0.0666 -0.3089
14321W        W30395  10.953   2.003   3.297  0.1155  0.3094 -0.1111
14322W        W30396   1.859  12.678  12.033 -0.2326 -0.0252 -0.0569
14323W        W30397   9.490   1.364  11.234 -0.1003  0.0519  0.0752
14324W        W30398   6.026  12.522   0.874  0.0100  0.1653  0.0613
14325W        W30399   0.920  11.105  11.443 -0.1929 -0.0195 -0.0206
14326W        W30400   0.726   2.404  16.162 -0.0039  0.1268 -0.0293
14327W        W30401  10.508   1.798   0.707 -0.1933  0.2785 -0.1539
14328W        W30402  15.687  15.283   3.128 -0.2906  0.1572  0.3313
14329W        W30403   4.693  12.292  13.917 -0.1931  0.0808 -0.0471
14330W        W30404  15.538  17.296   2.842  0.0346  0.2910  0.1687
14331W        W30405   5.289   8.479  16.460  0.0822  0.2126  0.0331
14332W        W30406   1.810   6.881  11.534 -0.1047  0.4356  0.1872
14333W        W30407   4.049   1.713   4.010  0.0326  0.1253 -0.1457
14334W        W30408   0.102   5.206   2.748 -0.3882 -0.3038 -0.1508
14335W        W30409   5.126   3.167   4.560  0.2731  0.0642  0.0015
14336W        W30410   9.997   4.187   0.043 -0.0731 -0.0761  0.1161
14337W        W30411   0.641  11.579   9.832 -0.1385  0.2844  0.2367
14338W        W30412   1.784   2.534  14.182  0.0390  0.2042 -0.4251
14339W        W30413  11.957   6.090  12.820  0.2080  0.0560  0.1576
14340W        W30414   1.363   3.449   0.593 -0.2451 -0.0560 -0.0938
14341W        W30415   9.469   7.239  16.416  0.0439 -0.1979  0.0939
14342W        W30416   1.914   5.493   5.264  0.1329 -0.6339 -0.1059
14343W        W30417  14.384   3.250   6.287 -0.1945 -0.0376  0.3426
14344W        W30418   1.662   3.923  13.114  0.1583  0.5438  0.1740
14345W        W30419   4.719   0.724   1.845  0.0248  0.1125 -0.0468
14346W        W30420   4.999  15.374   3.106 -0.0576 -0.0174  0.0590
14347W        W30421   0.952  10.273  14.929 -0.3171  0.1309  0.1889
14348W        W30422   5.027   8.428  13.056 -0.1576 -0.1380 -0.0420
14349W        W30423  12.218   1.864   1.425  0.3869  0.0136 -0.1477
14350W        W30424   8.983   7.179   0.804 -0.2340  0.2624  0.0422
14351W        W30425  17.983  14.022  15.003 -0.0004 -0.1594 -0.2274
14352W        W30426   2.814  18.245   2.168 -0.1214 -0.2500  0.0620
14353W        W30427   8.660  10.680   4.280 -0.4548 -0.0846 -0.0616
14354W        W30428  12.765   8.171  11.990  0.3476  0.0568 -0.4429
14355W        W30429   4.641  11.210  15.514  0.2313 -0.0860  0.1708
14356W        W30430  10.253   0.812  15.875  0.0796 -0.1407 -0.0019
14357W        W30431   1.922  16.395  13.043 -0.0576  0.0855 -0.0462
14358W        W30432   3.137   2.474  11.256 -0.0645 -0.1898 -0.1230
14359W        W30433   2.769   3.942  14.514 -0.2148 -0.0090  0.1145
14360W        W30434   3.297   5.006  12.389 -0.0598  0.0715  0.2535
14361W        W30435   2.720  15.586   5.096 -0.1692 -0.0432  0.0357
14362W        W30436   8.392  15.710  12.157 -0.2157 -0.2803 -0.0481
14363W        W30437   6.657   4.868   1.660 -0.2442  0.0358  0.1352
14364W        W30438  14.394  15.765  14.491  0.1372 -0.2649 -0.2336
14365W        W30439  10.581   7.202  12.280  0.0132  0.0203 -0.2199
14366W        W30440   5.999   6.864   4.497  0.0285  0.3025 -0.1184
14367W        W30441   9.683   4.975   5.182 -0.2248  0.1120 -0.2227
14368W        W30442   7.073  15.554   0.662 -0.2403  0.1179  0.3178
14369W        W30443   1.398  16.955  12.597  0.2102 -0.0903 -0.0025
14370W        W30444   5.239  11.313   4.715  0.0519  0.0175 -0.2593
14371W        W30445  17.803   8.155  15.668  0.2234  0.1962 -0.1388
14372W        W30446  10.871  12.101   4.595 -0.1096 -0.0790  0.0568
14373W        W30447   0.258   2.271  12.988 -0.0080 -0.0954 -0.1509
14374W        W30448   9.366   3.360   2.879 -0.1520 -0.2165 -0.0844
14375W        W30449   5.932   2.154   1.498  0.0408  0.1297 -0.0871
14376W        W30450  15.951  17.348  15.739 -0.2422  0.0748  0.2245
14377W        W30451   8.264   4.065  13.237 -0.0223  0.0891 -0.1007
14378W        W30452   1.320  10.553  12.621 -0.1010  0.0363 -0.2871
14379W        W30453   6.049  10.880  13.701  0.1840  0.1308  0.0907
14380W        W30454  15.912   7.620  13.813  0.3429 -0.1398 -0.1661
14381W        W30455  17.258  13.909   1.275  0.2085  0.2245 -0.0381
14382W        W30456   7.983  15.292   0.313  0.3172 -0.0287  0.2537
14383W        W30457   4.488   6.167   3.057  0.1309  0.0440  0.3702
14384W        W30458   9.241   1.579   5.146 -0.2873 -0.1493  0.0980
14385W        W30459   1.446   2.963   4.159 -0.2411  0.1507 -0.0035
14386W        W30460   4.836  12.096   5.092 -0.1875 -0.1863 -0.0655
14387W        W30461  10.838   4.293  12.457 -0.1447 -0.2089  0.0521
14388W        W30462   3.252   8.149  12.941  0.1386  0.0697  0.0041
14389W        W30463  17.445  17.248   4.311 -0.0871  0.5034 -0.0040
14390W        W30464   6.091   8.812  11.976  0.0344 -0.1706  0.0149
14391W        W30465   4.651   9.726  12.533  0.2777 -0.1832  0.2989
14392W        W30466  16.048   6.448   1.771 -0.1478 -0.1128 -0.1547
14393W        W30467   0.179   3.614  15.189  0.0143  0.0736 -0.3906
14394W        W30468   8.866   4.932  14.284 -0.0911  0.1503 -0.1618
14395W        W30469  11.340   5.771   1.180  0.0588  0.1038 -0.1978
14396W        W30470   6.841  11.905   1.161  0.1663  0.0965  0.0433
14397W        W30471  14.226  15.748   3.469  0.0617 -0.2460 -0.0016
14398W        W30472  11.125  15.624  15.756 -0.2527  0.3670  0.2535
14399W        W30473  11.723  17.677  13.811 -0.1400 -0.0131 -0.1328
14400W        W30474  17.248   2.779  12.713 -0.1876  0.1313  0.0037
14401W        W30475  11.688  18.072  14.725 -0.3056  0.1111  0.1284
14402W        W30476   2.486  15.485  13.161  0.1618  0.0656  0.2167
14403W        W30477   0.800   9.573  15.982  0.1290 -0.2698 -0.2309
14404W        W30478  12.972  15.670  15.648 -0.0689  0.2172  0.1072
14405W        W30479  16.434  11.871   2.218  0.0966 -0.1056  0.0364
14406W        W30480  15.044  17.654   4.858 -0.0774  0.0117 -0.1876
14407W        W30481   3.070   6.713  12.816  0.2208 -0.1755 -0.2040
14408W        W30482  13.916  11.216  11.838 -0.1915 -0.0786  0.0540
14409W        W30483  14.111   5.568  15.109 -0.2070  0.3990 -0.2200
14410W        W30484  14.603  13.356  14.579  0.0329 -0.2171 -0.0233
14411W        W30485  10.675  10.477  15.541  0.2540 -0.0490 -0.3867
14412W        W30486   3.593  15.441   0.818  0.0397 -0.0598 -0.0958
14413W        W30487   8.542   0.361   1.717 -0.1265  0.1427 -0.1111
14414W        W30488  12.888   5.273  14.605  0.0697 -0.3888 -0.1155
14415W        W30489  14.444   0.914  13.955 -0.1717  0.2667  0.0407
14416W        W30490   8.463   6.114  12.482 -0.5025 -0.1197  0.0709
14417W        W30491  15.622   0.614   2.213  0.0619  0.0759 -0.2470
14418W        W30492  14.775   8.597   5.203  0.2644  0.4269 -0.2246
14419W        W30493  11.884  15.124  15.103  0.0859  0.0181 -0.2479
14420W        W30494   6.169   5.779   2.280  0.2765 -0.2188  0.2062
14421W        W30495   3.092   7.102  14.672 -0.2122 -0.3488 -0.3347
14422W        W30496  16.927  10.253   3.742 -0.2765 -0.1758  0.1357
14423W        W30497   8.062   0.626  15.023  0.2003 -0.3836  0.3162
14424W        W30498   0.426   8.208  12.268  0.2466  0.1211  0.0282
14425W        W30499  12.424  17.162   4.174  0.0389 -0.0270  0.1064
14426W        W30500  12.062  15.549   3.902 -0.1984 -0.0171 -0.0801
14427W        W30501   0.919   2.015  13.609 -0.0745 -0.1942  0.3492
14428W        W30502   0.087  16.127  11.402  0.1270 -0.2397  0.2239
14429W        W30503  18.054  12.538  15.288  0.1021 -0.0630 -0.3546
14430W        W30504   8.681  12.721  15.626  0.0955  0.3049  0.2180
14431W        W30505   3.456   5.840   5.124 -0.1020  0.0333 -0.0255
14432W        W30506   2.351   8.625  15.999  0.0338  0.0211 -0.0185
14433W        W30507   8.942   5.800  13.296  0.1098  0.0889  0.0403
14434W        W30508  17.871  17.334  13.180  0.0946 -0.0346  0.2792
14435W        W30509   9.236   0.942  11.061  0.2231 -0.2216 -0.3551
14436W        W30510   4.849   3.937   5.148  0.1801  0.0970 -0.1272
14437W        W30511  17.148  15.984   3.748  0.1392 -0.0110  0.3284
14438W        W30512   1.076   4.192   2.624 -0.2171  0.2814  0.1673
14439W        W30513   4.510  11.352  15.982 -0.2227  0.2728 -0.0702
14440W        W30514   1.709  12.432   1.505  0.1699  0.1133 -0.1325
14441W        W30515   2.908  14.634  14.174  0.0491 -0.1282 -0.4836
14442W        W30516   4.017  14.967   0.096 -0.1775 -0.0885  0.1897
14443W        W30517  15.985   8.191   1.453 -0.1352  0.0271  0.1750
14444W        W30518   0.219  11.853  11.505  0.0758 -0.2060 -0.0151
14445W        W30519  12.440   0.624   4.252  0.1177  0.5213 -0.0145
14446W        W30520   8.149   7.346  14.794 -0.1601  0.1645 -0.0989
14447W        W30521  13.922  16.545  11.841 -0.2254 -0.0230  0.2055
14448W        W30522   0.317  11.888  16.272  0.0980  0.2342 -0.3386
14449W        W30523   5.071  17.840   3.548  0.0674  0.2650 -0.1554
14450W        W30524  14.706   7.922  15.017 -0.2481  0.1384  0.0053
14451W        W30525   2.468   2.836  13.067  0.1180  0.0474 -0.3571
14452W        W30526  16.732   1.211  15.797 -0.1678  0.2349  0.0057
14453W        W30527   3.714   7.056   0.510  0.3593 -0.0227 -0.1948
14454W        W30528   0.873   9.622   3.864 -0.0092 -0.0571 -0.0294
14455W        W30529  14.362  14.153   3.611  0.0053  0.0226 -0.2386
14456W        W30530   4.643  14.391  14.812  0.3604  0.0057  0.0211
14457W        W30531   6.158  17.651  11.821  0.0471 -0.3084  0.0367
14458W        W30532   0.972   4.955   1.066  0.0923 -0.1820 -0.1807
14459W        W30533   5.805   5.475   3.532  0.2422  0.0154  0.6020
14460W        W30534   6.703  14.787   2.812 -0.0029  0.3199 -0.2003
14461W        W30535   7.566  10.425  16.014  0.0340  0.0947  0.2366
14462W        W30536   0.729   1.525   3.238 -0.1092  0.2309  0.1351
14463W        W30537  11.231  14.126   3.743  0.1860  0.1727  0.2209
14464W        W30538   3.798   4.578  15.875 -0.0286 -0.1870  0.1364
14465W        W30539  16.973   1.077   0.969 -0.2006 -0.2501  0.1708
14466W        W30540   1.710  12.109   0.042 -0.0942 -0.0169 -0.1573
14467W        W30541  12.189  12.521  14.429  0.2988 -0.0534  0.0916
14468W        W30542  10.281  16.068   0.857 -0.3433  0.1277  0.0532
14469W        W30543  14.740   6.951   1.302  0.1548 -0.2195 -0.2097
14470W        W30544   4.372   7.732  13.152  0.0815  0.3511 -0.0083
14471W        W30545   2.985   8.807  12.284 -0.1635 -0.1453 -0.2034
14472W        W30546   3.149  17.929  14.852  0.1018 -0.1863 -0.1245
14473W        W30547   6.035  17.673   1.127 -0.1968  0.4208 -0.0148
14474W        W30548   3.781   0.662   2.785 -0.1948 -0.2579  0.2273
14475W        W30549  16.934  13.966  13.144  0.2683  0.2119  0.0534
14476W        W30550  14.609  11.153  13.788  0.3644 -0.3333  0.1400
14477W        W30551  16.943   3.494  15.768 -0.2284  0.1346  0.4033
14478W        W30552  15.440   2.292  13.433  0.1212  0.0582 -0.0331
14479W        W30553   9.125   1.012  16.010  0.1045  0.1299 -0.0776
14480W        W30554  12.202   0.704   4.850  0.2437  0.4273  0.4095
14481W        W30555  12.662  18.030  14.747 -0.1170  0.2069  0.3179
14482W        W30556   8.432  13.101  14.862  0.0252  0.0954  0.2715
14483W        W30557   4.174  10.402  11.366 -0.1825 -0.1117  0.2647
14484W        W30558   4.405  11.635   0.396  0.0253  0.2677 -0.0014
14485W        W30559  16.927  14.261   1.749 -0.2103  0.0925  0.0778
14486W        W30560   8.583  13.231   4.934  0.2047 -0.2980 -0.2398
14487W        W30561  15.733  10.868  10.575 -0.0529  0.2670  0.0772
14488W        W30562   4.982   5.486   3.647  0.0962  0.3274  0.2540
14489W        W30563   3.589   4.141  13.361 -0.2477 -0.0416 -0.2536
14490W        W30564   3.877   9.115   0.884  0.3826  0.5227  0.2290
14491W        W30565  10.846  11.233  12.596  0.1261 -0.2696 -0.1762
14492W        W30566   8.441  12.534   2.879  0.0098 -0.1414  0.0481
14493W        W30567   9.499  16.997  16.420  0.1282 -0.1939 -0.0594
14494W        W30568   9.022  14.565  13.503 -0.0434  0.2092  0.1712
14495W        W30569  10.179  16.957  15.233 -0.0396 -0.4118  0.1001
14496W        W30570   0.606   6.377   2.728 -0.3340  0.0196  0.0486
14497W        W30571  10.342   4.175   5.096  0.0000  0.0704  0.0502
14498W        W30572   9.188  12.457  11.455 -0.0627 -0.1863 -0.3713
14499W        W30573   7.388   6.455   5.465  0.0193  0.1702 -0.0947
14500W        W30574  10.907   6.985  14.903 -0.2009  0.2150 -0.1305
14501W        W30575   0.551   8.317  14.878  0.0486  0.0546  0.1359
14502W        W30576   3.422   1.338  14.209  0.0274  0.0246  0.0170
14503W        W30577   7.252   3.903  14.113 -0.1183  0.1310  0.3049
14504W        W30578   7.371   9.721  15.290  0.2285  0.0705 -0.2463
14505W        W30579   9.316  13.941  13.197  0.1290 -0.0395  0.1051
14506W        W30580  15.646  14.175   2.319  0.0455  0.1453 -0.0746
14507W        W30581   5.137   4.396   1.023 -0.2292 -0.2463  0.0702
14508W        W30582  11.131  15.480   1.653  0.0399  0.4062 -0.0621
14509W        W30583   5.241  10.102  11.856 -0.2454 -0.1781 -0.0359
14510W        W30584  15.239   4.751   2.786  0.2367 -0.1346  0.0773
14511W        W30585  10.907   0.600   6.029  0.2524 -0.0185 -0.1693
14512W        W30586   5.538   7.811  12.913 -0.3289 -0.0565 -0.1542
14513W        W30587  11.463   5.866  13.212  0.1453  0.3232 -0.0603
14514W        W30588   8.882  10.712  15.766 -0.1092  0.4591  0.1880
14515W        W30589   1.026   5.342   4.947  0.0426 -0.0236  0.1195
14516W        W30590  12.711   4.916  12.773  0.1281 -0.0007  0.0741
14517W        W30591  13.178  17.957  16.392  0.2135 -0.0814  0.2003
14518W        W30592   1.016  15.279   3.827  0.1555 -0.0063 -0.2375
14519W        W30593  14.766   6.040  13.608  0.1719  0.1350  0.2209
14520W        W30594  11.088  16.157   0.647 -0.0414  0.2328 -0.1863
14521W        W30595   8.911  16.642   1.901 -0.2181 -0.1672  0.0029
14522W        W30596  15.921   2.642  13.261  0.3591 -0.0080 -0.3228
14523W        W30597  16.068   1.158  14.893 -0.2162 -0.1169  0.2356
14524W        W30598   1.498   7.633   2.137 -0.0396  0.2257 -0.4821
14525W        W30599   6.156   2.177   1.934  0.1964 -0.1679 -0.0965
14526W        W30600   8.579  11.467  16.044  0.0198  0.3967  0.1454
14527W        W30601  11.604  15.458  15.484 -0.0323 -0.2186 -0.1185
14528W        W30602   8.983  18.237   1.881 -0.0632  0.2990 -0.2613
14529W        W30603   6.081   3.661   2.978 -0.1332 -0.0287 -0.1261
14530W        W30604   2.211  11.453   2.901  0.0412 -0.0845 -0.0853
14531W        W30605  16.514   0.741   0.167  0.0481  0.0427  0.0604
14532W        W30606  12.922   9.042   0.723 -0.4789  0.0264 -0.3227
14533W        W30607   1.636  12.555   3.247  0.5667 -0.1782 -0.4126
14534W        W30608  10.023   9.996  16.137 -0.0344  0.0874 -0.0590
14535W        W30609   1.364  14.003  11.261 -0.0729 -0.1381 -0.1233
14536W        W30610   2.200   1.194   4.746  0.1133  0.1918 -0.0583
14537W        W30611  17.978  11.390  14.997  0.1441  0.3459 -0.4013
14538W        W30612   4.244  13.903  16.110 -0.0709  0.4131 -0.3041
14539W        W30613   5.426  13.886   4.137 -0.0960  0.2410 -0.0076
14540W        W30614  14.926   7.027  14.862  0.1715 -0.2109 -0.0505
14541W        W30615   4.170  10.498  16.459 -0.0887 -0.0930  0.0500
14542W        W30616   0.732   6.490   0.534  0.1891  0.0242 -0.3223
14543W        W30617  16.098  10.559  16.315 -0.0319 -0.3892  0.0697
14544W        W30618   6.897   6.633   1.449  0.2625  0.0189  0.1767
14545W        W30619   1.670  13.532  13.077 -0.1082 -0.2797  0.0656
14546W        W30620  14.658  11.642   1.940 -0.1262 -0.1442  0.2498
14547W        W30621  12.401  16.454  14.051 -0.2863  0.0275 -0.1196
14548W        W30622  17.065   8.425   0.345  0.1043 -0.3426 -0.0552
14549W        W30623   6.126   2.025   3.600 -0.1363  0.0882 -0.0640
14550W        W30624   4.313  16.151  15.924  0.0623 -0.0688  0.2213
14551W        W30625   4.137  17.118  12.875  0.1190 -0.1339  0.2220
14552W        W30626   3.187   2.017   4.902 -0.3635 -0.2715  0.0397
14553W        W30627   2.184  10.817  12.552  0.0260  0.1039  0.0359
14554W        W30628   6.833   4.038  14.385  0.2057 -0.0578  0.5221
14555W        W30629  12.391   5.313  13.069  0.2118 -0.5408  0.0772
14556W        W30630  12.757   8.704   2.346 -0.0743 -0.0363  0.2366
14557W        W30631  11.794  13.259   3.198  0.0316 -0.1648 -0.3197
14558W        W30632   5.056  15.704   0.533 -0.0033  0.2911 -0.2693
14559W        W30633   7.391   6.770   0.507 -0.1142  0.0006 -0.1049
14560W        W30634   2.473   0.759  11.806  0.0513  0.0055 -0.2315
14561W        W30635   9.532  17.937   5.150 -0.0502 -0.4070  0.1826
14562W        W30636   1.888   3.031  13.098  0.0910  0.0326 -0.0545
14563W        W30637   4.961   8.544  15.413 -0.1527 -0.1241  0.0920
14564W        W30638  17.144  11.023  11.477 -0.2811 -0.2301 -0.5448
14565W        W30639   2.671  12.318  12.731  0.0335  0.0365  0.1181
14566W        W30640   5.876   7.332   0.507 -0.2529  0.0552 -0.2609
14567W        W30641   5.584   3.376   4.972  0.0356 -0.0516 -0.2533
14568W        W30642   0.052  17.443  11.823 -0.4774 -0.1244  0.1224
14569W        W30643   5.247   1.146   1.806  0.1263  0.0033 -0.2793
14570W        W30644   9.111   9.068   4.875 -0.1165  0.1354  0.0496
14571W        W30645   7.133   7.415   3.808 -0.5644 -0.1607 -0.2410
14572W        W30646   7.921   7.257   5.679  0.1121  0.2747  0.1567
14573W        W30647   4.309   6.906   1.961  0.3331 -0.2282  0.4495
14574W        W30648   5.360  17.123  15.738  0.0044  0.1166  0.0028
14575W        W30649  10.452  17.067  14.755 -0.0264 -0.0993  0.0526
14576W        W30650   3.453   2.715   4.934 -0.2805  0.1027  0.0612
14577W        W30651  15.173   9.465   2.846  0.1831  0.1550  0.0740
14578W        W30652   1.058   1.876   0.148  0.2927  0.2575  0.4525
14579W        W30653   1.803   6.846   0.831  0.4538  0.1761  0.1522
14580W        W30654  17.570  14.631   5.513  0.3790  0.1031 -0.2254
14581W        W30655  15.800   1.250   0.540 -0.0057 -0.2138 -0.0154
14582W        W30656   8.919   3.374  14.340 -0.3189  0.0680  0.2043
14583W        W30657   9.892   7.325   2.358 -0.3394 -0.0418  0.2353
14584W        W30658  10.779   1.037   3.186 -0.1250 -0.1217 -0.0310
14585W        W30659   6.876   6.186  14.316  0.0700 -0.1159  0.0429
14586W        W30660   9.374   5.033  12.958 -0.0036 -0.1231 -0.2517
14587W        W30661   6.726   9.201   2.362 -0.0876  0.1275  0.1417
14588W        W30662  10.496   8.533  15.716 -0.1960 -0.0008 -0.1336
14589W        W30663   3.413  15.411   3.004 -0.2522  0.2981  0.3671
14590W        W30664  14.345  15.671  15.052 -0.0437 -0.0806 -0.0262
14591W        W30665  16.406   7.647   0.074 -0.1528  0.1840  0.0036
14592W        W30666   6.151  12.620  15.123  0.0400  0.2461 -0.1371
14593W        W30667   5.675   2.182   5.278  0.0075 -0.2248 -0.1323
14594W        W30668  10.293  17.731   2.306 -0.3061 -0.1362 -0.0009
14595W        W30669  13.606   0.752   2.763  0.4035  0.0694  0.5209
14596W        W30670  16.945   3.189   4.893 -0.4422  0.2762  0.2865
14597W        W30671  14.037  15.295   1.420 -0.0913 -0.2677 -0.1332
14598W        W30672   6.403  12.333  13.349  0.0159  0.2901 -0.0327
14599W        W30673   6.992   4.517   0.662 -0.0647  0.0921 -0.1845
14600W        W30674   3.465   1.951  15.651  0.2549  0.1652 -0.3639
14601W        W30675   5.762  12.342  15.870  0.0894 -0.0581  0.0102
14602W        W30676  18.220   8.038   4.142  0.1712  0.0608 -0.1950
14603W        W30677  11.121   4.940  13.573 -0.2664  0.0019  0.0801
14604W        W30678   1.577  16.146   4.711  0.0429 -0.2712 -0.1814
14605W        W30679   8.817   8.638   4.847 -0.0324 -0.1271  0.0210
14606W        W30680   1.576  11.287  15.519 -0.3528  0.0241  0.0711
14607W        W30681   9.094   8.515  15.318  0.0108 -0.0273  0.0751
14608W        W30682  14.476   9.094   4.518  0.2275 -0.0993  0.0665
14609W        W30683   8.272  18.139  14.713  0.0156 -0.0901 -0.0616
14610W        W30684   8.561  12.590   4.510 -0.1736 -0.4520  0.0632
14611W        W30685  15.267  15.981   5.455  0.1308 -0.1341 -0.2318
14612W        W30686   5.563   3.361   1.444 -0.0095 -0.4282  0.0741
14613W        W30687   1.325   1.735  11.308  0.4985 -0.0485 -0.3958
14614W        W30688  15.326   2.864   3.345 -0.0241 -0.0467  0.2599
14615W        W30689   8.574   6.285   1.050  0.0191 -0.0806  0.1566
14616W        W30690   0.129   0.319  16.269  0.0474  0.0431  0.4525
14617W        W30691   4.016   8.352  16.204  0.2257 -0.0223 -0.0342
14618W        W30692  10.922   3.773  14.113 -0.3093 -0.1790  0.1060
14619W        W30693  17.512   3.426   4.980 -0.1311 -0.4222  0.0440
14620W        W30694   1.711  16.663   6.141 -0.1492  0.0618 -0.1293
14621W        W30695  10.403   8.707   4.515  0.1174 -0.0649 -0.0416
14622W        W30696   0.807   5.543   1.560 -0.0235  0.0358  0.3647
14623W        W30697   1.771   0.488   4.472  0.0934 -0.1701 -0.0990
14624W        W30698  10.405  17.728   5.137 -0.0364 -0.3253 -0.1404
14625W        W30699  13.435  15.811  15.990  0.0708  0.0355 -0.1172
14626W        W30700   8.742   6.711  15.919 -0.0324 -0.0913 -0.1047
14627W        W30701   6.795  14.811  12.883  0.1789  0.1371 -0.3829
14628W        W30702  16.937   6.204   0.516 -0.1011 -0.1178 -0.0513
14629W        W30703  10.465   2.827  10.792 -0.2083  0.1050  0.0394
14630W        W30704   4.647  15.150   2.560  0.0830 -0.1945 -0.2159
14631W        W30705   8.732  17.734   1.269 -0.2353  0.4596 -0.2806
14632W        W30706   4.056  14.975   0.671 -0.0758  0.1199  0.3105
14633W        W30707   0.179   6.907  13.075  0.1709 -0.2744 -0.2537
14634W        W30708   3.293   7.673   5.776  0.2014  0.4305  0.0714
14635W        W30709   5.395  15.262   2.035 -0.5125 -0.1696 -0.0287
14636W        W30710   7.676  17.618   5.759  0.0558 -0.0542  0.1062
14637W        W30711  10.720   3.423   0.209 -0.3421  0.2938  0.0820
14638W        W30712   7.546   2.500   1.418 -0.0629 -0.1561 -0.0029
14639W        W30713  13.110   9.233   5.349 -0.1360 -0.1532 -0.2478
14640W        W30714   1.530  14.479  15.921  0.1925  0.1109  0.0281
14641W        W30715  17.019   4.251  15.269 -0.0947 -0.0940 -0.0165
14642W        W30716  17.244  14.431   4.531  0.0267  0.1535 -0.0765
14643W        W30717   4.224  15.027   5.096 -0.0539  0.1897 -0.1864
14644W        W30718   7.708  14.956  12.098  0.3121  0.0948 -0.0564
14645W        W30719  15.476   6.042   4.793 -0.2660  0.1427 -0.1509
14646W        W30720   9.028   1.937  14.813  0.1660 -0.0856 -0.1838
14647W        W30721  11.559  17.117   5.231  0.1842 -0.1003 -0.1609
14648W        W30722   5.817   8.884  15.533  0.1664  0.0069 -0.0092
14649W        W30723   6.532   1.949  15.030 -0.0046 -0.1540  0.1482
14650W        W30724   6.673   9.015  12.299 -0.1289 -0.0245  0.2062
14651W        W30725   0.200   8.579  12.812 -0.0016  0.3103  0.0854
14652W        W30726   2.688   1.855  13.094  0.0053 -0.0309 -0.1210
14653W        W30727   7.578  13.754  12.610  0.0801  0.0050  0.1158
14654W        W30728  11.437   8.017  14.692  0.1536  0.0521  0.1469
14655W        W30729   4.178   7.506   5.085 -0.0776 -0.2685  0.1471
14656W        W30730   8.637   0.354   1.124 -0.1064 -0.2807  0.0102
14657W        W30731  14.579   3.956   3.303 -0.1388  0.1807 -0.2021
14658W        W30732   6.307  14.555   0.148 -0.0023  0.0092  0.2792
14659W        W30733  10.314   5.497   2.185 -0.0725  0.0015  0.3018
14660W        W30734  16.473   4.736   5.537  0.1442 -0.0019  0.0365
14661W        W30735  12.040   0.730   2.061  0.0498 -0.0658 -0.1720
14662W        W30736   0.579  11.483   0.090 -0.0493  0.1271  0.2065
14663W        W30737  14.260  15.693  13.068 -0.0969 -0.1216  0.1680
14664W        W30738   8.783  10.370  14.112 -0.1101 -0.2402 -0.0741
14665W        W30739   6.680  13.807  14.716  0.1462 -0.5033 -0.2759
14666W        W30740   3.111   9.178  11.847  0.0785 -0.1163  0.0587
14667W        W30741   1.988   7.892  14.864  0.2510  0.2834  0.0907
14668W        W30742  13.986   6.838   2.287  0.2064 -0.0602  0.0186
14669W        W30743   4.795   1.599   2.895 -0.0655  0.0262 -0.1740
14670W        W30744   2.763  10.281  11.270  0.0614  0.2343  0.1119
14671W        W30745   1.003  13.019  14.002  0.0018  0.5495 -0.0069
14672W        W30746   5.275   3.321  14.899  0.1490 -0.1326 -0.3726
14673W        W30747   2.885  10.552  15.695  0.0967 -0.2406 -0.1383
14674W        W30748  10.011  10.946   5.651 -0.0365 -0.4025 -0.2079
14675W        W30749   3.444  16.917   2.521 -0.2305  0.0663  0.0314
14676W        W30750   9.492  14.275   3.868 -0.0948  0.2115  0.2865
14677W        W30751   6.986  10.941  14.860 -0.0204 -0.0352  0.1118
14678W        W30752   5.172   5.081  14.103 -0.2227 -0.2856  0.0668
14679W        W30753   2.993  15.088   3.900  0.0138 -0.0402  0.1522
14680W        W30754  10.525  17.736  14.249 -0.0246 -0.0799  0.4348
14681W        W30755  16.217   3.588   4.396 -0.0145 -0.1859  0.0417
14682W        W30756  16.158   2.819  12.797 -0.1477  0.3804 -0.1497
14683W        W30757  11.201  10.054   0.928  0.2133  0.1173  0.0088
14684W        W30758   4.003   6.303   3.796  0.0433  0.3822  0.2595
14685W        W30759  10.980   3.274   5.103  0.3221 -0.2727  0.1780
14686W        W30760   8.641  16.651  14.240 -0.0224 -0.1416 -0.2397
14687W        W30761  14.799   5.872   0.329  0.0741  0.3100 -0.0449
14688W        W30762   7.469   0.064  13.007  0.0991  0.0738 -0.2412
14689W        W30763   3.533  14.915   1.026 -0.3464 -0.0339 -0.1139
14690W        W30764  17.637   4.481  13.202 -0.1978  0.0776 -0.0210
14691W        W30765   7.529  17.097   2.365  0.0603  0.0307 -0.1150
14692W        W30766   6.411   4.185  15.234  0.4037 -0.0028 -0.2411
14693W        W30767   5.697   4.792   4.334  0.0301 -0.0925 -0.0105
14694W        W30768   2.354  12.758  13.952  0.0202  0.0727 -0.1223
14695W        W30769  10.318   0.116   4.638  0.0620 -0.2342 -0.2285
14696W        W30770  12.269  12.731   1.263 -0.2573  0.1777 -0.1046
14697W        W30771   2.423   1.335  14.017 -0.1772  0.0142 -0.0814
14698W        W30772  16.793   4.080   2.663  0.1337  0.1228 -0.1292
14699W        W30773   1.981   8.971  14.957 -0.3281  0.1157  0.0821
14700W        W30774  17.053   9.361  11.809  0.0866 -0.0489  0.0822
14701W        W30775  17.829   7.702  12.084 -0.1211 -0.1425 -0.1138
14702W        W30776   9.218   5.858  14.537 -0.1520 -0.0484  0.0913
14703W        W30777  16.954  12.094  15.587 -0.3041  0.2345  0.1555
14704W        W30778   8.087  16.789   4.643 -0.1346 -0.2742 -0.1133
14705W        W30779   6.705   0.063  13.065 -0.0546  0.2797  0.0047
14706W        W30780   2.316   6.374  15.464  0.2779 -0.1791 -0.2663
14707W        W30781  11.449   2.818   4.481  0.2142 -0.0120  0.1003
14708W        W30782  17.830   6.137   1.184 -0.2277  0.2676  0.0492
14709W        W30783   0.262   8.061   4.575  0.3409 -0.1920  0.0488
14710W        W30784   1.091  12.762  11.121 -0.1819 -0.2232  0.1550
14711W        W30785   7.996   3.680   4.743  0.2482  0.0493  0.0630
14712W        W30786   3.654  13.773  13.558  0.1200  0.2948  0.2048
14713W        W30787   1.743  13.715  15.854  0.2485 -0.2126  0.0046
14714W        W30788   5.545   6.551   2.068 -0.3595  0.0093 -0.2828
14715W        W30789   8.357   9.550  11.364  0.2588 -0.0121 -0.0043
14716W        W30790  13.669  13.767   3.400  0.3085  0.1865  0.0512
14717W        W30791   7.357  17.920   6.091  0.0604  0.0552  0.3758
14718W        W30792  15.383  13.704   0.199 -0.3366  0.1839  0.1634
14719W        W30793   7.670   5.436   1.713 -0.0524  0.2633  0.0963
14720W        W30794  15.359  16.459  15.810 -0.2560 -0.0750  0.2161
14721W        W30795  11.996  10.907   0.981 -0.3056 -0.1091 -0.1761
14722W        W30796  13.740   7.980   0.119  0.1666 -0.1916  0.0525
14723W        W30797   7.103   4.225   3.768  0.0883  0.3277 -0.1919
14724W        W30798  12.232  11.677   1.681 -0.1137 -0.0462  0.2774
14725W        W30799   9.836  12.820   4.750 -0.0565 -0.5038  0.0188
14726W        W30800   0.375   9.090  12.923 -0.0157 -0.0800 -0.1916
14727W        W30801   6.099  15.332   4.763 -0.2362 -0.1484 -0.0329
14728W        W30802  12.093  16.436   2.439 -0.1503  0.2227  0.1575
14729W        W30803  18.245  11.058  13.686 -0.2938  0.0967  0.0523
14730W        W30804   3.907  15.749   1.144 -0.0144  0.0392  0.1356
14731W        W30805  13.625  11.332   3.440  0.0226 -0.0151 -0.1617
14732W        W30806  11.817   2.740  10.952  0.1751 -0.0196 -0.1873
14733W        W30807   4.883  17.884  16.229  0.0068  0.0136  0.2035
14734W        W30808   3.581  18.012  15.705  0.1817 -0.3918 -0.0090
14735W        W30809   6.361  10.791   3.059 -0.3018  0.0355 -0.1549
14736W        W30810   5.829  14.994   5.028  0.2322  0.0259 -0.1438
14737W        W30811   2.826   3.471  14.687  0.0525  0.3336 -0.1053
14738W        W30812   6.814  13.174   3.594  0.0680  0.1134 -0.3184
14739W        W30813  14.778   7.583   1.889  0.0130  0.1530  0.1885
14740W        W30814  17.209  14.213  14.006 -0.0233  0.0423  0.1588
14741W        W30815   2.949   8.800   0.166  0.0683  0.0349  0.1566
14742W        W30816   0.175  15.816  13.010 -0.1198  0.2691  0.0264
14743W        W30817   8.999   0.358   1.442 -0.2065  0.0111 -0.1774
14744W        W30818   8.442   4.094   4.866 -0.2488  0.0105 -0.2029
14745W        W30819  11.571  10.095  13.793 -0.1136 -0.1779 -0.0780
14746W        W30820  15.772  15.729   4.094  0.2518 -0.0900  0.1652
14747W        W30821   8.930  13.607   5.093 -0.4725 -0.3739  0.2568
14748W        W30822  10.035  13.546  14.003  0.0251  0.1247 -0.1358
14749W        W30823  10.415  12.825  13.597  0.3359 -0.0329 -0.4059
14750W        W30824   8.857   7.133   1.981 -0.2980  0.1745 -0.1480
14751W        W30825   8.244   4.877  15.401  0.1808  0.2307  0.0184
14752W        W30826  15.417  14.308  14.091  0.5499 -0.1794 -0.4174
14753W        W30827   5.687   3.021   1.021 -0.0130 -0.1146 -0.1452
14754W        W30828  12.701  17.814  14.057  0.2411  0.0157  0.1921
14755W        W30829   9.748   1.986   3.887 -0.2201  0.3332 -0.1137
14756W        W30830   0.979  13.959   0.121 -0.0652 -0.2361 -0.0253
14757W        W30831   7.997  11.140  13.028  0.0416  0.4204  0.2806
14758W        W30832   5.498  14.141  11.233 -0.0413  0.1394  0.0571
14759W        W30833   7.892   1.918  16.079 -0.2879 -0.0857 -0.1109
14760W        W30834  16.364   8.780   2.525 -0.1569 -0.0736 -0.2044
14761W        W30835   6.466   9.128  11.753 -0.0513  0.3692  0.2031
14762W        W30836  17.523  16.038   2.768  0.2069 -0.0549 -0.2439
14763W        W30837   6.909   5.176   5.131  0.1826 -0.1258 -0.0898
14764W        W30838  14.684   1.152  11.706 -0.3094  0.2990 -0.0924
14765W        W30839   2.734  14.261   0.819  0.0079 -0.0585 -0.1235
14766W        W30840  15.480  16.148   3.866  0.0378 -0.1333  0.3732
14767W        W30841   6.097  12.691  15.986  0.2034  0.0547 -0.0304
14768W        W30842  15.529   4.830  12.244 -0.1324  0.0755  0.0914
14769W        W30843  15.491   8.342  16.042 -0.0756  0.3186 -0.3566
14770W        W30844  16.989   9.365   2.460 -0.0489 -0.0365 -0.3422
14771W        W30845   4.929  17.628   1.255  0.2171 -0.2013  0.0235
14772W        W30846  12.312  11.213   1.897 -0.0260  0.0678  0.3023
14773W        W30847  17.964  11.277   5.504  0.1535  0.0709 -0.1502
14774W        W30848  10.717  17.144   0.871 -0.1821  0.0762 -0.0754
14775W        W30849   0.369   6.665   3.538  0.0434  0.1142 -0.4922
14776W        W30850  13.891  13.673   1.946  0.0305  0.2278  0.2159
14777W        W30851   3.646  13.274  12.238 -0.3070  0.0413  0.1449
14778W        W30852  10.135   7.029   1.968 -0.0136 -0.3614  0.1045
14779W        W30853   6.502  15.036   4.983 -0.0005 -0.0581  0.0760
14780W        W30854   8.056   5.946   3.377 -0.2623 -0.1145  0.1486
14781W        W30855  12.076   8.966  12.492  0.1221  0.0960 -0.1027
14782W        W30856  15.050   8.769   2.492  0.0068 -0.1529  0.2076
14783W        W30857  14.480   6.176   3.881 -0.2292 -0.1228  0.1916
14784W        W30858   3.097   2.189  12.971 -0.1315 -0.0467  0.0933
14785W        W30859   0.878   1.301   5.225  0.2120 -0.0951 -0.0650
14786W        W30860  12.643   4.328   2.010  0.1169  0.1144  0.1181
14787W        W30861   7.747   6.263   5.141 -0.0682  0.2015 -0.0520
14788W        W30862   0.340   7.229   0.542  0.0632  0.2645 -0.0090
14789W        W30863   3.844   7.173  16.310  0.3354 -0.1488 -0.1417
14790W        W30864  10.979   4.235  11.970  0.0174 -0.1432 -0.2763
14791W        W30865   7.976  13.705  12.925  0.2180 -0.0441 -0.0676
14792W        W30866   7.761  10.839   4.852 -0.1583 -0.1678  0.1265
14793W        W30867  17.057   9.986   5.420 -0.5024  0.1344 -0.0996
14794W        W30868   1.763  14.044  11.514  0.3357 -0.2162 -0.1326
14795W        W30869   5.027   0.543   0.356  0.1533 -0.2497  0.1755
14796W        W30870  10.077   8.784  15.631 -0.1191  0.2555 -0.1206
14797W        W30871  10.088   8.306   4.292 -0.0908  0.0621 -0.0003
14798W        W30872   0.425   5.069   1.065  0.0325 -0.1012  0.0388
14799W        W30873  16.874   7.816  12.122  0.4033  0.1358  0.3847
14800W        W30874  12.600   0.595  15.955 -0.1093  0.0942  0.0085
14801W        W30875   3.974   9.523   0.360 -0.0293  0.1670 -0.1998
14802W        W30876  12.646   1.127   2.870 -0.0191  0.0467  0.4427
14803W        W30877  16.885  14.490  15.911 -0.1130 -0.0805  0.0223
14804W        W30878   1.003   7.727   2.275  0.0887  0.0045  0.2872
14805W        W30879  12.400   2.829   6.198  0.2699 -0.2811 -0.1049
14806W        W30880   4.498  12.210   1.917 -0.2814  0.0910  0.2542
14807W        W30881  13.753  15.728   4.407 -0.1644 -0.0351 -0.2206
14808W        W30882   5.298   9.662  10.959 -0.1877  0.1603  0.0893
14809W        W30883   3.401   2.011  16.169  0.0032  0.1189  0.3337
14810W        W30884  10.686   2.941  15.045  0.2087  0.0517 -0.3638
14811W        W30885   2.301   7.147  13.976  0.0562 -0.1898  0.0197
14812W        W30886   8.894  13.420   4.585 -0.4920 -0.0805 -0.1627
14813W        W30887   9.801   9.570   4.928 -0.2669  0.2204 -0.2311
14814W        W30888  17.838   1.710   5.227  0.1025  0.1511  0.0425
14815W        W30889   7.476   4.584   3.630 -0.2154 -0.1322 -0.0105
14816W        W30890   4.789  13.286  16.419  0.0102 -0.3240 -0.1312
14817W        W30891  16.096   3.347  15.075 -0.1749  0.1509 -0.0852
14818W        W30892  12.069   5.935   3.340 -0.2590 -0.1196 -0.1695
14819W        W30893   0.331   9.274  14.179 -0.1150  0.0802  0.0142
14820W        W30894  13.564  11.896   2.771 -0.1619  0.0386 -0.1226
14821W        W30895  11.771  16.539  14.652 -0.1051 -0.1542 -0.0133
14822W        W30896   4.061   8.244   0.342 -0.2071 -0.1737  0.0948
14823W        W30897  17.827   2.199   3.364  0.0461  0.0319  0.0423
14824W        W30898   1.321   3.055   4.765  0.2375 -0.3114 -0.1555
14825W        W30899   1.453   7.468  11.657  0.0029  0.0260 -0.1956
14826W        W30900  13.002   1.605   2.876  0.1546  0.0162 -0.1694
14827W        W30901  12.473  13.636  12.325 -0.3830  0.1636 -0.3319
14828W        W30902   7.712   0.724  12.315  0.0781  0.0235 -0.4526
14829W        W30903   7.652  10.122  12.223  0.4041  0.1321  0.1413
14830W        W30904  13.096   4.822   6.238  0.3067  0.0014 -0.1712
14831W        W30905  10.394   7.776   4.402  0.1318  0.5193  0.2704
14832W        W30906  16.380  17.353  15.399 -0.0112 -0.0092  0.1548
14833W        W30907   5.604   6.049   0.975 -0.1048  0.0820  0.0512
14834W        W30908  10.643   3.673   5.994  0.0523 -0.1770 -0.0246
14835W        W30909   1.004  14.649  12.587 -0.3110  0.2606 -0.1162
14836W        W30910  14.109   6.030  14.769  0.3203 -0.0670 -0.0998
14837W        W30911  10.480  11.143  11.548  0.1472 -0.0031  0.2717
14838W        W30912  12.273  11.710   0.598  0.1891  0.0588 -0.2378
14839W        W30913  12.708   2.462   0.162  0.1618 -0.0889 -0.3226
14840W        W30914   9.399   2.302  11.281  0.0531 -0.0396 -0.1123
14841W        W30915   4.808   9.989   0.234  0.3107 -0.0584  0.1033
14842W        W30916  17.474   1.130  14.956 -0.0129  0.2101  0.0334
14843W        W30917  17.847  12.470  13.914 -0.1898 -0.0942 -0.1316
14844W        W30918  16.351  15.381  14.795  0.0728 -0.0436  0.1322
14845W        W30919  11.387   6.910   4.719 -0.2737 -0.0286  0.0182
14846W        W30920   3.282  11.661  13.879  0.0874 -0.0646 -0.0503
14847W        W30921   6.774   0.918  14.691  0.0998 -0.0173  0.2580
14848W        W30922   6.064   8.775   3.002  0.1202  0.0851  0.2293
14849W        W30923  17.144   9.894  16.348 -0.2292 -0.1604  0.0260
14850W        W30924   2.122   0.676  12.267  0.4949  0.0274  0.2301
14851W        W30925   6.340  13.487   4.015  0.0583 -0.0101  0.2740
14852W        W30926  17.980  17.888  11.887 -0.0983 -0.0395 -0.0857
14853W        W30927   0.706  16.897  12.079  0.1823  0.1886  0.1852
14854W        W30928  16.874  14.442   0.910  0.3495  0.1227  0.0355
14855W        W30929  12.492  12.802   6.347  0.0352  0.2707 -0.1422
14856W        W30930  17.920   1.584  13.563  0.1266  0.0167 -0.1253
14857W        W30931   5.399   7.119  15.738  0.1572 -0.1366 -0.1106
14858W        W30932   6.862  13.857   2.563  0.0051  0.4245 -0.1081
14859W        W30933  17.695  10.721   0.159  0.0048 -0.1089  0.2072
14860W        W30934   4.978   4.215   3.506  0.1623 -0.0386 -0.1626
14861W        W30935  18.195   6.423   0.940 -0.1385 -0.1043 -0.0256
14862W        W30936  16.014  16.057   3.813  0.1501  0.1906  0.1012
14863W        W30937  10.782   5.452  11.313 -0.0118  0.1526 -0.2642
14864W        W30938   8.068   2.934  15.944  0.2804  0.2549 -0.0860
14865W        W30939  14.206   3.009   1.134 -0.1377 -0.0877 -0.0250
14866W        W30940  12.640  17.915   1.543 -0.0569 -0.2386  0.1174
14867W        W30941   8.828   9.496   1.405  0.0021 -0.1575  0.1579
14868W        W30942  14.550  11.044  13.054  0.2146  0.1441  0.0879
14869W        W30943   7.886   8.584  15.719 -0.0494  0.1902  0.1099
14870W        W30944   3.271   8.750   4.368 -0.4131  0.3643 -0.3387
14871W        W30945   4.535   1.483  13.437 -0.1975  0.0660  0.3448
14872W        W30946   2.755   6.421  11.627 -0.2456  0.0710  0.1484
14873W        W30947  13.696   6.342  15.503  0.1873  0.0751 -0.1120
14874W        W30948  15.072  16.084   1.358 -0.3295  0.1492 -0.0209
14875W        W30949  14.850   1.914  14.469 -0.0249  0.2239 -0.3254
14876W        W30950  14.566  17.301  11.720  0.2531 -0.0430  0.2350
14877W        W30951  10.885   2.345  12.408 -0.0721 -0.2611 -0.2690
14878W        W30952   7.468   2.316  16.125 -0.1143 -0.0877  0.1719
14879W        W30953   9.687   5.273   4.244 -0.4472  0.1408 -0.0502
14880W        W30954  11.573   9.199  10.903  0.1471 -0.0658  0.1680
14881W        W30955  10.498   7.203  14.737 -0.1013 -0.0422  0.0682
14882W        W30956   3.789  14.643   4.768 -0.0781 -0.3224 -0.0146
14883W        W30957   0.857   6.352   5.529 -0.1873 -0.0591 -0.2519
14884W        W30958   0.072   9.104  14.642  0.0843 -0.1977  0.0713
14885W        W30959  12.681   2.594   2.496 -0.0102  0.2774 -0.2694
14886W        W30960  17.561  15.660  14.714 -0.1507 -0.0992 -0.0900
14887W        W30961  11.675   1.496   3.607  0.1392  0.2493  0.2542
14888W        W30962  10.321  17.247   5.314  0.1375 -0.1266 -0.1522
14889W        W30963  10.723  15.753   5.106 -0.0038  0.0801  0.2201
14890W        W30964  11.899   3.122  13.284 -0.0355 -0.2152 -0.0000
14891W        W30965   3.969  11.469  13.630  0.1543  0.0792 -0.3617
14892W        W30966  12.604   5.824   2.382 -0.0877 -0.0662  0.2753
14893W        W30967   3.095   6.099  13.032  0.3230  0.1921 -0.2353
14894W        W30968   0.125  17.559  16.476 -0.1323  0.1457 -0.0152
14895W        W30969   2.995  17.527   5.226  0.0953  0.0523  0.5535
14896W        W30970  18.228   6.907   3.712  0.0675 -0.1418  0.2461
14897W        W30971   5.232  14.122  15.531  0.2048 -0.1258  0.0004
14898W        W30972  17.417   1.249   3.803 -0.0084  0.0289 -0.2962
14899W        W30973  14.848   1.162  13.746 -0.0513 -0.1799  0.0169
14900W        W30974  15.627  14.723  16.453  0.0298 -0.0777  0.0927
14901W        W30975   6.793  10.942   2.184 -0.1640 -0.0147  0.2266
14902W        W30976  17.776   1.228  14.482 -0.2971 -0.0854 -0.1738
14903W        W30977   8.228   3.864  14.925  0.0520 -0.1414 -0.3830
14904W        W30978  14.005  13.094   1.003 -0.0533  0.2359 -0.1047
14905W        W30979   8.215   3.838  12.000  0.3300 -0.1179 -0.1655
14906W        W30980   1.741  13.527   5.182 -0.1677  0.1551 -0.1235
14907W        W30981  17.842   5.683   0.891 -0.1726 -0.0587 -0.0503
14908W        W30982   6.684   5.970  13.458  0.1940 -0.3097  0.1644
14909W        W30983   1.151  10.469  11.754  0.1847  0.0587  0.2516
14910W        W30984   8.942  12.797   0.336 -0.1220 -0.2721  0.2261
14911W        W30985   5.504   7.885   3.619 -0.0098  0.1111 -0.1171
14912W        W30986   2.674  11.056  10.771 -0.2450 -0.0506  0.0845
14913W        W30987  12.424   5.927   0.650  0.4677  0.0355 -0.0168
14914W        W30988  13.021   3.679   4.069 -0.1849  0.0556  0.1105
14915W        W30989  17.625   0.787  14.546 -0.4569  0.0369  0.0238
14916W        W30990   4.563  15.729   0.336  0.0950 -0.0791 -0.1991
14917W        W30991  16.780  17.404   0.766  0.1395 -0.1540  0.0480
14918W        W30992  11.589   4.851   5.293 -0.1411 -0.4296 -0.4526
14919W        W30993   5.964   1.748   2.045 -0.0777  0.0749  0.1936
14920W        W30994  16.696  10.001  15.132  0.1004 -0.1481 -0.0765
14921W        W30995   5.346   1.821   4.991 -0.0723 -0.0586  0.2297
14922W        W30996   9.863  17.697   0.053 -0.0000  0.0829 -0.3294
14923W        W30997  10.280  17.508  14.611  0.1526  0.0499 -0.1830
14924W        W30998  11.154   4.211  14.908  0.0258 -0.0574  0.0020
14925W        W30999   8.196  11.067  11.603  0.4712 -0.1834  0.2054
14926W        W31000   9.234   2.497   4.464  0.1107 -0.0991 -0.0372
14927W        W31001  10.024  12.869  11.889 -0.1587 -0.0966 -0.2397
14928W        W31002   9.244   6.929  10.561  0.2924 -0.1386 -0.0179
14929W        W31003  13.233   4.863  15.850  0.2229  0.2084  0.1554
14930W        W31004   4.474   1.641   1.198 -0.1292 -0.0774 -0.1938
14931W        W31005  12.562  14.850   5.263 -0.1157 -0.3305  0.1037
14932W        W31006   9.413  10.805   4.850 -0.3206  0.1028  0.1170
14933W        W31007   7.082  13.207  14.881  0.2223 -0.0367  0.1060
14934W        W31008  17.437   0.084  15.655 -0.1849 -0.2140 -0.1871
14935W        W31009  12.011   8.781  13.012 -0.1071  0.4571 -0.1611
14936W        W31010   4.133  15.321  12.412  0.1775 -0.0870  0.1936
14937W        W31011   0.429   8.451  13.487 -0.2957  0.0635  0.0508
14938W        W31012  13.614   3.526  12.757 -0.0988  0.1243 -0.0298
14939W        W31013   8.896  17.491  12.637  0.1194  0.1137  0.0609
14940W        W31014   5.297   2.383   3.637 -0.1018 -0.0139  0.1408
14941W        W31015   6.307  16.283   2.085 -0.0547  0.1584  0.0173
14942W        W31016   8.414  16.973   4.935 -0.0705 -0.1502  0.0880
14943W        W31017  15.357  12.738  15.712 -0.2703 -0.1146 -0.2042
14944W        W31018   8.821  12.683  14.735  0.4369 -0.1659 -0.2494
14945W        W31019  10.009   3.809   6.346 -0.1852  0.0949  0.0782
14946W        W31020   2.226  12.288  14.258  0.0153 -0.0096 -0.0139
14947W        W31021   4.631  14.482   0.891  0.1581  0.0303 -0.1761
14948W        W31022   6.938  15.099  13.864  0.3040  0.2892 -0.0058
14949W        W31023   7.298   7.937   2.652  0.3721 -0.5007 -0.0387
14950W        W31024   8.079   1.057   2.197  0.0938 -0.1034  0.1342
14951W        W31025   9.226  14.277  14.597 -0.1181  0.2401  0.1072
14952W        W31026  16.278  14.896   2.071  0.0132 -0.0192  0.0995
14953W        W31027   8.926   3.317  15.577 -0.0304 -0.2562 -0.0520
14954W        W31028  10.637   4.921  15.349 -0.0777 -0.0397 -0.0086
14955W        W31029   5.719   3.742  14.836 -0.0682 -0.1975 -0.1216
14956W        W31030   0.648   4.227  16.251  0.0799 -0.1290 -0.1652
14957W        W31031  10.774   9.620  15.001  0.0167 -0.0680  0.2541
14958W        W31032   7.245  12.476   0.995 -0.3742 -0.1270  0.1136
14959W        W31033   9.291   3.636  14.611  0.1639 -0.2337  0.0249
14960W        W31034   8.080  15.081   4.086 -0.1929 -0.0166 -0.0777
14961W        W31035  16.981  15.617   0.630 -0.1128 -0.0355  0.0083
14962W        W31036  12.077   7.808  13.668  0.2629 -0.0153 -0.1902
14963W        W31037   3.943   5.829  15.640  0.0860  0.2341 -0.3130
14964W        W31038   9.502   6.653   1.286 -0.0937  0.2435  0.0946
14965W        W31039  13.299   0.946   0.642 -0.2093 -0.0150 -0.1899
14966W        W31040  12.487   4.994   1.194  0.1384 -0.3019 -0.0789
14967W        W31041  14.670   9.211   0.849 -0.1055 -0.0820  0.2734
14968W        W31042   8.406  14.833   6.145 -0.2338 -0.0877 -0.0654
14969W        W31043  18.105   1.650   2.154  0.2541 -0.0307  0.0226
14970W        W31044  16.339  11.238   2.802 -0.0223 -0.4795 -0.1163
14971W        W31045   9.776   4.178  11.631  0.0261  0.0988  0.1661
14972W        W31046   6.086  11.921  13.547  0.0712 -0.2305  0.1759
14973W        W31047  16.911   0.026  13.820  0.2231  0.0036  0.0142
14974W        W31048   1.012  16.469   1.513 -0.1710 -0.1506 -0.1617
14975W        W31049  11.606  11.615   1.567 -0.1729  0.0152 -0.0241
14976W        W31050  13.380  13.439  15.389 -0.2827 -0.2913  0.0538
14977W        W31051  15.326  16.155  16.157 -0.0698 -0.0806 -0.4078
14978W        W31052  14.534  15.856   5.518  0.0666 -0.0151  0.2167
14979W        W31053   9.100  15.963   2.477 -0.1248 -0.0580  0.0150
14980W        W31054   5.345   4.609  15.999  0.0996 -0.1107 -0.1645
14981W        W31055  15.928  10.455   1.115  0.2606 -0.0587  0.0631
14982W        W31056   7.236   3.489   2.572 -0.0937  0.0870 -0.1227
14983W        W31057   2.974   0.946   0.452  0.0931 -0.1290  0.2145
14984W        W31058  12.795  17.302   2.753  0.0611 -0.2892 -0.4321
14985W        W31059  12.741   5.686   6.504 -0.0515  0.0722  0.1124
14986W        W31060  10.671  11.676   0.995 -0.1088  0.1232  0.1239
14987W        W31061   6.962  14.568  12.500  0.0461  0.2618 -0.0403
14988W        W31062   9.116  10.582  11.220  0.0299  0.0780 -0.2560
14989W        W31063  17.120   8.654   4.618 -0.0444 -0.0120  0.0925
14990W        W31064   6.778   8.336   1.760 -0.2601 -0.1200 -0.0650
14991W        W31065   5.623  17.539   3.399  0.1487  0.1094 -0.0199
14992W        W31066   1.938  13.779  13.488  0.0423 -0.0135 -0.3269
14993W        W31067  13.403  16.221  12.941  0.1486  0.0781 -0.0320
14994W        W31068  14.350   9.089   3.076  0.1735  0.0490  0.1774
14995W        W31069   4.665   2.626  13.646  0.1218 -0.0982 -0.0152
14996W        W31070  16.217  15.463   2.559  0.1412  0.0393  0.0524
14997W        W31071   2.707   6.592  15.708 -0.2219  0.1068  0.1004
14998W        W31072  16.660  11.400  15.164  0.2512 -0.0202 -0.2204
14999W        W31073   7.386  11.741  12.396  0.2445  0.0773  0.0812
15000W        W31074   5.613  11.824  11.684  0.0139  0.0450 -0.2015
15001W        W31075  14.358   1.361  15.329 -0.0018 -0.0732 -0.0919
15002W        W31076  14.920   0.686   1.546 -0.0649 -0.1494 -0.0566
15003W        W31077   3.442  15.818  13.627 -0.0236 -0.1492 -0.2220
15004W        W31078   7.181   5.520   5.373  0.1634 -0.0040 -0.2394
15005W        W31079  13.845   4.274   3.229 -0.2741 -0.1968  0.0994
15006W        W31080   4.904   3.128   2.610  0.2038  0.3409 -0.0543
15007W        W31081   4.257   6.261  13.747 -0.0795 -0.0703 -0.0535
15008W        W31082   6.347  15.501   4.288  0.0370 -0.2846 -0.1513
15009W        W31083   1.795   9.810   4.454  0.0627  0.0770  0.2528
15010W        W31084   4.738   8.363   4.818  0.0534  0.0094 -0.0506
15011W        W31085   1.303  15.007  12.812  0.1487 -0.0871 -0.5441
15012W        W31086  15.153   2.535  14.383  0.1228 -0.0221 -0.1264
15013W        W31087   6.183   0.649   0.486  0.0806  0.2046  0.2550
15014W        W31088  12.302  15.027   5.664  0.2369 -0.0995 -0.1254
15015W        W31089  16.281  13.868   4.005  0.1147  0.0518 -0.1656
15016W        W31090  10.068   6.897  14.999 -0.2536  0.0005 -0.0234
15017W        W31091  12.210   7.034   2.043 -0.1523  0.2658 -0.1639
15018W        W31092  15.817   7.756   3.141  0.3351 -0.3086 -0.0963
15019W        W31093  11.783   6.772  11.776 -0.1895  0.1854  0.0646
15020W        W31094   7.803   2.667  16.326  0.4127  0.3794  0.0483
15021W        W31095  16.594   1.461   1.947 -0.0207  0.1892  0.1367
15022W        W31096   8.227   3.910  15.829 -0.0336 -0.1103  0.2163
15023W        W31097   5.079   0.073  13.070  0.0247  0.0922 -0.0560
15024W        W31098  10.004   9.481  12.209 -0.0341 -0.1105  0.0147
15025W        W31099   1.380  12.057  11.358  0.0934  0.0622 -0.2821
15026W        W31100   2.066   8.367   3.459  0.1144  0.2003  0.1176
15027W        W31101  16.418  17.885   2.928 -0.1475 -0.0146  0.1776
15028W        W31102   6.194   1.500  15.793 -0.4211  0.0115 -0.0800
15029W        W31103  15.375  14.118  15.590  0.1686 -0.3661 -0.1779
15030W        W31104   6.805  11.898   1.932  0.1763  0.1068 -0.1045
15031W        W31105  16.566   8.480   4.421 -0.0217  0.2921  0.3834
15032W        W31106   5.245  16.130   0.349 -0.0141  0.1991 -0.0563
15033W        W31107  17.966  10.061  15.495  0.1341  0.4954  0.1738
15034W        W31108   0.975   7.131   2.749  0.1135  0.2216 -0.5652
15035W        W31109   1.164  14.822  14.983 -0.6049  0.2118 -0.1501
15036W        W31110   4.147   9.746   1.846 -0.2708  0.2326  0.0388
15037W        W31111   9.018  15.473  16.274 -0.1083 -0.1777  0.2642
15038W        W31112  10.728   8.641   2.116 -0.1861 -0.0720  0.1623
15039W        W31113  12.161   1.062  14.992  0.0141 -0.0894  0.0446
15040W        W31114   7.596   1.234   3.850  0.0353  0.2540 -0.1540
15041W        W31115   3.323   1.737  12.842 -0.0234  0.1454 -0.1183
15042W        W31116   1.398  15.258  16.027  0.0479 -0.4141 -0.5665
15043W        W31117   2.334   7.181   4.354  0.0120  0.1661 -0.0854
15044W        W31118   6.350  18.159   1.824  0.3118 -0.0448 -0.1365
15045W        W31119   8.973  10.243   4.115 -0.3076 -0.0549  0.2299
15046W        W31120  14.255   8.053  14.917 -0.0150 -0.3539 -0.0239
15047W        W31121  12.429   9.664  11.982 -0.0900 -0.1510  0.3881
15048W        W31122   7.673  13.007   4.660 -0.1383  0.1359  0.1951
15049W        W31123   4.716  15.247   2.047  0.2205  0.0149  0.1571
15050W        W31124  12.769   7.763  16.464 -0.0630  0.4107  0.0955
15051W        W31125   1.356  13.342  15.803  0.0026  0.3247  0.0904
15052W        W31126  16.844   4.465   0.563 -0.0901 -0.0570 -0.2119
15053W        W31127   8.856   5.190  13.781 -0.1903 -0.1834  0.0700
15054W        W31128   9.572  14.624  14.828  0.0942 -0.0286  0.0615
15055W        W31129   4.189  15.916   2.449  0.1451  0.1233 -0.2143
15056W        W31130  12.586   1.277  12.110 -0.4412 -0.3643 -0.0495
15057W        W31131  12.993   3.567   6.366 -0.0538 -0.2004  0.0418
15058W        W31132   2.882   0.967   1.368 -0.2022  0.1646  0.1666
15059W        W31133  12.440   8.759   0.950 -0.0240 -0.0393  0.0050
15060W        W31134   0.074  10.891  14.188  0.2087  0.2908  0.2796
15061W        W31135  17.721   8.578  15.924 -0.1686 -0.1453  0.4845
15062W        W31136   0.196   2.746  13.243  0.2435  0.2458  0.0076
15063W        W31137  15.937   5.923  16.468  0.0090 -0.0535 -0.1153
15064W        W31138  14.807   4.093   4.352  0.1689 -0.3522 -0.0596
15065W        W31139   4.935   3.012  13.435  0.2092  0.2360 -0.0577
15066W        W31140  10.385  18.145  13.359  0.0887  0.1208 -0.1799
15067W        W31141  18.223   8.866   3.187 -0.1075  0.0387 -0.1697
15068W        W31142  13.792   6.341   5.072  0.1684 -0.3350 -0.0590
15069W        W31143   0.706  16.066  14.172  0.2125 -0.2166  0.3367
15070W        W31144   6.112   9.899  14.733 -0.2337  0.0474  0.0364
15071W        W31145   4.547   3.530   0.815  0.1206 -0.0929 -0.0986
15072W        W31146  17.876  16.914  15.484  0.0675  0.0543 -0.1620
15073W        W31147  11.741  13.840  11.786 -0.0632 -0.0706  0.1937
15074W        W31148  11.922   1.261   5.670  0.0294  0.1894  0.0744
15075W        W31149   0.756   5.921   4.151 -0.1957 -0.2282 -0.3646
15076W        W31150   7.318   8.542   0.626  0.0277  0.3992 -0.2649
15077W        W31151   4.842  16.249   3.520  0.3419 -0.1165 -0.1008
15078W        W31152  18.062   9.001   0.460 -0.0340 -0.1101  0.0644
15079W        W31153   1.108  11.371  11.903  0.0968  0.2458  0.1943
15080W        W31154   0.895  12.748   0.098  0.0178  0.0001  0.2135
15081W        W31155  13.610  13.693   0.113  0.0296  0.1503  0.1339
15082W        W31156  11.589   8.816   0.858 -0.0641 -0.1887 -0.1144
15083W        W31157   6.507   3.139   4.396  0.0594  0.2906 -0.0863
15084W        W31158  17.122  10.551  14.352  0.0874  0.3633 -0.1318
15085W        W31159   9.842  17.823   3.140  0.0081 -0.1953 -0.2549
15086W        W31160  10.044   4.216   4.034 -0.0672 -0.0245  0.0411
15087W        W31161   2.378  16.678   5.066 -0.1721 -0.2379  0.1597
15088W        W31162   9.799   1.199   1.807 -0.0368  0.2259 -0.1188
15089W        W31163   2.383  15.803  11.542  0.0634 -0.1916 -0.0405
15090W        W31164   3.975   8.038   9.561  0.0264 -0.0067  0.2511
15091W        W31165   6.638   6.465   0.127  0.0522  0.1211 -0.0272
15092W        W31166  12.819  12.567   3.640 -0.0427  0.2026 -0.1355
15093W        W31167   7.799   6.101   0.845  0.0018 -0.2113  0.4697
15094W        W31168  16.724   1.008   5.427 -0.1088  0.5109 -0.0721
15095W        W31169  14.801   1.559  15.068 -0.2684 -0.2131 -0.0908
15096W        W31170   0.599   9.660   4.248 -0.0053 -0.2614 -0.0443
15097W        W31171   8.428  12.668  15.107 -0.3057  0.0481  0.0395
15098W        W31172   3.696   0.721  16.452  0.3312 -0.1917 -0.2816
15099W        W31173   1.456   0.856   3.092  0.1040  0.0954  0.0153
15100W        W31174  15.842   6.097   2.431 -0.1305 -0.0462 -0.1668
15101W        W31175   7.419  18.248  12.363  0.1126  0.3406 -0.1200
15102W        W31176   1.160   0.355   2.220  0.0163  0.1273 -0.0016
15103W        W31177   8.560  18.089   0.395  0.0949  0.0313  0.1226
15104W        W31178  13.501  13.774   0.644 -0.0947 -0.0213  0.2579
15105W        W31179   2.864  11.267   0.693 -0.2556 -0.2452 -0.1536
15106W        W31180   5.112  11.003   3.787 -0.1561  0.1247  0.2890
15107W        W31181   7.969  16.540   6.256 -0.0478  0.1092  0.0717
15108W        W31182  13.128  13.540   0.242  0.1885  0.1018 -0.0044
15109W        W31183  17.966  18.173   2.031  0.1291 -0.1091  0.0722
15110W        W31184  10.545   0.961   5.668 -0.1232  0.1454  0.0955
15111W        W31185   3.938   2.908  14.038  0.0044 -0.0497  0.0762
15112W        W31186   5.639  17.087  12.372  0.1049 -0.0509 -0.2182
15113W        W31187   0.687  14.199   5.385  0.0464 -0.0210  0.2801
15114W        W31188  14.661  17.843  11.981 -0.1859 -0.3802 -0.2399
15115W        W31189   6.253   6.498   4.228  0.1040 -0.1186  0.3507
15116W        W31190  12.984   7.655  13.596  0.2341  0.0320  0.2519
15117W        W31191  13.109   3.947  13.605  0.0098  0.1930 -0.0068
15118W        W31192  11.903   6.015  13.407 -0.2662  0.0405 -0.0040
15119W        W31193   7.064   4.827   4.627  0.1308 -0.0159 -0.1914
15120W        W31194   4.900  16.232   2.921 -0.0031 -0.1470 -0.1772
15121W        W31195   7.578   5.698   5.125 -0.1514 -0.1686  0.3835
15122W        W31196  12.522  12.857  11.651 -0.1150  0.0742  0.0275
15123W        W31197  11.638   4.105   0.972 -0.0354  0.0599 -0.2165
15124W        W31198   1.530   5.118   1.006  0.1042 -0.3772  0.0855
15125W        W31199  17.612  13.719   1.526  0.0626  0.0727  0.1030
15126W        W31200  17.587  14.268   1.453  0.3355  0.0152 -0.0396
15127W        W31201  10.620  16.920   0.000 -0.2361 -0.1398  0.1700
15128W        W31202  15.581   0.020  12.081 -0.0664 -0.0249 -0.1573
15129W        W31203  12.117   2.185   0.063  0.4002 -0.0036 -0.0206
15130W        W31204   8.560   8.772   0.046 -0.2291 -0.2773 -0.1264
15131W        W31205  13.636   4.024  16.315  0.3113  0.0245 -0.0288
15132W        W31206  12.947   4.418   4.494 -0.1221  0.1297 -0.1846
15133W        W31207   1.103   5.712  15.918  0.0446 -0.1725 -0.3391
15134W        W31208  18.120   5.905   1.812  0.2159 -0.3250  0.0555
15135W        W31209  18.089  13.187   3.659  0.3988 -0.0347  0.3519
15136W        W31210  14.688   4.675  14.785 -0.2986 -0.0452  0.2023
15137W        W31211   2.036  13.837   5.386 -0.0222 -0.4263 -0.2325
15138W        W31212   4.686  17.314   2.920  0.1952 -0.1575 -0.3435
15139W        W31213  14.945   2.709   4.921 -0.1258 -0.2259  0.1994
15140W        W31214   8.308  18.248   4.533 -0.2641 -0.2744 -0.0536
15141W        W31215  16.362   2.317   4.831  0.0810  0.2507  0.0004
15142W        W31216  18.240   1.772   2.830  0.2080 -0.0236  0.0385
15143W        W31217  10.688  16.235   1.210  0.0198  0.1463 -0.0463
15144W        W31218   3.579  17.477  15.763 -0.2606 -0.2067  0.2568
15145W        W31219   4.026   9.397   3.258  0.2969  0.8448  0.2313
15146W        W31220   4.800   7.063  12.711 -0.2163 -0.2879  0.3160
15147W        W31221   6.221   4.609  11.271 -0.0323 -0.2074 -0.1178
15148W        W31222  16.726  12.745   1.340 -0.0202 -0.3270  0.0489
15149W        W31223   1.231   0.107   6.322 -0.0145  0.0881 -0.2195
15150W        W31224  17.885  14.705  12.208  0.2347  0.1107 -0.0208
15151W        W31225   4.393  12.593   0.756  0.2369  0.0270 -0.1112
15152W        W31226  11.010   4.724   4.523  0.1505  0.0519  0.2770
15153W        W31227  13.114  12.215   5.317  0.0786 -0.3271 -0.0201
15154W        W31228   9.366  17.011   3.229 -0.0661  0.1056  0.1680
15155W        W31229  16.559  15.810  15.115  0.2050  0.3969  0.1715
15156W        W31230  17.910   9.593  11.334 -0.0293 -0.0090  0.0238
15157W        W31231   1.519   8.958   3.981  0.2288  0.3665  0.1180
15158W        W31232  12.550  11.002   3.013  0.0033 -0.1278 -0.2711
15159W        W31233  13.639   4.754   1.745  0.1396 -0.1312 -0.0407
15160W        W31234   4.271  10.799   5.047 -0.0392  0.0189 -0.5537
15161W        W31235  10.176   8.834  12.771  0.0202 -0.1654  0.0084
15162W        W31236   0.034   8.453   3.471 -0.0016 -0.1804 -0.0393
15163W        W31237  11.644   7.833   2.423  0.1704 -0.0114 -0.0254
15164W        W31238   3.326   1.234   6.298  0.0048 -0.2317 -0.0586
15165W        W31239  15.284   7.594   3.220  0.1468 -0.0635  0.1759
15166W        W31240   3.060   2.637   3.776 -0.0588 -0.0766  0.0083
15167W        W31241  10.388  14.419  12.938  0.0056 -0.0664 -0.0618
15168W        W31242  13.515   2.554  12.855 -0.0084  0.1815  0.2348
15169W        W31243  12.168   1.282   4.797 -0.2095 -0.3648 -0.2208
15170W        W31244  17.688  17.970   3.773 -0.1367  0.2349 -0.2311
15171W        W31245   1.493  14.215   3.974 -0.1281  0.0887  0.1961
15172W        W31246   3.120  14.941   3.098  0.1265  0.0772 -0.1800
15173W        W31247   0.205   0.915  16.459 -0.1798 -0.0404  0.0184
15174W        W31248   3.359   9.839  10.037 -0.1137  0.0455  0.1939
15175W        W31249   1.851   9.419  12.230 -0.0944  0.2079 -0.0679
15176W        W31250   2.916  16.719   3.385 -0.1641  0.0112  0.1662
15177W        W31251   3.322   1.506   3.327 -0.2692  0.4956 -0.1946
15178W        W31252  10.505  17.198  15.991 -0.0091  0.0893  0.0340
15179W        W31253   8.739   6.609   6.048  0.1297  0.1481 -0.1477
15180W        W31254   0.562   6.912   5.982  0.0943 -0.1507  0.2106
15181W        W31255  16.335   7.791   1.397  0.1911  0.1463  0.0513
15182W        W31256   5.534  18.109   3.597  0.1034 -0.0240 -0.0694
15183W        W31257   7.917   9.171  14.199 -0.1480  0.1899  0.1909
15184W        W31258  13.345  10.736  11.619  0.1116  0.1145 -0.1046
15185W        W31259   2.702   6.954   2.727  0.3698  0.1951 -0.2667
15186W        W31260  10.630  10.541  12.261 -0.1333 -0.1354 -0.0800
15187W        W31261  11.715   7.835   0.762  0.0103 -0.0544  0.0217
15188W        W31262  12.421  14.585  12.059 -0.2205 -0.0572 -0.0256
15189W        W31263  15.716   2.397   5.079  0.3571  0.0552 -0.0276
15190W        W31264   6.855   8.321   3.942 -0.0140 -0.0365 -0.1183
15191W        W31265   8.315   7.056  15.786  0.1215 -0.2226 -0.4514
15192W        W31266  15.493  11.283   2.581  0.1819  0.0083  0.2085
15193W        W31267  12.032   7.138   3.572  0.2243 -0.1144  0.0953
15194W        W31268  16.682   8.206   0.701 -0.0060  0.0335 -0.0091
15195W        W31269   0.215   7.448  15.615 -0.0479 -0.1261  0.0462
15196W        W31270  12.683   8.552  14.704 -0.0266  0.1699 -0.3123
15197W        W31271  17.938   5.980  14.614 -0.2750  0.1345 -0.0634
15198W        W31272  12.295  16.566  14.615 -0.1863 -0.0060 -0.2461
15199W        W31273   0.664  12.252  15.899 -0.1564  0.3472 -0.0136
15200W        W31274  15.141   8.517  16.346  0.2651  0.0404 -0.3554
15201W        W31275  17.349   8.615  12.392  0.0239  0.0126 -0.0377
15202W        W31276  11.065  10.601   4.800  0.0578 -0.1473  0.2546
15203W        W31277   1.858   8.083  12.613  0.3076  0.2127 -0.2964
15204W        W31278  11.349  10.855  12.631  0.0043 -0.0846 -0.3119
15205W        W31279  10.405  13.429  15.797 -0.1877 -0.1559  0.0476
15206W        W31280  11.864   6.147  14.437 -0.0877  0.2124 -0.3738
15207W        W31281   1.238   2.543  13.579 -0.1300  0.0996  0.2764
15208W        W31282  10.141  11.402  14.075 -0.0247  0.0402 -0.0793
15209W        W31283   3.569   1.145   3.599  0.0798 -0.0314 -0.0323
15210W        W31284  14.447   0.515   5.128  0.0625 -0.0742 -0.2665
15211W        W31285   4.521   6.177   4.533 -0.0169 -0.1394 -0.0105
15212W        W31286  14.917   0.360   3.465 -0.0675 -0.1277 -0.1629
15213W        W31287   3.435   8.003   1.771 -0.0506  0.2808  0.0338
15214W        W31288   1.969  14.397   0.513  0.1097 -0.1131 -0.0257
15215W        W31289   5.345   4.647  11.463  0.2621  0.3162 -0.0752
15216W        W31290  10.773   7.097   3.220 -0.1457 -0.0414 -0.1312
15217W        W31291  16.877  17.174   2.439  0.2758  0.4051  0.1289
15218W        W31292   7.129   6.575  12.071 -0.1495 -0.1166  0.1858
15219W        W31293   7.763  14.284   3.561  0.0517 -0.3570  0.2334
15220W        W31294   7.279   3.632  16.075  0.3343 -0.2964  0.1576
15221W        W31295  17.072   0.235  15.284  0.2791 -0.2189  0.0359
15222W        W31296   4.798   1.047   4.210 -0.0841 -0.2005 -0.2020
15223W        W31297  12.614  16.789  14.322 -0.0929  0.2660 -0.0040
15224W        W31298   9.277  14.831  15.240 -0.2664  0.1532  0.0318
15225W        W31299  12.324   4.358   3.400  0.1209  0.0288 -0.3997
15226W        W31300   3.258  11.710   1.432  0.0032 -0.1803  0.1206
15227W        W31301  14.828   1.228   4.537 -0.0053 -0.1329  0.2392
15228W        W31302  11.730  14.623   4.667  0.0319  0.2517 -0.1368
15229W        W31303   0.797   4.510  15.072 -0.0945  0.3921  0.1634
15230W        W31304  12.490  14.521   2.021 -0.0683  0.1536 -0.2207
15231W        W31305  16.224   2.833   0.591 -0.0386  0.1729  0.2675
15232W        W31306  15.397  10.466   1.173 -0.2122  0.2992  0.0525
15233W        W31307   1.587   6.684   4.906 -0.0170  0.2165 -0.3641
15234W        W31308  14.440   3.411  12.267 -0.1007 -0.0191 -0.1882
15235W        W31309   2.966   4.400   4.190  0.0759  0.0354  0.0068
15236W        W31310   1.056   5.987  14.503  0.1374  0.2283 -0.2741
15237W        W31311   5.893  15.852  12.607  0.0832 -0.3621  0.2373
15238W        W31312   1.676   7.804   2.597  0.2421  0.4629 -0.0608
15239W        W31313   5.690   0.369   5.309 -0.0595 -0.0219 -0.2769
15240W        W31314   2.447  11.257   4.420 -0.2428  0.0292  0.1454
15241W        W31315   2.752   2.238   3.924  0.0857 -0.0867 -0.1307
15242W        W31316  14.674   3.895   0.735 -0.1598 -0.0489 -0.1520
15243W        W31317  17.316   9.949  12.780  0.3885 -0.1492 -0.3546
15244W        W31318  11.338  12.152   2.658 -0.2549  0.1427  0.0829
15245W        W31319  13.603   6.298  14.617 -0.1964  0.1151 -0.0695
15246W        W31320  11.650  16.844   4.833  0.0448  0.1335  0.1380
15247W        W31321   6.490  11.032  15.675  0.0116  0.1127  0.0175
15248W        W31322   6.991  17.374   1.366  0.1567  0.2227  0.1552
15249W        W31323  12.808   5.225  11.759  0.0112  0.1042  0.0183
15250W        W31324  13.117   2.408   0.403  0.1192 -0.1301  0.0902
15251W        W31325   4.695  14.992  13.139 -0.0209 -0.2390  0.1767
15252W        W31326   9.965  15.431   3.460 -0.0114  0.3092  0.0816
15253W        W31327   6.302   1.897   4.604 -0.0396  0.0230 -0.0230
15254W        W31328   3.323  16.629  15.075 -0.0891  0.0285  0.2094
15255W        W31329  11.818   1.834  12.409 -0.1550 -0.2451  0.0035
15256W        W31330   4.771   6.600  12.895  0.1342 -0.0548 -0.0293
15257W        W31331   2.615   4.310   3.805  0.1560 -0.1908  0.1796
15258W        W31332   3.003  16.335   1.998  0.1377 -0.1616  0.0403
15259W        W31333  12.721  14.034  16.352 -0.1855 -0.2725  0.1114
15260W        W31334   7.320   3.800   0.675 -0.0717 -0.0621 -0.2721
15261W        W31335   7.370   3.983   4.256 -0.2116  0.1218 -0.2568
15262W        W31336   2.421  15.611   4.624  0.0183 -0.0494  0.0026
15263W        W31337   5.573  17.943  12.586 -0.2322 -0.0528  0.1531
15264W        W31338  11.385   9.975  14.311  0.2065 -0.2021 -0.3344
15265W        W31339  16.180  16.495   2.749 -0.0680 -0.0980 -0.1330
15266W        W31340  12.609   3.130  15.402  0.0376  0.1164 -0.0831
15267W        W31341  12.552   8.417  15.157 -0.0014  0.2040 -0.0050
15268W        W31342   0.504  12.090  13.611  0.0875 -0.0144  0.2418
15269W        W31343  16.211   3.940   1.566  0.4105 -0.3197 -0.2743
15270W        W31344   9.022  10.612   1.667  0.1520 -0.0572 -0.1689
15271W        W31345   8.075   2.535   5.044  0.0315  0.0378 -0.2822
15272W        W31346  12.799  12.653   4.983 -0.0826  0.0312  0.1582
15273W        W31347   6.876  16.799  15.566 -0.1029 -0.1754  0.1613
15274W        W31348  16.463   3.421  16.040 -0.1081 -0.3698  0.1733
15275W        W31349  10.684   2.073  15.451  0.1659 -0.0328  0.1770
15276W        W31350  12.318   6.640   2.343  0.1474 -0.2091 -0.2709
15277W        W31351   3.963  17.502   3.265  0.3091  0.0774 -0.3459
15278W        W31352   6.276   3.406  15.917 -0.1177  0.3387  0.0399
15279W        W31353   1.169   6.706   2.557  0.2611 -0.1395 -0.0406
15280W        W31354  14.166  17.824  13.402 -0.1027 -0.0904 -0.2533
15281W        W31355  13.786   0.601  14.837  0.1120  0.2181 -0.1735
15282W        W31356  14.023   0.800   4.552 -0.0266  0.0657 -0.0313
15283W        W31357  16.686  10.732  12.219  0.2420  0.0326 -0.3664
15284W        W31358   5.649   8.767   4.048 -0.6250  0.0357 -0.0844
15285W        W31359   0.359  12.577   0.419  0.0557  0.1383  0.1077
15286W        W31360   9.020   2.142  13.981  0.1248  0.1103  0.1612
15287W        W31361   9.805   9.925  12.326  0.0643 -0.0567 -0.1025
15288W        W31362  13.982  15.001  14.902 -0.0658  0.3515  0.1594
15289W        W31363  16.474  12.824   5.535  0.0548 -0.2714  0.1959
15290W        W31364  17.077   4.996   2.341 -0.2386  0.0747  0.0451
15291W        W31365  16.227  13.269   5.328  0.1276 -0.0359 -0.1312
15292W        W31366   8.712   7.131   4.564  0.1868 -0.0342  0.0905
15293W        W31367   3.754  10.036  15.485 -0.1852 -0.3898 -0.0844
15294W        W31368  14.239  17.571  14.039  0.2765  0.0798  0.1373
15295W        W31369   0.031   5.468   1.811  0.0407  0.0217 -0.0764
15296W        W31370  14.507   0.500  15.133  0.0093 -0.1859  0.2118
15297W        W31371  16.373  17.832   6.681  0.4602 -0.2765 -0.0823
15298W        W31372  10.826  14.475   4.387  0.0857 -0.1979 -0.2157
15299W        W31373   9.046   9.832  14.575  0.0062  0.1296 -0.0862
15300W        W31374   6.616   5.281  13.018  0.0442  0.0977  0.0408
15301W        W31375  10.535  12.366   1.531 -0.1700  0.1808 -0.3193
15302W        W31376   3.746   2.767  13.612  0.3204  0.1170  0.1733
15303W        W31377  10.797  14.405   3.534 -0.1602  0.0946 -0.0566
15304W        W31378  11.427  15.715   3.166  0.0474 -0.4413  0.0328
15305W        W31379   5.257  12.749  11.663 -0.0409  0.1283  0.0382
15306W        W31380  13.823   4.610  15.382  0.1617  0.1898  0.0216
15307W        W31381   2.293   4.176   1.594 -0.0856 -0.2819 -0.3555
15308W        W31382  10.904   6.527  12.834  0.1809  0.0442 -0.0578
15309W        W31383  12.613  15.965   1.667  0.0764 -0.0291 -0.1413
15310W        W31384  17.933   1.774   5.760 -0.1432 -0.3098 -0.0759
15311W        W31385   9.756   7.932   2.740  0.0818 -0.0011  0.1870
15312W        W31386   1.315   2.496   4.112 -0.0580 -0.0526 -0.3104
15313W        W31387  14.438  15.308   0.043  0.0413 -0.1813 -0.1068
15314W        W31388  10.027  12.551  12.502  0.1007  0.0503  0.0258
15315W        W31389   8.238  11.067  12.571 -0.0274 -0.0897 -0.1677
15316W        W31390  16.439  14.369   3.758 -0.0505 -0.0212 -0.4109
15317W        W31391   4.535  13.518  14.444  0.0277 -0.0475  0.1979
15318W        W31392   3.988   9.392  11.029 -0.0394 -0.0941  0.0869
15319W        W31393   0.791   2.734  11.660 -0.0773 -0.0875  0.1931
15320W        W31394   1.132   5.022   5.764 -0.2871  0.1749 -0.0528
15321W        W31395   5.430  12.616   5.060 -0.3019  0.2017  0.1484
15322W        W31396   4.241  10.970   1.238 -0.1325  0.2407  0.1977
15323W        W31397  12.438  13.268   5.120 -0.1566  0.1510  0.3320
15324W        W31398   8.137   8.461   3.223 -0.0013 -0.2438  0.3503
15325W        W31399   9.271  10.221  12.142 -0.2421 -0.1532  0.3182
15326W        W31400   3.562   5.866   1.820  0.0282  0.0737  0.1124
15327W        W31401   4.052   4.038  16.212  0.2840  0.1448  0.1237
15328W        W31402   8.935  13.774   0.537  0.1530 -0.2083  0.0957
15329W        W31403  11.822   6.993  13.384 -0.3723  0.1740  0.1701
15330W        W31404   7.204   2.835  16.301 -0.1462 -0.0834 -0.0610
15331W        W31405   6.089   5.067  13.631 -0.2205  0.2351 -0.2853
15332W        W31406   4.793   9.940  11.983 -0.0952 -0.4235  0.1749
15333W        W31407   3.212  15.462   3.496 -0.1824 -0.0518  0.1927
15334W        W31408   3.026  11.164   2.698  0.0632  0.1542 -0.0408
15335W        W31409  18.152  11.097   1.611  0.1221  0.2365  0.0839
15336W        W31410  12.321   0.156   1.187 -0.1044  0.2230 -0.0850
15337W        W31411   9.502   5.674   0.999 -0.4022 -0.0668 -0.0457
15338W        W31412  13.575   6.797   4.483 -0.0093 -0.1611  0.1314
15339W        W31413   7.377  13.404   3.633  0.2340 -0.0896 -0.1494
15340W        W31414   6.603   1.292   6.395  0.0587  0.0239  0.1260
15341W        W31415  12.358   8.241   3.625 -0.0337  0.0309 -0.0058
15342W        W31416  12.930  17.492   1.438 -0.1312  0.2063  0.2972
15343W        W31417   4.547   6.226   1.050  0.0853  0.2537  0.0969
15344W        W31418   7.303  13.160  13.857 -0.1312  0.3884 -0.1309
15345W        W31419   0.881   5.594  13.444 -0.0709  0.0227  0.1314
15346W        W31420   6.695  11.450  15.747 -0.3230 -0.3099  0.0002
15347W        W31421   3.639   9.983  14.680 -0.1065 -0.1163  0.0779
15348W        W31422   9.555   0.554   4.144  0.2458 -0.0655  0.2576
15349W        W31423  12.269   7.988  12.111  0.1774 -0.0274 -0.2973
15350W        W31424  16.282  12.642  15.531 -0.0065  0.3446 -0.1339
15351W        W31425   0.441  12.612  12.885  0.1278 -0.2701  0.1477
15352W        W31426   5.243   4.828  13.319 -0.0932  0.1988 -0.0478
15353W        W31427   7.681  13.016  13.520 -0.3809  0.0327 -0.2999
15354W        W31428   9.643   8.557   5.177 -0.2384 -0.0065  0.0288
15355W        W31429   1.811   2.242   3.587  0.0433  0.0442  0.2641
15356W        W31430  10.682   4.869  13.229 -0.0912  0.1739 -0.0653
15357W        W31431  18.246   2.009  15.864 -0.2320 -0.0228 -0.0603
15358W        W31432   5.099   7.400  14.039 -0.0848  0.2839  0.0047
15359W        W31433  10.669  15.731   4.246  0.2607 -0.2866  0.1283
15360W        W31434  15.503  17.350   6.031 -0.4782 -0.1220 -0.0454
15361W        W31435   4.416  14.256  13.222 -0.0563 -0.0245  0.1133
15362W        W31436  18.082   5.843   5.196  0.0718 -0.0003 -0.0177
15363W        W31437   9.755   4.668  14.310  0.3242 -0.5722 -0.1164
15364W        W31438  17.021  13.092   3.787  0.0148  0.0075  0.3872
15365W        W31439  18.061   2.220  15.050 -0.0691  0.0108  0.0860
15366W        W31440   2.973   7.723  12.341  0.0526  0.1071  0.2971
15367W        W31441   2.054   1.307  11.927 -0.0833 -0.2035  0.2364
15368W        W31442   9.707   6.657  12.325 -0.0879 -0.2899 -0.1327
15369W        W31443   7.535   8.462  16.035 -0.0675  0.2118 -0.1967
15370W        W31444   7.972  12.490   2.691 -0.4042 -0.1325 -0.5113
15371W        W31445   1.398  13.717  12.278 -0.0836  0.4008 -0.0907
15372W        W31446   5.946  16.289   1.120 -0.0902 -0.0508 -0.1139
15373W        W31447   8.794   8.828   2.662 -0.0889 -0.0044  0.0067
15374W        W31448   3.572   7.328   5.399 -0.0903 -0.2467 -0.5629
15375W        W31449   9.924  12.123  11.773 -0.2359  0.1053 -0.0212
15376W        W31450  18.134   2.930   0.999  0.1721 -0.1508  0.0059
15377W        W31451  15.140  17.464  14.327 -0.7210  0.0336  0.3618
15378W        W31452   9.993  17.431   2.711  0.0478  0.1221  0.0129
15379W        W31453  13.702   9.049   3.295  0.4649 -0.1567 -0.2170
15380W        W31454   7.373  13.200   2.328 -0.1301 -0.2644  0.0678
15381W        W31455   4.654  13.337   0.439 -0.0677 -0.1982 -0.0948
15382W        W31456   4.175   6.885  13.131 -0.0530 -0.1432  0.0058
15383W        W31457   5.000   7.884  11.925 -0.1743 -0.4746 -0.1084
15384W        W31458   7.615  11.421  13.255 -0.0179 -0.2413 -0.2915
15385W        W31459   8.894  14.336  12.457 -0.4042 -0.2997  0.0011
15386W        W31460  17.930   5.096   0.213 -0.0779  0.0590  0.0099
15387W        W31461  16.975  12.102   3.471 -0.0039  0.2664  0.1250
15388W        W31462  11.515   4.342   0.523 -0.0509  0.3734  0.0858
15389W        W31463   1.808  16.175  11.347  0.2769  0.1268 -0.3653
15390W        W31464  16.109   8.497   4.202  0.2561 -0.2686 -0.0606
15391W        W31465   0.972   6.011  12.679 -0.0956 -0.2558  0.1678
15392W        W31466  12.801  14.034   2.222 -0.1834  0.0556 -0.0727
15393W        W31467  17.310   9.037   0.659  0.1626  0.3154 -0.1156
15394W        W31468  18.105   5.434   4.859  0.3479  0.3435 -0.0620
15395W        W31469   0.676  16.649  11.573  0.1258  0.2363 -0.5188
15396W        W31470   8.586   2.530   2.785 -0.1086 -0.0070 -0.4051
15397W        W31471  11.993   4.114  14.406  0.2057  0.2386  0.1511
15398W        W31472   9.545   6.304  16.376  0.0225  0.1180  0.0986
15399W        W31473   0.819   5.177   3.339  0.0680 -0.0670  0.2545
15400W        W31474  11.845  16.295  15.756 -0.0484  0.1620  0.1075
15401W        W31475   5.835   2.239  12.585 -0.3415  0.0330 -0.3227
15402W        W31476   1.781  15.492  12.146  0.0178  0.0840 -0.1590
15403W        W31477   2.305  14.737  11.891  0.3144 -0.1608  0.3223
15404W        W31478   1.774   5.096   4.496 -0.4486 -0.1000 -0.2698
15405W        W31479   8.692   4.247   1.364  0.0122 -0.1738  0.1787
15406W        W31480  16.087  16.064   1.414  0.1055 -0.1136 -0.1246
15407W        W31481   5.230   0.353   3.620  0.0517 -0.2072  0.0071
15408W        W31482   9.653  11.264   5.517 -0.1516  0.1640  0.1938
15409W        W31483  11.864   9.027  11.708 -0.0302  0.1997 -0.0791
15410W        W31484  15.889  14.388   5.540 -0.2570 -0.1225 -0.2240
15411W        W31485  16.745   1.333   1.429  0.0650  0.0450  0.1346
15412W        W31486  11.769   8.941   1.400 -0.0361  0.0049  0.1181
15413W        W31487   4.617  17.322   1.575  0.0065 -0.1645 -0.0532
15414W        W31488  16.513  18.207  11.856  0.0462  0.0579 -0.0721
15415W        W31489   0.767  10.304  11.388 -0.2047  0.1890  0.1320
15416W        W31490   3.701   2.770   2.193 -0.0331  0.2009  0.0368
15417W        W31491   8.978   2.278  11.488 -0.0545 -0.0638 -0.2819
15418W        W31492  15.662   7.007   1.095  0.1315  0.0820  0.1356
15419W        W31493   4.253  10.818  13.443  0.0574  0.6621 -0.1129
15420W        W31494  12.061   9.806   1.719 -0.0779 -0.4086 -0.0802
15421W        W31495   9.330  15.679  13.857 -0.0895 -0.0758  0.2350
15422W        W31496   2.587  13.059  12.547 -0.1746 -0.0335  0.0870
15423W        W31497   9.558  12.838  11.682  0.5453 -0.1096 -0.3376
15424W        W31498  15.693   3.582  12.077 -0.0052 -0.0276 -0.0273
15425W        W31499  16.947   1.032  13.270 -0.3631 -0.1822 -0.0175
15426W        W31500   3.579   9.677   3.871 -0.0726 -0.1077 -0.1443
15427W        W31501   6.618   6.822   4.414 -0.3649  0.0862  0.3082
15428W        W31502  14.567   1.195  12.230 -0.0315 -0.0147 -0.1394
15429W        W31503   7.964   6.249  16.437  0.0330  0.0090 -0.1908
15430W        W31504  13.123  17.234   6.270  0.0929  0.0320 -0.0656
15431W        W31505  10.640  10.950  15.741 -0.1459  0.2258 -0.1992
15432W        W31506   7.291  18.158   2.746  0.1043 -0.1261 -0.2797
15433W        W31507   6.232  15.722  15.012 -0.0928 -0.3401  0.0480
15434W        W31508   9.097  18.198   3.340 -0.2674  0.0039  0.0893
15435W        W31509  12.778   0.920   0.641  0.0343 -0.1446 -0.2491
15436W        W31510   4.344   7.211   4.715  0.2749 -0.3438  0.3522
15437W        W31511   9.894  10.831   1.628  0.0943  0.1168  0.1864
15438W        W31512   2.055   1.260   1.158  0.1331  0.0371  0.4150
15439W        W31513  15.417  17.831  16.339  0.3622  0.1566 -0.2442
15440W        W31514  17.068  16.169  16.099 -0.3753 -0.0888  0.0058
15441W        W31515  12.486  14.099   6.034  0.1494  0.1322 -0.0746
15442W        W31516  18.031   7.949   2.767 -0.1025  0.1169  0.4183
15443W        W31517   4.206   1.616  16.349  0.3212  0.1235 -0.0299
15444W        W31518  11.113   4.712  12.723  0.5484  0.2513  0.1344
15445W        W31519  16.707   1.249  11.372 -0.0652  0.1967  0.1795
15446W        W31520  11.761   6.237  15.864 -0.1400 -0.1585 -0.1634
15447W        W31521  10.802   9.013   4.347  0.0885 -0.0848  0.2246
15448W        W31522   2.684  13.845  12.406  0.0209  0.1668 -0.3220
15449W        W31523  14.267   6.877  13.528  0.0320 -0.2382  0.1674
15450W        W31524   0.824  10.230  16.203  0.1599  0.1265  0.1660
15451W        W31525  14.226   7.407  16.114 -0.1688 -0.0962 -0.0457
15452W        W31526  14.672   6.241  12.728  0.0723  0.3141 -0.1140
15453W        W31527   3.940   5.374  14.842 -0.0313  0.0681  0.0350
15454W        W31528   5.888  10.431   1.765 -0.2038  0.0612 -0.0842
15455W        W31529   8.387   3.340  14.751 -0.3317 -0.0648  0.0670
15456W        W31530   7.332  14.179  13.329  0.1107  0.1585  0.1255
15457W        W31531  15.206   5.506   0.755  0.3842 -0.2199 -0.1260
15458W        W31532   2.251  10.574  16.234  0.0656  0.0917  0.0296
15459W        W31533  14.295  12.633  14.024 -0.3665 -0.0751 -0.0845
15460W        W31534  12.598  15.958  13.943  0.2874  0.0245 -0.0951
15461W        W31535   6.272   5.043   4.442  0.2393 -0.1385 -0.1251
15462W        W31536  14.158  10.231   0.073 -0.0784  0.2705 -0.2442
15463W        W31537  13.574  17.682   3.062  0.3663  0.3239  0.0468
15464W        W31538  15.277   6.862   2.332 -0.0327  0.2527  0.0752
15465W        W31539  15.593  10.601  14.642  0.0052 -0.0577  0.0693
15466W        W31540   6.874   9.737  15.395 -0.3184  0.1662  0.0428
15467W        W31541   7.518  12.379   3.403 -0.1101 -0.1723  0.2204
15468W        W31542  10.836   9.320  14.450  0.3174  0.1767 -0.0883
15469W        W31543  18.245   5.567  14.636 -0.0757 -0.1699 -0.4807
15470W        W31544  10.039  15.078  11.900  0.0772 -0.0632 -0.3661
15471W        W31545   3.683  16.172   3.676 -0.2880  0.0505 -0.0928
15472W        W31546  14.873   2.629   5.981  0.0331 -0.1618  0.0172
15473W        W31547  15.258  12.285   2.910  0.3589  0.0687 -0.0521
15474W        W31548  12.770   7.417  15.244  0.1060  0.0010 -0.0588
15475W        W31549  10.257   7.400  15.327  0.1973 -0.0589 -0.1091
15476W        W31550   2.384   2.984   5.981  0.2447 -0.2464  0.3134
15477W        W31551  11.656  10.743  15.911 -0.0846  0.1380 -0.3473
15478W        W31552  16.991   0.520  11.464  0.1212  0.0660 -0.2049
15479W        W31553  15.541   9.900  13.928 -0.1634 -0.1994  0.1464
15480W        W31554  14.410  11.869  14.346 -0.0058  0.0276 -0.1469
15481W        W31555  14.393   5.876  11.988  0.1030 -0.2723 -0.1401
15482W        W31556   7.705  12.356  12.922  0.4360 -0.1632  0.0424
15483W        W31557   5.131   3.356  15.445 -0.0103  0.1136 -0.2478
15484W        W31558  13.555   2.319   1.974 -0.0815  0.2149  0.0901
15485W        W31559  16.527  16.646   1.092  0.4666  0.1440 -0.0044
15486W        W31560   9.769  14.088   3.505  0.0800 -0.3429  0.0610
15487W        W31561  15.045  14.183   4.712  0.2891  0.1862  0.3129
15488W        W31562   4.659   6.634   2.805  0.0912  0.0697 -0.1508
15489W        W31563   0.891   1.658  12.136  0.5495  0.2793 -0.0103
15490W        W31564   0.595   1.958  11.368  0.0794 -0.1356  0.3650
15491W        W31565  10.008  14.669   1.304 -0.1683 -0.0565 -0.2095
15492W        W31566  14.328  18.069  14.711 -0.0708  0.0741 -0.0882
15493W        W31567   9.572   8.700   0.095 -0.0525  0.0245 -0.1314
15494W        W31568   2.432  13.618  11.678 -0.3211  0.0893 -0.1846
15495W        W31569   9.642  12.199   2.238  0.2259 -0.0885 -0.1773
15496W        W31570   5.194   8.433  14.186  0.1273  0.3426  0.0493
15497W        W31571  10.702   5.415  13.242 -0.0327 -0.0440  0.3717
15498W        W31572  17.386   8.503  16.423  0.1858  0.0348 -0.1035
15499W        W31573   9.242   4.538   4.541 -0.0925  0.1127 -0.0900
15500W        W31574  10.076  13.120  15.038  0.0509 -0.1072  0.2244
15501W        W31575   9.457   9.457  15.808 -0.0624  0.2273 -0.0238
15502W        W31576  18.115  15.728  14.809 -0.1833 -0.2310 -0.1781
15503W        W31577   3.886   7.073  13.993  0.0155  0.1033  0.1807
15504W        W31578   8.572   3.888   6.371 -0.0565 -0.0244  0.1846
15505W        W31579  17.230  14.862   4.217  0.0565 -0.0374  0.1676
15506W        W31580   2.538   8.408  12.950  0.3851  0.1824 -0.1531
15507W        W31581   1.939  10.034  15.076 -0.1747  0.2065  0.0017
15508W        W31582  17.782   8.407   2.422 -0.1835 -0.1978  0.0812
15509W        W31583  12.605   3.342  14.594  0.0179 -0.2335 -0.1105
15510W        W31584   8.387   7.778  14.696  0.1796  0.2102  0.0975
15511W        W31585  15.693  15.013  13.110 -0.0188  0.5143 -0.2253
15512W        W31586   1.010  12.134   3.781 -0.0736 -0.3237  0.2768
15513W        W31587  12.946   9.136  16.032 -0.1021  0.0817  0.0528
15514W        W31588  17.653  16.779   4.814  0.2068  0.0407  0.3257
15515W        W31589   6.969   8.270  13.445  0.2084  0.2720 -0.0065
15516W        W31590  15.902  10.791   0.212  0.0846 -0.1586 -0.1958
15517W        W31591  17.136  12.722  13.471  0.0210  0.2322 -0.1505
15518W        W31592  10.241  10.751  11.235  0.3024  0.0252  0.0550
15519W        W31593   6.302   2.271   4.113 -0.2521  0.1827  0.0883
15520W        W31594   6.963  16.299   3.501 -0.1326  0.0346  0.2166
15521W        W31595   4.246  14.784   4.613  0.1971 -0.2923  0.0220
15522W        W31596  17.630   3.907   0.188  0.2986 -0.1424 -0.1614
15523W        W31597   0.162   7.495   4.299  0.2447  0.2167  0.2234
15524W        W31598  10.746   6.729   1.218  0.0919 -0.1641 -0.1404
15525W        W31599  16.333  17.587  12.202  0.1635 -0.3578  0.0270
15526W        W31600   9.189  13.106   2.209 -0.0273 -0.2664 -0.1307
15527W        W31601   5.626   3.593   4.094 -0.1256 -0.1278 -0.3577
15528W        W31602  12.813   6.319  14.015  0.0498 -0.1707  0.1214
15529W        W31603  13.456  11.732  11.388 -0.0356  0.1368 -0.0648
15530W        W31604  17.297   6.126   2.647  0.1016 -0.0545  0.0705
15531W        W31605  13.294   9.586   3.838 -0.0040  0.2406 -0.3304
15532W        W31606  11.932   5.071   2.982 -0.0932  0.2020 -0.0952
15533W        W31607  10.010   6.393  14.875 -0.0096  0.2682 -0.2874
15534W        W31608   3.259   8.433   1.033  0.0987  0.0818 -0.1564
15535W        W31609  10.140   7.880   3.899 -0.0880  0.4286  0.1021
15536W        W31610   3.527   9.393  12.898  0.3783  0.0791 -0.3645
15537W        W31611  10.956   3.335   3.068 -0.1526 -0.1677 -0.2503
15538W        W31612   9.258  11.157   4.047  0.2906  0.0956 -0.3502
15539W        W31613   5.341  17.684  11.589 -0.0309  0.2781 -0.0515
15540W        W31614   9.222  16.385  12.725  0.0575  0.1324  0.3749
15541W        W31615  13.973  14.404   0.132 -0.1362  0.0962 -0.0046
15542W        W31616   4.602   0.494   4.314 -0.4435 -0.0104 -0.1555
15543W        W31617  11.099  11.840  16.353 -0.0332 -0.3234  0.0299
15544W        W31618  10.927   1.631   1.975 -0.1925  0.0417 -0.1182
15545W        W31619  17.800   2.117   2.081 -0.1036  0.2529  0.0790
15546W        W31620   3.630  11.842   3.800  0.0527  0.0737  0.0907
15547W        W31621  14.451   1.784  13.271 -0.0445  0.0164 -0.0372
15548W        W31622  12.322   7.361   0.798  0.3873 -0.3263 -0.2489
15549W        W31623  18.052   5.656   1.384 -0.0484  0.1010 -0.1776
15550W        W31624   5.514   8.235   3.953  0.2275 -0.0375  0.1147
15551W        W31625   4.178   2.201  16.429  0.0011  0.1039  0.1222
15552W        W31626  12.314  14.068   2.252  0.0136 -0.1253 -0.1035
15553W        W31627   0.827   9.291  12.301 -0.1337  0.2257 -0.1169
15554W        W31628  15.241   0.002  14.427  0.0485 -0.0310 -0.2207
15555W        W31629  14.183   3.541   1.554  0.2015  0.0887  0.1230
15556W        W31630   5.945   8.213   1.176 -0.2911 -0.2887 -0.0662
15557W        W31631   8.473   9.326  14.067  0.0030  0.0283  0.1039
15558W        W31632  11.736   4.362   1.909  0.2107 -0.3247 -0.4178
15559W        W31633   2.528   4.960  13.582  0.0655 -0.1460  0.0232
15560W        W31634  12.067  11.032   2.837  0.1376 -0.2124  0.0923
15561W        W31635   4.320  15.602  13.887 -0.1903  0.0222 -0.1666
15562W        W31636   5.394  15.294  16.430 -0.1079 -0.3950  0.0005
15563W        W31637   6.102   6.794  12.115 -0.1165 -0.1923 -0.1478
15564W        W31638   8.269   5.672  12.517 -0.1242 -0.2230  0.1020
15565W        W31639   8.400   5.807   4.821  0.0763 -0.1346 -0.0204
15566W        W31640   9.721   7.402  13.759  0.2722  0.1209 -0.2882
15567W        W31641  16.604   8.716  15.071 -0.0128 -0.0216  0.2334
15568W        W31642  10.087  11.452  10.445  0.0399 -0.0037 -0.1310
15569W        W31643  10.788   7.859   0.048  0.0528 -0.0470 -0.7452
15570W        W31644   6.802  10.428   2.147 -0.1178  0.0346 -0.4523
15571W        W31645   0.298   6.750  13.682 -0.3035 -0.0175 -0.1503
15572W        W31646   5.683   8.762   0.088  0.1051 -0.0471 -0.1018
15573W        W31647  17.322   2.475   3.345  0.1873  0.1472 -0.0869
15574W        W31648  17.637   9.495  12.400 -0.3836  0.2444 -0.1580
15575W        W31649  12.713   4.837  14.577  0.2580 -0.0313 -0.1928
15576W        W31650   2.419   7.521   4.012  0.1764 -0.0247 -0.0862
15577W        W31651   3.613   4.824   3.146 -0.1194  0.0188 -0.0329
15578W        W31652   4.910  12.777   5.685 -0.0253 -0.2619  0.2751
15579W        W31653   0.448   5.885  13.397  0.1000  0.0053  0.0039
15580W        W31654  12.311  12.719   5.099  0.1513  0.0932  0.2669
15581W        W31655   7.061  11.521   2.854 -0.1368  0.0716 -0.1133
15582W        W31656  13.660   1.421  13.748 -0.1075 -0.1761  0.0695
15583W        W31657  18.103  11.559   2.983 -0.1174 -0.0324  0.2111
15584W        W31658   7.984   1.019   5.132 -0.1454 -0.2906 -0.2204
15585W        W31659  16.426   6.467  12.685  0.3599  0.1049  0.0011
15586W        W31660   6.860   5.013  15.947 -0.0378  0.1624 -0.0794
15587W        W31661  13.478  17.132  13.217 -0.0217  0.3069 -0.3331
15588W        W31662   0.896   2.055   2.996  0.2382  0.1417  0.0989
15589W        W31663   5.858   9.748   3.819  0.1162  0.1271  0.2648
15590W        W31664  15.982   0.210  11.750 -0.0151 -0.2033  0.0432
15591W        W31665   7.801   0.129   2.690  0.2768 -0.3221  0.2010
15592W        W31666   3.712   0.041   1.505 -0.0274 -0.2508  0.2229
15593W        W31667  17.080  13.017   2.786 -0.3702  0.3116 -0.1971
15594W        W31668   0.443   9.135  15.478 -0.3424  0.0815 -0.1008
15595W        W31669   6.047  10.035   1.517 -0.2242  0.0261 -0.2092
15596W        W31670  15.195   7.782  10.767  0.4130 -0.3400 -0.0908
15597W        W31671  12.559   1.494   1.349  0.1474  0.0417  0.0610
15598W        W31672  13.513   5.100  15.388  0.0079 -0.2348  0.2137
15599W        W31673   2.840  16.476  14.710 -0.4040  0.4112 -0.0700
15600W        W31674   4.288   9.780   3.392  0.1172 -0.0572 -0.1041
15601W        W31675   4.322   8.367   5.110  0.0847 -0.0471  0.0662
15602W        W31676   7.429  10.066  10.015 -0.2225 -0.1296  0.3795
15603W        W31677   8.890  14.061  14.931 -0.2170  0.3063 -0.0053
15604W        W31678   7.022   0.005  15.381  0.0358 -0.0418  0.0240
15605W        W31679   5.696   0.702  14.862 -0.0599  0.1787  0.1266
15606W        W31680  10.526   6.552   5.137 -0.1977  0.1892  0.0632
15607W        W31681   3.513   2.300  13.479 -0.0405 -0.1064  0.0929
15608W        W31682  16.741  14.094   1.298 -0.0236 -0.1159 -0.0028
15609W        W31683   8.854  13.556  14.292  0.0138 -0.3769  0.1242
15610W        W31684   8.395  15.236   1.078  0.1307  0.2870  0.0890
15611W        W31685   1.514  17.147  14.085 -0.0419  0.1391 -0.5245
15612W        W31686   8.209  16.340   2.650  0.0442  0.1462  0.1068
15613W        W31687   2.306  14.479  11.434  0.2376  0.0833 -0.2923
15614W        W31688  12.997  12.611   1.330  0.2646 -0.1761 -0.0490
15615W        W31689  16.502  13.097  13.004  0.1075  0.2144 -0.4324
15616W        W31690  16.059   2.215  12.526  0.2368  0.2145  0.3024
15617W        W31691   3.116  11.717  10.914  0.1247 -0.0964 -0.1525
15618W        W31692  17.419  18.115   2.892  0.1744 -0.2586  0.1272
15619W        W31693   4.723  17.691  11.744 -0.0395  0.2113 -0.3932
15620W        W31694   1.259  11.589  11.411  0.0378 -0.2680  0.1533
15621W        W31695   5.701   9.838  15.570  0.0242 -0.2546  0.0184
15622W        W31696  13.826  11.556   3.073 -0.1019 -0.1335 -0.0308
15623W        W31697   6.836   8.990   5.581 -0.1094 -0.2660  0.0141
15624W        W31698   8.108   8.264   4.621 -0.0721  0.0625  0.0699
15625W        W31699   8.277   7.344  12.311 -0.1915  0.2001  0.0898
15626W        W31700   9.828   3.138  12.986  0.0224 -0.1509  0.1945
15627W        W31701   8.546   8.568   4.444 -0.1235  0.2531  0.1729
15628W        W31702   3.805   3.668  11.256  0.0211 -0.4673  0.0617
15629W        W31703  16.564   4.177   6.352  0.3167  0.1098  0.0560
15630W        W31704  15.240   7.431   1.686  0.4156 -0.2127  0.1761
15631W        W31705  10.907   8.983   2.374 -0.0310 -0.0773  0.2250
15632W        W31706   5.287   6.779  13.006  0.1321 -0.3653 -0.0803
15633W        W31707  12.633  12.759   0.425  0.0045 -0.0979 -0.0412
15634W        W31708   5.093  14.991   2.771  0.0810 -0.0545 -0.0504
15635W        W31709  13.595   9.474   6.080 -0.1668 -0.2944 -0.2349
15636W        W31710  12.028   9.048   0.931  0.1378  0.2163 -0.1996
15637W        W31711   8.349  13.392  14.388  0.3596 -0.1699 -0.1817
15638W        W31712   4.502  16.256  13.862 -0.3663  0.2649 -0.0956
15639W        W31713   1.129  11.997   2.243  0.1618 -0.1559 -0.1536
15640W        W31714   6.918   8.757  13.303  0.2500  0.1264 -0.3304
15641W        W31715  12.628  17.228  12.489  0.3125  0.3291  0.1457
15642W        W31716  13.826  11.029  13.598  0.0024 -0.2783  0.0118
15643W        W31717   5.279   7.184   0.403  0.0233 -0.1179  0.0959
15644W        W31718  15.813  11.466  13.786 -0.1762  0.3530  0.2982
15645W        W31719   1.182   0.320  15.221  0.2830 -0.0973  0.1823
15646W        W31720   7.957   2.087   1.986 -0.0259  0.0825  0.3526
15647W        W31721  15.563   5.741  12.894  0.2500  0.0492 -0.0371
15648W        W31722   8.200   7.277   0.123  0.1310  0.1256  0.0501
15649W        W31723  14.846  11.685  10.394  0.2123 -0.1802 -0.0859
15650W        W31724   1.275  13.657  12.788 -0.0818  0.1743 -0.1758
15651W        W31725  13.291  12.598   3.554 -0.1967 -0.1863 -0.0685
15652W        W31726   3.335   2.462  15.847  0.1338  0.0665 -0.1368
15653W        W31727  13.392   7.020   0.607  0.2508  0.0051 -0.3257
15654W        W31728   1.368   7.249  15.765 -0.4185  0.2149 -0.2578
15655W        W31729   9.259   3.617  13.986 -0.0516 -0.0355  0.1722
15656W        W31730   1.496   5.166  12.962  0.1063 -0.5328  0.1348
15657W        W31731  11.741  10.581  12.561 -0.0234 -0.3358 -0.2321
15658W        W31732   2.579  10.266   1.722  0.0131 -0.2417  0.0456
15659W        W31733   1.636   6.780   4.198  0.0254  0.2393 -0.2831
15660W        W31734   2.262  17.467   3.981 -0.2193  0.1524  0.0416
15661W        W31735  11.369   3.567   5.250  0.0521  0.4006 -0.0497
15662W        W31736   1.234   2.180  13.157  0.0787 -0.1393  0.0085
15663W        W31737  13.593   7.312  14.644  0.0902  0.0178  0.0263
15664W        W31738  10.362   8.111   2.507 -0.1019  0.3791  0.2197
15665W        W31739  16.082  15.783  15.916 -0.0655 -0.1133  0.2697
15666W        W31740   4.378  16.186   1.043 -0.2324 -0.1340  0.1525
15667W        W31741   1.187  12.889   1.353  0.0501  0.1528  0.1781
15668W        W31742  12.377   3.466  12.906 -0.0630 -0.1558  0.3429
15669W        W31743   3.430   8.537  12.188  0.3145  0.2288  0.0124
15670W        W31744  12.878  14.107   4.715 -0.2337  0.5655 -0.2863
15671W        W31745   2.508   1.609   0.629 -0.0433  0.2926  0.4275
15672W        W31746  14.137   0.473  13.841 -0.3356 -0.1439 -0.0996
15673W        W31747   7.576   5.218  12.585  0.3211 -0.3370  0.2552
15674W        W31748  12.610   3.728   1.252 -0.1517 -0.1048  0.0527
15675W        W31749   0.341  13.173  12.868  0.1285 -0.0911  0.2357
15676W        W31750  15.913  13.871   2.629 -0.1551  0.1156  0.0027
15677W        W31751  10.032  10.793   4.625 -0.0713  0.1098  0.0176
15678W        W31752  14.940   1.516  11.374 -0.3267 -0.3680 -0.2586
15679W        W31753   8.444  15.393   2.538  0.0935 -0.2024  0.1902
15680W        W31754  11.129  16.595  12.439 -0.1053 -0.1597  0.0343
15681W        W31755   6.101   2.395   5.744  0.0240 -0.1249 -0.0587
15682W        W31756   9.696   2.923   2.365  0.5385  0.1245  0.0056
15683W        W31757  13.703   4.669   3.576 -0.1159  0.1691  0.0414
15684W        W31758   5.688  12.030  13.787 -0.3624  0.0328  0.3041
15685W        W31759  10.577  18.043   2.600  0.1710  0.0389 -0.1117
15686W        W31760  14.373  15.295  14.733  0.2890 -0.1448  0.1228
15687W        W31761  17.592   7.661  11.594 -0.1977  0.0783  0.1413
15688W        W31762   9.482   2.423   4.902  0.5193  0.0225  0.0265
15689W        W31763  13.565  15.572   0.469 -0.2391  0.0700 -0.2170
15690W        W31764  12.813  11.710   4.547  0.1524  0.0635  0.0256
15691W        W31765   7.966   1.687   4.472  0.2606 -0.0822  0.2517
15692W        W31766   7.905   3.934   0.768 -0.0965 -0.0596 -0.1534
15693W        W31767   2.052  11.686  12.948  0.1011 -0.0287 -0.0842
15694W        W31768  11.937   6.116  13.915 -0.0419 -0.1353 -0.1716
15695W        W31769   0.191  10.720   0.506 -0.0857 -0.0555 -0.0304
15696W        W31770  13.046  15.947   0.160  0.1524 -0.0702  0.2240
15697W        W31771  17.487  12.337  10.746  0.0878 -0.1105  0.1641
15698W        W31772  11.805  12.309  11.751  0.0102 -0.1315  0.0633
15699W        W31773  15.992  12.618   4.059 -0.0404  0.1924  0.1752
15700W        W31774  10.206  16.453   1.172  0.0852  0.0511  0.0442
15701W        W31775   1.423  18.161  15.467  0.0003  0.0637 -0.0490
15702W        W31776  11.499  15.255   1.499 -0.0622 -0.3098  0.0343
15703W        W31777  11.371  14.343   0.109  0.1527 -0.2199 -0.2193
15704W        W31778  13.196   6.082   3.300  0.2575  0.0982  0.1970
15705W        W31779  15.306  14.867   1.610  0.2438  0.1306  0.0668
15706W        W31780   1.076  10.529  15.900 -0.5365 -0.1871  0.1896
15707W        W31781  15.755  17.867   4.209 -0.1820 -0.3766 -0.3502
15708W        W31782   3.919   2.657  15.039 -0.0902  0.1011 -0.2359
15709W        W31783   0.737  11.627  15.873 -0.0298  0.1598  0.0746
15710W        W31784   3.466  14.519   2.280 -0.2248 -0.1108  0.1133
15711W        W31785   6.422   2.420   4.599  0.0426  0.0785 -0.1801
15712W        W31786   2.924  16.357   3.692 -0.1753 -0.2495  0.0685
15713W        W31787   0.722  16.863   9.958 -0.2836  0.1790  0.1851
15714W        W31788  13.920  17.881   5.442 -0.2477  0.0049  0.0785
15715W        W31789   6.365  15.794  14.506  0.2356 -0.2088 -0.0760
15716W        W31790  15.159  10.381   2.964  0.3524  0.1542 -0.2124
15717W        W31791   2.723  10.844   1.794 -0.1525 -0.1905  0.1153
15718W        W31792  11.973   8.578   4.597  0.3356 -0.2113 -0.0443
15719W        W31793  11.460  13.915  13.912  0.2453  0.0727  0.0117
15720W        W31794   3.304  17.109   1.187 -0.2255  0.2581  0.1596
15721W        W31795  11.937  11.424   4.744  0.0497 -0.1844 -0.1634
15722W        W31796  17.240  18.022   2.164 -0.2125  0.0928 -0.1418
15723W        W31797  16.466   6.988   0.493  0.3794  0.0170 -0.1049
15724W        W31798   4.103  12.470  12.359 -0.1222 -0.0933 -0.3357
15725W        W31799   6.726   5.605   3.944 -0.1327  0.0431 -0.1978
15726W        W31800  10.593   3.796  15.511 -0.0928 -0.3296  0.0502
15727W        W31801   1.247  17.632   2.806 -0.1941  0.1410 -0.0578
15728W        W31802  15.482   8.108   2.392 -0.0638 -0.2318  0.2433
15729W        W31803  11.889  15.896  14.602  0.1776 -0.3476  0.0321
15730W        W31804  16.771   8.266  13.009 -0.0775  0.4881 -0.0211
15731W        W31805   8.783  15.485   3.837 -0.2353  0.0152 -0.0619
15732W        W31806  13.297   2.659   4.937  0.0557 -0.1270  0.1155
15733W        W31807   1.236  10.259  10.412 -0.2029  0.2391 -0.3180
15734W        W31808  13.173   1.959   1.698 -0.0021 -0.1458 -0.1288
15735W        W31809  12.226   3.521   1.498 -0.1531 -0.0091  0.3749
15736W        W31810  10.955  17.322  16.242  0.1303  0.4925  0.2011
15737W        W31811   9.005  10.021   5.582  0.0968 -0.0070  0.3080
15738W        W31812  13.869   7.303   4.110  0.1124 -0.0732 -0.0544
15739W        W31813   1.731   6.062  15.345 -0.1720  0.0230 -0.1782
15740W        W31814  12.211  11.520   3.136  0.0229  0.1651  0.1923
15741W        W31815   5.965   7.385   2.695  0.0501  0.0580  0.1334
15742W        W31816  18.035   7.257  15.530  0.0685 -0.4149 -0.3232
15743W        W31817   1.254  11.012  16.043  0.2405 -0.0186  0.4051
15744W        W31818  11.171  12.996  14.011 -0.2519  0.0106  0.0105
15745W        W31819   7.698   9.274  12.868 -0.0933 -0.0985 -0.0242
15746W        W31820  17.934  13.505  14.913  0.4240  0.2908  0.0350
15747W        W31821  15.082   1.377   0.502  0.2222 -0.0049  0.0895
15748W        W31822   2.930   9.941   0.816  0.1126  0.2328  0.0161
15749W        W31823  13.944   9.729  12.889  0.2845  0.1580  0.0402
15750W        W31824  11.344   6.870   5.259  0.0861 -0.1207 -0.0297
15751W        W31825   2.776   4.803  14.008 -0.1211 -0.1192 -0.0095
15752W        W31826   3.911   9.650  10.655  0.3338 -0.1310  0.0054
15753W        W31827   0.945  17.479   1.408  0.0373 -0.2987  0.1213
15754W        W31828  17.052   5.484   5.442  0.1746  0.0130 -0.1176
15755W        W31829  14.024  16.391   4.062 -0.2122  0.2083 -0.0630
15756W        W31830   1.824   9.686  15.364 -0.0198  0.0189  0.1409
15757W        W31831   7.171  15.110   4.145  0.1011  0.0798  0.2045
15758W        W31832   4.463  12.915   1.112 -0.0929  0.0125  0.0805
15759W        W31833   7.241  10.830   5.977 -0.1950 -0.1075 -0.0574
15760W        W31834  15.818   8.447   1.025 -0.0278 -0.1655  0.0219
15761W        W31835   0.189   9.573  13.803 -0.2821  0.2563  0.0724
15762W        W31836   3.947   8.538  12.157 -0.0023 -0.0828  0.2421
15763W        W31837   8.281   6.472  15.770 -0.0553 -0.0784  0.0360
15764W        W31838   2.516   1.794   3.804 -0.1034  0.0486  0.2140
15765W        W31839   1.150  15.798  13.451  0.2864  0.1055  0.1348
15766W        W31840  15.908  11.107   0.544  0.0632  0.0519 -0.1808
15767W        W31841  14.745   4.756   1.928  0.0622  0.1861  0.0187
15768W        W31842   2.887   0.022  13.135  0.1127 -0.1859  0.3330
15769W        W31843   9.663   2.817   4.534 -0.2187  0.0708 -0.4824
15770W        W31844   5.491  13.730   0.762  0.1696  0.0178 -0.3984
15771W        W31845  10.368  13.137   4.801  0.1062  0.1794 -0.3893
15772W        W31846  14.733   1.661  12.424 -0.0032  0.1430 -0.0176
15773W        W31847  15.613   2.683   4.161  0.0679 -0.1528 -0.0729
15774W        W31848   8.991  14.414  15.945 -0.1089  0.0848  0.0518
15775W        W31849  16.578   5.959  12.619 -0.1604 -0.2541  0.2417
15776W        W31850  18.028  12.236   2.463 -0.0242  0.0127  0.2445
15777W        W31851  13.726   9.985  14.281  0.1638  0.1310  0.1827
15778W        W31852  12.119  16.067  13.659 -0.4164 -0.1316 -0.1379
15779W        W31853   3.808  16.497  15.675  0.0585 -0.0800  0.0869
15780W        W31854   9.106   4.693   3.171  0.1426  0.1732 -0.2214
15781W        W31855   7.971  16.516  16.457  0.2068  0.1486  0.1327
15782W        W31856   1.772  15.064  12.577  0.0167  0.2248  0.0886
15783W        W31857   0.129   8.740  14.086 -0.0429  0.2414 -0.3609
15784W        W31858  11.865   6.338   3.191  0.1557 -0.0178 -0.1884
15785W        W31859  10.013   9.472  16.048 -0.2007  0.2436  0.1818
15786W        W31860  11.025   4.732  13.997 -0.1094  0.0372  0.1531
15787W        W31861  11.654  17.661   6.568  0.0764  0.0794  0.0537
15788W        W31862  10.457   6.707  16.334  0.0529  0.1094  0.0557
15789W        W31863   0.806   8.992  14.115  0.0402  0.2585 -0.1925
15790W        W31864   0.496   3.427   2.842 -0.0133  0.0282  0.1136
15791W        W31865   1.654   5.589  13.998  0.0398 -0.0581  0.4336
15792W        W31866   5.171  10.075  12.883 -0.2407  0.0298  0.2071
15793W        W31867   4.623  10.999   3.152 -0.1494 -0.0854  0.3012
15794W        W31868  17.845  14.626   4.988  0.3116 -0.2186  0.1800
15795W        W31869   6.392   3.959  14.234  0.0300 -0.0657 -0.0120
15796W        W31870  17.536  15.322  11.474  0.2135  0.0169  0.0509
15797W        W31871   7.826   5.919  11.736  0.0293 -0.1402 -0.0083
15798W        W31872  13.615  10.759  13.952 -0.3281  0.1887 -0.3749
15799W        W31873   7.797  17.686   0.174  0.1537 -0.1673 -0.0781
15800W        W31874   1.035  12.536  13.679  0.0023  0.1204  0.1073
15801W        W31875  15.211   9.832  11.392 -0.0079  0.0977  0.1036
15802W        W31876  14.941   7.879  14.531 -0.3004 -0.2265  0.0021
15803W        W31877   0.390  12.468  13.978  0.2194 -0.0218 -0.4451
15804W        W31878  14.083  15.792  11.935  0.0801  0.1493 -0.1804
15805W        W31879  11.624  17.130  13.646  0.3131  0.1494  0.1577
15806W        W31880  18.008   4.083  16.392 -0.3868  0.0054  0.1183
15807W        W31881  16.345   2.142   0.124  0.1511 -0.0387 -0.0536
15808W        W31882   0.853  14.863  15.489  0.1667  0.0955 -0.2896
15809W        W31883   8.363   9.385  15.114  0.0570  0.0542 -0.0814
15810W        W31884   9.652   7.653  15.676  0.0727 -0.2057  0.1196
15811W        W31885   3.780   3.866   1.187  0.1289  0.0113  0.0083
15812W        W31886   8.965  14.541   5.400 -0.3025  0.0404  0.3414
15813W        W31887   9.661  17.165  15.244 -0.0117 -0.0672  0.0535
15814W        W31888   9.372   1.778  12.041 -0.1713  0.1388 -0.2440
15815W        W31889   2.022  11.479   4.364  0.1742  0.1800 -0.2969
15816W        W31890  18.014  10.288  13.688  0.1671  0.1546 -0.0428
15817W        W31891  14.004   7.914   2.770 -0.0869  0.2153 -0.2736
15818W        W31892  12.962   4.214   4.954  0.0185  0.2146 -0.3966
15819W        W31893   5.573  10.584  16.119 -0.0592 -0.2197  0.2669
15820W        W31894  12.320  14.007   2.923  0.0880 -0.1615 -0.2490
15821W        W31895  13.112   3.553  11.691  0.0070  0.1818 -0.0547
15822W        W31896   6.977   2.827  13.332 -0.0679  0.1858  0.2873
15823W        W31897   4.239  14.232   0.587 -0.0331  0.2521  0.1604
15824W        W31898  11.860   1.704   1.996 -0.1898  0.1878 -0.1441
15825W        W31899  13.999   7.759  13.532  0.0661 -0.2576 -0.2610
15826W        W31900   2.108  14.988  14.550 -0.0645 -0.2521 -0.0486
15827W        W31901   4.481  14.926  12.435  0.0485 -0.2799  0.0378
15828W        W31902   3.268  11.468  16.476 -0.3036 -0.2103 -0.0118
15829W        W31903   3.486   6.268   6.079  0.1743 -0.2131 -0.2641
15830W        W31904  13.515  11.775  14.579 -0.0435  0.0937 -0.1735
15831W        W31905  11.156   3.103  12.693  0.1444  0.1478 -0.0193
15832W        W31906   4.516   6.701   3.370  0.0938 -0.3097  0.0443
15833W        W31907   8.910  18.037   4.491  0.1271  0.1026  0.1557
15834W        W31908   1.989  16.661   1.266  0.0425  0.1231  0.0844
15835W        W31909  15.176   5.663   1.784  0.0205  0.1337  0.0067
15836W        W31910   2.678  11.154   3.540 -0.0371 -0.2969  0.2271
15837W        W31911  16.984   2.445   2.113  0.1238  0.2184  0.2637
15838W        W31912   0.789   4.658  12.042  0.1001 -0.1088  0.0831
15839W        W31913   4.758  17.671  15.074 -0.2547 -0.0145 -0.1134
15840W        W31914  12.106   3.989   6.413  0.0645 -0.0090  0.2368
15841W        W31915   6.678  11.889  10.318 -0.0163  0.1192  0.2836
15842W        W31916   6.811  15.211   5.835  0.3131  0.0195  0.2894
15843W        W31917   7.442  13.658   0.284  0.0057  0.3274 -0.3067
15844W        W31918  11.311   4.219   3.281  0.2842 -0.2194  0.0210
15845W        W31919   3.725  10.946   2.081  0.4637  0.2626 -0.0611
15846W        W31920   1.704   6.370   4.410  0.2477 -0.1053 -0.1804
15847W        W31921  11.346  12.617   3.780  0.2263 -0.2974 -0.0097
15848W        W31922   6.555  11.789  12.150 -0.0160 -0.3312  0.0236
15849W        W31923  17.197   5.037   3.635 -0.3897  0.2567  0.1002
15850W        W31924  15.309   3.856  14.692 -0.2327  0.0184  0.0153
15851W        W31925   3.040  16.044  15.631 -0.0112 -0.3270 -0.3047
15852W        W31926  11.886   0.962  12.826 -0.4331 -0.2921  0.2630
15853W        W31927  11.880  14.278   3.108  0.0172  0.1117 -0.0830
15854W        W31928   5.611  16.167   5.369 -0.2022  0.1518  0.2280
15855W        W31929  16.475   2.044  14.054 -0.1794  0.1316  0.0362
15856W        W31930   8.461  16.625  15.751 -0.1594 -0.0672 -0.0603
15857W        W31931   6.764  11.285   4.445  0.0029  0.1219  0.1385
15858W        W31932  15.924  17.658   5.731 -0.1187  0.1161  0.0458
15859W        W31933  15.972   6.465   4.212  0.0643 -0.2421 -0.4823
15860W        W31934   8.492  10.765   2.858  0.1688  0.1370 -0.0577
15861W        W31935  13.080   4.779  11.672  0.1616 -0.1047  0.1037
15862W        W31936  15.123   0.493  12.068 -0.1135 -0.0097  0.0719
15863W        W31937  17.322   0.023  14.124 -0.2064  0.1470 -0.1246
15864W        W31938   5.593  12.306   5.455  0.0298  0.2492  0.0042
15865W        W31939   7.076  15.350   2.070  0.1675 -0.2728 -0.2459
15866W        W31940   1.359  10.805   3.331 -0.1259 -0.0746 -0.2362
15867W        W31941   5.040  12.525  15.910  0.0742 -0.2204  0.1724
15868W        W31942  13.226   8.070   3.360  0.1352 -0.2169  0.1812
15869W        W31943   7.763   5.450   0.251 -0.1767  0.0134  0.0037
15870W        W31944   4.797  17.842  12.222  0.0956 -0.1373  0.0843
15871W        W31945   8.887  10.089  13.560 -0.4790 -0.0157 -0.3250
15872W        W31946   4.303   6.403   0.495 -0.0515  0.3290  0.2345
15873W        W31947   4.933   6.233   2.670  0.0852  0.1033  0.0983
15874W        W31948  10.480  12.376  13.149 -0.1297  0.1417  0.2167
15875W        W31949   9.310   9.751   1.463 -0.2033 -0.0291 -0.0090
15876W        W31950   9.552   4.738   3.512  0.0357 -0.1641  0.0969
15877W        W31951  16.778  17.625   1.817 -0.0445 -0.1191  0.0346
15878W        W31952  18.170  11.111  11.041 -0.3229 -0.0468  0.1274
15879W        W31953   6.142   9.279   0.964 -0.1645  0.0398  0.1826
15880W        W31954  14.474   3.001  11.940  0.0304  0.0562  0.2065
15881W        W31955  14.382   2.930  12.622 -0.0061  0.2138  0.0013
15882W        W31956  13.151   7.142   1.372  0.3967 -0.1570 -0.0051
15883W        W31957  12.456  10.189   3.973  0.0714  0.0067  0.0058
15884W        W31958  10.613   5.068   2.112  0.1590  0.1474  0.2385
15885W        W31959   0.391   9.931   2.086 -0.1305  0.0818 -0.5258
15886W        W31960   7.618   8.373   3.800 -0.0608  0.2922 -0.3721
15887W        W31961   9.301  15.456   4.727  0.0185  0.3264  0.0178
15888W        W31962   2.188  16.374   1.946 -0.0130 -0.0378  0.0219
15889W        W31963   4.936   4.349   2.873 -0.0901  0.3147 -0.0232
15890W        W31964  13.339  12.695  14.741 -0.2532  0.0590 -0.1726
15891W        W31965   3.843  17.519  12.933  0.3356  0.2491  0.1635
15892W        W31966   2.382   4.200  14.305  0.3670 -0.2095  0.1352
15893W        W31967  15.233   7.959  16.433  0.4333 -0.0590  0.0227
15894W        W31968  15.979  14.962   3.547  0.0884  0.0563  0.0048
15895W        W31969   4.634  16.609   0.172 -0.0723  0.0116 -0.2987
15896W        W31970  12.889  16.290   4.176 -0.3798 -0.1586 -0.0756
15897W        W31971  12.657   1.346   4.922  0.0205  0.2329  0.0733
15898W        W31972  17.842  10.992  12.452 -0.4518 -0.0715 -0.1546
15899W        W31973   8.673  10.516   0.165  0.0165  0.2872 -0.1267
15900W        W31974  13.423  10.866   3.665 -0.0999 -0.2818 -0.2270
15901W        W31975  15.798   1.333   6.404 -0.0708  0.0167  0.0251
15902W        W31976  14.038  14.484  14.032  0.1064 -0.2498  0.1704
15903W        W31977  11.973   6.623   3.610  0.3229 -0.0263  0.0408
15904W        W31978   3.148  13.189  15.814 -0.1945  0.0068  0.0057
15905W        W31979  17.987   5.558   4.245 -0.0297  0.0163 -0.2997
15906W        W31980   0.754  10.255  14.257  0.0642 -0.0788  0.1897
15907W        W31981   2.836   8.280   3.831  0.0856 -0.1222 -0.2359
15908W        W31982   0.958   0.300   0.779  0.0763 -0.0296  0.1137
15909W        W31983  11.648  12.824   3.425 -0.2858  0.1433  0.1874
15910W        W31984  16.850  14.751   1.612 -0.0033 -0.0987  0.1893
15911W        W31985  13.953   1.124  12.630  0.1483  0.2068  0.0212
15912W        W31986   8.924  14.026   5.444  0.2290 -0.1536 -0.0625
15913W        W31987   3.025  14.023  15.151 -0.4155 -0.2182  0.0275
15914W        W31988  16.509   2.891  13.180 -0.2459  0.1620 -0.0382
15915W        W31989  14.504   0.481   4.546  0.1861 -0.2176  0.1873
15916W        W31990  16.194  11.564  11.872  0.0097  0.1462 -0.1908
15917W        W31991  16.010   9.955   0.968  0.0164  0.0900 -0.1261
15918W        W31992  11.791   4.573   3.272  0.2186  0.0358  0.1393
15919W        W31993  18.127   8.862  16.213  0.2390 -0.0140 -0.0464
15920W        W31994   2.347   9.288   3.568  0.4102 -0.0924 -0.0308
15921W        W31995   1.422  16.209  13.380  0.0882  0.1159  0.0700
15922W        W31996  12.960   4.145   3.152  0.0727 -0.2934  0.0510
15923W        W31997  11.271  16.162  16.391 -0.1386  0.0239 -0.1341
15924W        W31998  11.462  10.776  15.462  0.1009 -0.0688 -0.0986
15925W        W31999  15.575  15.722  15.842  0.3984 -0.0520  0.0586
15926W        W32000  16.325  17.454   1.586  0.0502  0.0136 -0.1604
15927W        W32001  16.081   5.770  15.905 -0.2399 -0.1850  0.0734
15928W        W32002  15.987   7.121  15.964 -0.1925 -0.0164  0.0574
15929W        W32003  16.797  15.283   0.261 -0.3438 -0.0161  0.1766
15930W        W32004   7.108  17.457   4.406 -0.1384 -0.1179  0.0121
15931W        W32005   1.349  17.061  13.595  0.1739 -0.2017 -0.0047
15932W        W32006   8.836  16.215   4.460 -0.1038  0.2718  0.3377
15933W        W32007  17.780  16.952  12.350  0.0826 -0.1114  0.0369
15934W        W32008   0.512   3.070  11.974  0.3603 -0.1683 -0.1561
15935W        W32009  15.535  14.725   4.959  0.3681 -0.1567 -0.0257
15936W        W32010  16.421  11.160  12.146 -0.0181 -0.0345 -0.0539
15937W        W32011  18.076  14.777  16.244 -0.3241 -0.1732  0.1988
15938W        W32012   5.612  12.006   1.177 -0.2397  0.1083  0.0417
15939W        W32013   1.765  14.303   5.400  0.3547 -0.4894 -0.0482
15940W        W32014   5.107  11.465   2.628 -0.2177 -0.2982  0.3327
15941W        W32015   0.308   5.679   5.480 -0.0024  0.1156  0.1598
15942W        W32016  16.007   0.303   2.456  0.2376  0.1484  0.1101
15943W        W32017   2.514   9.752  16.076  0.1592  0.0166 -0.0453
15944W        W32018  11.667   4.796   3.801 -0.4178  0.0327 -0.0226
15945W        W32019  13.290  15.856   6.210  0.1396 -0.0753  0.1237
15946W        W32020  13.782   4.202   1.027  0.2255 -0.2089 -0.0531
15947W        W32021   5.805   4.089   2.704 -0.2492  0.0127 -0.0044
15948W        W32022  12.336  14.181  11.800 -0.1723  0.1137 -0.4788
15949W        W32023  15.481   1.158  16.408  0.0135 -0.1956  0.2133
15950W        W32024  14.880   6.567  15.803  0.3347  0.2031 -0.4665
15951W        W32025  11.428   1.194  15.218  0.1360  0.1572 -0.2301
15952W        W32026   1.062   3.131  11.547  0.3149 -0.0288  0.2293
15953W        W32027   6.960  11.747   4.638  0.0489  0.2564  0.2249
15954W        W32028  11.672  16.787  14.193 -0.0062  0.0649 -0.3222
15955W        W32029   7.460  13.625   5.209  0.0055  0.2769  0.3039
15956W        W32030   7.960   4.784  14.281  0.3655  0.0483 -0.1040
15957W        W32031   6.535  13.072  15.906  0.0241  0.0607  0.0137
15958W        W32032   7.768  10.158   2.235  0.0326  0.3939  0.0001
15959W        W32033   2.774  18.153  10.974  0.0150  0.0326 -0.1718
15960W        W32034  17.102  10.642   2.844 -0.0411 -0.2578  0.0334
15961W        W32035   5.683   0.967  15.448  0.0045 -0.0820  0.1680
15962W        W32036  11.491  18.149   4.477  0.0129  0.0654  0.0928
15963W        W32037   1.253   3.491  11.971 -0.1708  0.2906 -0.0839
15964W        W32038   5.589  17.985   2.024 -0.1876 -0.0743 -0.0070
15965W        W32039   5.331   9.133  12.493 -0.2851 -0.0045  0.1122
15966W        W32040   6.982  11.129  13.731 -0.2546 -0.2040  0.0162
15967W        W32041  15.478  15.284   4.078 -0.2337  0.1998 -0.2825
15968W        W32042   6.503   7.268  15.711  0.1885  0.5289 -0.0205
15969W        W32043  14.700   8.656  16.094 -0.0471 -0.2655  0.0890
15970W        W32044  11.878   1.411  15.372 -0.1001 -0.1587 -0.0410
15971W        W32045  10.271   9.555  13.467  0.1717  0.1159  0.2095
15972W        W32046   6.289  17.694   3.479 -0.3059 -0.1873  0.3191
15973W        W32047   7.507   4.759   6.194  0.0175 -0.1617  0.0119
15974W        W32048   1.108   0.221  13.669  0.0164  0.0355 -0.1191
15975W        W32049  15.838  13.756   3.090 -0.0944 -0.0381 -0.0305
15976W        W32050   9.258  16.752   2.719 -0.1444  0.1080  0.0841
15977W        W32051   8.653  17.441   4.882  0.0798  0.2096 -0.1371
15978W        W32052  18.247   1.947   3.443 -0.1364  0.2363 -0.0658
15979W        W32053  15.907   7.979   2.716  0.0200  0.2199 -0.2015
15980W        W32054   6.033   8.159   4.202  0.0142 -0.2571 -0.1244
15981W        W32055  11.981   1.704   3.873  0.2577 -0.0199  0.3722
15982W        W32056  14.966   7.004   4.980 -0.1562  0.1240 -0.1634
15983W        W32057   2.617   7.843  10.325  0.2339  0.0648 -0.2370
15984W        W32058   4.376   1.968  11.949  0.2914 -0.0336 -0.1320
15985W        W32059  11.227   3.542  11.947 -0.0940  0.3280 -0.0022
15986W        W32060  17.378  11.819   2.878  0.3373  0.0262  0.0166
15987W        W32061   2.972   2.218  13.543  0.0564 -0.1668  0.2188
15988W        W32062   0.796   3.606  11.267 -0.0834 -0.0812  0.0282
15989W        W32063   4.949  11.242  11.369  0.0607 -0.3625  0.1847
15990W        W32064   9.197  10.438   0.964 -0.2217  0.1754 -0.3790
15991W        W32065   2.784   5.399  16.155  0.1865 -0.3539 -0.1890
15992W        W32066   8.361   6.432   0.641  0.1579 -0.0723 -0.0363
15993W        W32067   4.200  14.621   5.415  0.0025  0.1847  0.4382
15994W        W32068   3.534  11.260  11.195  0.0592  0.2099  0.0108
15995W        W32069   8.350  15.721   5.100 -0.2286  0.1505 -0.3120
15996W        W32070   1.966   3.035  15.362 -0.0357 -0.0369  0.0361
15997W        W32071   5.349   5.438   0.102  0.0720  0.0961  0.0267
15998W        W32072   9.813   0.686  12.315  0.0848  0.2298 -0.1188
15999W        W32073  13.577   1.300  12.997  0.0703  0.1000  0.2261
16000W        W32074  15.790   6.397  13.795  0.2239  0.0397  0.0745
16001W        W32075   7.731   8.912   3.988 -0.2278  0.1211  0.0424
16002W        W32076  12.051   0.407  15.205  0.0032  0.1023 -0.3110
16003W        W32077   3.013   5.570  15.105 -0.2164  0.0820  0.0857
16004W        W32078  13.268   6.421   4.318  0.1846  0.4392 -0.5615
16005W        W32079  11.434   5.446  12.396 -0.1059 -0.0130  0.2238
16006W        W32080   3.836  17.518  11.979  0.3447 -0.1849 -0.0704
16007W        W32081   6.235   4.143   0.462 -0.3979  0.1858 -0.0013
16008W        W32082  12.981  16.041   1.226 -0.0651 -0.0774  0.2765
16009W        W32083   7.567  17.779  12.132 -0.0824 -0.0350 -0.1774
16010W        W32084  15.919   8.606  12.780  0.0542  0.0959 -0.0638
16011W        W32085  10.353  11.471   1.286 -0.1288 -0.0706  0.0333
16012W        W32086   4.322   7.318  15.098  0.3301 -0.2247  0.1919
16013W        W32087   0.462  17.158   2.431  0.1461 -0.2949  0.1112
16014W        W32088  10.280  11.133   4.950  0.2405 -0.1529  0.1163
16015W        W32089  12.553   2.780  13.837  0.0474  0.1681  0.0683
16016W        W32090  11.008   2.980  15.499  0.1078 -0.0119 -0.0813
16017W        W32091  13.578   9.353  11.682  0.0033 -0.1538 -0.0500
16018W        W32092  17.167   6.679   0.342  0.0808  0.0178 -0.1104
16019W        W32093   2.963  15.345  14.595  0.0376  0.1127  0.0649
16020W        W32094   3.791  13.866  14.864  0.0199  0.0668 -0.0771
16021W        W32095   9.285  16.479   3.192  0.4032  0.0187 -0.2695
16022W        W32096  12.702  12.299   2.720 -0.1723  0.3043  0.0168
16023W        W32097   3.238  12.274   3.224 -0.0409  0.3643 -0.2221
16024W        W32098  16.783  16.574  14.816 -0.0365 -0.2619  0.1880
16025W        W32099   9.075  14.884   6.119 -0.1377 -0.2789 -0.0558
16026W        W32100   8.025  14.438   1.242  0.4743  0.1559  0.0419
16027W        W32101   7.319  15.986  13.964  0.2246 -0.3207 -0.0593
16028W        W32102  17.449   5.348   0.391  0.1670  0.1030 -0.1710
16029W        W32103   6.951   5.547  15.074 -0.1840  0.2596 -0.2601
16030W        W32104  15.244   4.247  12.249 -0.0513  0.2754 -0.3418
16031W        W32105   9.812   5.692   3.999  0.0016  0.0024  0.0074
16032W        W32106   7.524   2.058  15.333  0.1942  0.1662  0.0555
16033W        W32107   9.331  17.535  15.129  0.1822  0.0187 -0.1467
16034W        W32108  12.931  11.543   1.039 -0.0645 -0.2321 -0.1306
16035W        W32109  15.654   9.670   2.734 -0.0717 -0.0678  0.3330
16036W        W32110   8.529   7.977  13.965  0.0117 -0.0112  0.1243
16037W        W32111   1.506   7.000   5.442  0.1620 -0.0166  0.2234
16038W        W32112   8.853  12.760   2.178 -0.0043  0.0907  0.1329
16039W        W32113   7.206  10.686  10.549  0.1486  0.3303 -0.0926
16040W        W32114  14.325  16.817   1.256 -0.0365  0.0217  0.0726
16041W        W32115   3.323  14.622   4.749  0.0319  0.0948 -0.1704
16042W        W32116  16.279   3.178   2.790 -0.3853 -0.0153  0.2716
16043W        W32117  15.212  16.948  13.222  0.2721 -0.4868  0.1331
16044W        W32118  16.378   5.913  14.328 -0.3021  0.1801 -0.2022
16045W        W32119  15.403  10.321   4.574 -0.0137  0.0858 -0.2304
16046W        W32120  13.262  17.992   2.426 -0.0403 -0.0349 -0.1829
16047W        W32121   2.244   0.808  12.739  0.0740 -0.0204  0.1755
16048W        W32122  13.770  16.280  13.798 -0.1246  0.4236 -0.0641
16049W        W32123  10.013   1.550   5.286 -0.0116  0.0985 -0.0257
16050W        W32124  17.885  12.002  12.254  0.3159  0.1865  0.3458
16051W        W32125   7.193  16.772   3.373 -0.0647 -0.0427 -0.1053
16052W        W32126  11.451   1.744  11.902  0.2080  0.1196 -0.0194
16053W        W32127   1.775   9.137  10.776  0.2532  0.2568  0.0003
16054W        W32128   8.325  13.072  14.022 -0.1729  0.0733 -0.0719
16055W        W32129   6.831  10.273   1.601 -0.2254  0.0861 -0.1723
16056W        W32130   7.308  14.574   3.792  0.0248 -0.0144 -0.1154
16057W        W32131   7.403   9.553  11.539  0.2634 -0.2129 -0.1413
16058W        W32132   2.084   4.583   4.480 -0.2715  0.1373  0.3109
16059W        W32133   6.595   6.122   0.467  0.0569 -0.0382  0.1819
16060W        W32134  14.598  15.354   4.343 -0.2597  0.2462  0.3144
16061W        W32135  16.071   6.260  12.364  0.0442 -0.0302 -0.1435
16062W        W32136   7.327  10.823  16.156  0.0048 -0.1088 -0.5170
16063W        W32137   9.904  12.976   2.708 -0.0018 -0.1906  0.2430
16064W        W32138  13.748   3.185  16.297 -0.1175 -0.2718 -0.1380
16065W        W32139   6.883   0.841   6.486  0.0867  0.1683  0.0258
16066W        W32140  17.773  16.346   2.303 -0.3189 -0.0576 -0.1430
16067W        W32141   6.961   2.228   2.511  0.3306  0.3340  0.0891
16068W        W32142  14.970  13.979   2.875  0.1307 -0.2978 -0.4282
16069W        W32143   6.466   6.252  14.117  0.1936  0.1083  0.4108
16070W        W32144  10.238   7.089   0.309  0.1263  0.3336 -0.2716
16071W        W32145   6.197   3.749   4.051 -0.1160  0.4595  0.0774
16072W        W32146   8.472   9.628   0.241 -0.1975  0.0518 -0.0818
16073W        W32147   6.768   2.216   3.844  0.1244 -0.0637  0.0197
16074W        W32148   8.196  10.659   0.527  0.3725 -0.1821  0.2131
16075W        W32149   6.763   5.088  14.969  0.0975 -0.3227 -0.1784
16076W        W32150   7.115  17.628  13.579 -0.0929  0.1064 -0.2467
16077W        W32151  13.897  11.434   1.154 -0.0218 -0.2397  0.2831
16078W        W32152  12.698  11.623   3.117 -0.0504  0.1451  0.1154
16079W        W32153   5.488  14.253   4.500  0.1077 -0.2830 -0.2451
16080W        W32154  11.486   2.320  15.641  0.1793 -0.1773  0.0973
16081W        W32155   7.305  13.659   2.666 -0.0661 -0.2681  0.0332
16082W        W32156   6.013  17.267   4.150 -0.1466 -0.1883 -0.0998
16083W        W32157  12.030   5.499   5.159  0.2015  0.0589 -0.0619
16084W        W32158  16.518   8.695   3.947  0.0787  0.0815 -0.0694
16085W        W32159  10.991   2.105   0.007  0.0431  0.0494 -0.0173
16086W        W32160  15.352   0.769   5.077 -0.0219  0.5093  0.1150
16087W        W32161   4.972  10.515   1.689  0.3068 -0.0563 -0.1535
16088W        W32162   1.309  17.550  11.577  0.2313  0.1315  0.0708
16089W        W32163   2.612  16.608   1.236 -0.0712  0.0080  0.1888
16090W        W32164  11.265  12.897   5.695  0.1184  0.1059 -0.0097
16091W        W32165   8.825   8.182   1.681  0.0913 -0.0168  0.1252
16092W        W32166   5.779  17.061   2.186  0.3339 -0.4690 -0.1704
16093W        W32167   5.623   3.131   0.434 -0.0065 -0.0098  0.0169
16094W        W32168   3.622   3.619  11.787  0.1391 -0.0496 -0.1501
16095W        W32169  11.166  13.490  12.904 -0.1597  0.0996  0.1663
16096W        W32170   1.663   1.297   4.552 -0.0062  0.6360  0.0131
16097W        W32171  15.835  13.458   0.223  0.1067 -0.3129  0.0742
16098W        W32172  16.408  14.489   1.808  0.2348 -0.1584  0.0016
16099W        W32173  17.333   3.238  13.326  0.1862 -0.0426 -0.1333
16100W        W32174   7.858   2.509   4.575 -0.2563  0.0837  0.1233
16101W        W32175   5.666   2.554   2.394  0.4508  0.0345 -0.0713
16102W        W32176  10.055   7.499  12.878  0.0108  0.0295  0.2898
16103W        W32177  11.687  16.836  11.313  0.3312  0.2170 -0.0781
16104W        W32178  10.949  14.659  11.752  0.2630  0.1831  0.0391
16105W        W32179   1.722  17.409  15.029  0.4195  0.1370 -0.0075
16106W        W32180   4.195  14.353   4.936  0.3016  0.2437 -0.1214
16107W        W32181   5.567  11.652   2.516 -0.0343  0.0810  0.1283
16108W        W32182  15.473  15.722   1.257  0.2555  0.1760  0.0498
16109W        W32183  13.760  17.214  12.831  0.0501  0.0005  0.1407
16110W        W32184  11.929  15.996   3.808 -0.1149 -0.0429  0.2695
16111W        W32185  15.034  11.812   2.736  0.0238  0.4135 -0.3817
16112W        W32186  14.072  17.277  15.465 -0.4314 -0.1934 -0.2285
16113W        W32187   2.200  12.520  16.211  0.0930 -0.0802 -0.2131
16114W        W32188  13.917   3.411   6.138  0.1912 -0.0849 -0.0384
16115W        W32189   9.610   8.104  15.915  0.2883 -0.0957  0.0137
16116W        W32190  15.411   3.531   1.498  0.2262  0.0039  0.0482
16117W        W32191  11.047   2.033   3.775 -0.2430  0.2676  0.1554
16118W        W32192  13.650  14.276   0.798 -0.0752  0.0438 -0.3214
16119W        W32193   8.298   0.042   5.279  0.0063 -0.1550  0.4199
16120W        W32194   8.419  15.256  12.431 -0.0061 -0.0318  0.0205
16121W        W32195   4.815  12.650  14.699  0.1693  0.1102  0.0656
16122W        W32196  15.388   3.814   5.152  0.1915 -0.0181  0.0088
16123W        W32197  18.024   0.162  13.455  0.2820 -0.4258  0.0254
16124W        W32198   9.355   2.988   1.997 -0.1014  0.0193 -0.0009
16125W        W32199  17.410   7.785   5.161  0.0798  0.0838 -0.2438
16126W        W32200   8.417   0.957   5.423  0.1033  0.2893  0.3146
16127W        W32201   5.612   9.774   2.422  0.0489 -0.2368  0.4486
16128W        W32202  12.866  12.754  16.003  0.0571 -0.2976 -0.3160
16129W        W32203   5.597  11.620  12.170 -0.0619 -0.2568 -0.3376
16130W        W32204  11.927   4.933  11.368 -0.1220  0.0376 -0.2219
16131W        W32205  14.558  10.331  14.382  0.1018 -0.2154 -0.0016
16132W        W32206  13.867  11.749   3.550 -0.0329  0.0907  0.0335
16133W        W32207  14.252  11.978  12.932  0.2269 -0.0544 -0.0394
16134W        W32208  16.395  15.108   5.324  0.1620 -0.0532 -0.1633
16135W        W32209  10.935  14.869  13.156  0.1928 -0.0725 -0.3354
16136W        W32210  11.603  12.343   0.668 -0.3774 -0.0137 -0.0977
16137W        W32211   4.330  14.058  15.567 -0.0921  0.1841  0.0456
16138W        W32212   2.357   0.005  12.957  0.0580 -0.1815 -0.3519
16139W        W32213  14.288   0.401  11.702  0.0811 -0.1647 -0.2289
16140W        W32214  17.291  15.626   0.258 -0.0122 -0.0345  0.1190
16141W        W32215   5.017   5.980  16.215 -0.0583  0.1958 -0.2850
16142W        W32216   2.416  10.531  12.935  0.4641  0.2075  0.0495
16143W        W32217   7.534   5.117  13.180 -0.1029 -0.2404 -0.4164
16144W        W32218   2.087   0.938   4.334  0.3521 -0.1331  0.1311
16145W        W32219   5.148   2.327   0.683  0.2945 -0.3024 -0.1610
16146W        W32220  12.993  13.606   2.430  0.0948  0.1208  0.0779
16147W        W32221  17.013  10.380  12.563  0.2809  0.1284 -0.0108
16148W        W32222   0.504  11.275  11.012  0.0059 -0.0584  0.2591
16149W        W32223   5.470   4.570  12.984 -0.0064  0.1576 -0.0834
16150W        W32224  11.904   7.880   3.019  0.0828  0.3349 -0.0787
16151W        W32225   3.475   8.125  14.998  0.0632 -0.2239 -0.3251
16152W        W32226   4.017   7.402   0.801  0.1312 -0.5807  0.0543
16153W        W32227  12.990   6.849  16.265 -0.0519 -0.1697  0.0434
16154W        W32228   0.836  13.210  13.560 -0.1199 -0.4944 -0.0449
16155W        W32229  13.922  11.148   4.457  0.1471 -0.0840 -0.2959
16156W        W32230   2.435  11.272   6.262 -0.0439 -0.2152  0.0705
16157W        W32231  11.453  13.265  11.531  0.2127  0.0051 -0.0300
16158W        W32232  11.778   6.528   2.668 -0.2215  0.0679  0.0543
16159W        W32233   8.419  15.256  14.531 -0.1382  0.1868  0.0843
16160W        W32234   1.162   1.321  11.818  0.4732 -0.0977 -0.0284
16161W        W32235  11.559  13.641  12.582  0.1018 -0.3239 -0.1094
16162W        W32236   4.142   5.150  15.252 -0.3377 -0.1988  0.3316
16163W        W32237   2.133   9.134   1.440  0.2391 -0.0074 -0.0828
16164W        W32238   1.534   8.500   1.920  0.2074 -0.1129 -0.1717
16165W        W32239   9.322   4.206  14.624  0.3425  0.5649 -0.1263
16166W        W32240  12.655  17.642  15.318 -0.2936  0.2546  0.2893
16167W        W32241   7.374  14.541   2.327  0.0083 -0.1683  0.0685
16168W        W32242   5.376   6.947  14.222  0.1204 -0.0463  0.0270
16169W        W32243  12.775   3.668   3.110 -0.1331 -0.1895 -0.0798
16170W        W32244  14.835   6.003   6.336  0.0335 -0.1646 -0.3250
16171W        W32245   5.572   9.223   0.360 -0.2118  0.2609 -0.1042
16172W        W32246  14.199  16.643  13.679 -0.0293 -0.1586 -0.1140
16173W        W32247  17.365  12.488   5.045  0.1453 -0.1924 -0.1309
16174W        W32248   8.622  12.303   0.090  0.0860  0.5272  0.1077
16175W        W32249   5.728   8.233  10.246 -0.5063 -0.1531  0.0673
16176W        W32250  14.356   8.650  11.915 -0.0993 -0.4025  0.0985
16177W        W32251   2.760   7.834  15.937 -0.0076  0.0072 -0.0622
16178W        W32252   8.053   3.766   1.263 -0.2740  0.1465 -0.0564
16179W        W32253   4.089   1.733   6.228  0.0953 -0.1646  0.2779
16180W        W32254  16.003  16.234   6.129 -0.0438  0.3486  0.1590
16181W        W32255  14.904   4.858   3.723  0.0622 -0.2983  0.2385
16182W        W32256  10.569   8.004  12.143  0.2865  0.1041 -0.1376
16183W        W32257   9.954   3.507   2.943 -0.1309  0.0531  0.2035
16184W        W32258   6.534  16.683  14.661 -0.0392 -0.2128  0.1934
16185W        W32259   9.195  12.989  12.127  0.0663  0.0074  0.1974
16186W        W32260   4.621  10.639   3.428  0.0691 -0.0689  0.0126
16187W        W32261  10.677   1.812   1.566 -0.2105  0.2365  0.2942
16188W        W32262  12.644  12.864   5.871  0.1783 -0.0060  0.1407
16189W        W32263  15.958   6.866  12.177  0.3893  0.2228  0.0715
16190W        W32264   1.767   0.431  11.018 -0.2352 -0.2160 -0.1654
16191W        W32265  14.666   9.818  12.298  0.0227 -0.3738 -0.0999
16192W        W32266  16.553  18.149  15.268  0.0371  0.2253 -0.3115
16193W        W32267  14.812   3.452   4.116 -0.0677 -0.1166  0.2514
16194W        W32268   4.741   0.779  14.322  0.5046 -0.2860  0.3163
16195W        W32269   5.312   9.755   2.853  0.0228 -0.3036 -0.1817
16196W        W32270  10.277   3.946   1.215  0.0077  0.2441 -0.0820
16197W        W32271  12.319   0.585  16.371  0.0726  0.0877 -0.1885
16198W        W32272   2.176  10.650  11.440  0.0157  0.3409  0.1478
16199W        W32273   3.862   2.491   2.593 -0.0751 -0.1223 -0.0371
16200W        W32274   6.473  17.367  12.934 -0.2780  0.3235  0.0133
16201W        W32275   1.422   9.471   0.804  0.0048 -0.0853 -0.1723
16202W        W32276  12.814   9.698  13.943 -0.1957 -0.1425  0.1299
16203W        W32277  17.983   0.686   5.662  0.1560 -0.2092  0.1624
16204W        W32278   0.382   4.611  11.734 -0.1531 -0.0315  0.1811
16205W        W32279   8.491  15.604   0.804 -0.0661 -0.1162 -0.0306
16206W        W32280   1.515   7.040  11.895  0.2469  0.0824 -0.2154
16207W        W32281   9.988   3.539   3.482 -0.0973  0.2115  0.2265
16208W        W32282   7.476  12.868  15.520  0.3254 -0.0992 -0.2990
16209W        W32283   7.077  16.904   4.525  0.1594  0.4999 -0.1886
16210W        W32284  17.727   0.365  12.862  0.2608  0.0214 -0.2394
16211W        W32285  13.675   7.364   5.016 -0.0890  0.1174  0.0475
16212W        W32286  16.620   9.692   3.796 -0.0343 -0.1179 -0.1458
16213W        W32287  10.410  11.753   4.567 -0.0111 -0.2859  0.2701
16214W        W32288   6.228   4.997   0.738 -0.2698  0.2870 -0.0683
16215W        W32289  18.016   6.902   2.750  0.0348 -0.2087  0.0688
16216W        W32290   6.282   7.104   4.094  0.0199 -0.0484 -0.0414
16217W        W32291  11.631   5.087  13.601  0.1994  0.1402 -0.0421
16218W        W32292   5.257  14.121  15.018 -0.0933  0.0392  0.1904
16219W        W32293   3.122  13.661   2.894  0.1594  0.3362  0.3229
16220W        W32294   6.118   0.845  14.573 -0.1397 -0.2246  0.0479
16221W        W32295  16.885  16.422   3.878 -0.3843  0.1661 -0.2541
16222W        W32296  13.524   4.388  15.782 -0.2626 -0.1139  0.1755
16223W        W32297   9.015  18.074   0.549 -0.1375 -0.1015 -0.1923
16224W        W32298   9.715   8.299   3.280  0.0217  0.1453  0.3377
16225W        W32299  13.720   6.262   2.122 -0.1004 -0.1969  0.0871
16226W        W32300   8.133   1.689   1.348  0.1248  0.0189 -0.0409
16227W        W32301   8.067  17.451  15.124  0.1366  0.4020  0.2510
16228W        W32302   8.601  12.477   0.986 -0.2978 -0.0163 -0.0716
16229W        W32303  18.037   4.783   1.106 -0.1861 -0.3246 -0.1762
16230W        W32304  13.455   7.910  14.941  0.0272  0.2278  0.0195
16231W        W32305  14.225   5.227  12.726  0.0756 -0.2796  0.0139
16232W        W32306  12.850  14.866   1.813  0.0252 -0.3836 -0.1748
16233W        W32307   1.867  12.058   4.995 -0.2759 -0.0274 -0.0825
16234W        W32308  10.740   4.966   4.977 -0.0070 -0.0456 -0.1663
16235W        W32309   2.087   3.315  11.345  0.1572 -0.3219 -0.0164
16236W        W32310   2.717  10.949  15.982 -0.0010 -0.0561  0.0132
16237W        W32311   2.082   3.692   0.822  0.2229  0.5150  0.1342
16238W        W32312   7.011  15.953  16.389  0.0926 -0.0202  0.0849
16239W        W32313   6.536   4.611   0.823 -0.1575 -0.2739 -0.0498
16240W        W32314   1.663   9.194  14.553 -0.0805 -0.0146 -0.1229
16241W        W32315  10.807  15.642  13.723 -0.1188 -0.2264  0.0483
16242W        W32316  11.721   4.866   0.417 -0.2128 -0.1043  0.0068
16243W        W32317   3.480   9.425  10.976  0.5006 -0.1886  0.1450
16244W        W32318   9.969   3.754  12.144 -0.1625  0.2559  0.0813
16245W        W32319  17.476   2.087   4.280 -0.4253 -0.0670 -0.0134
16246W        W32320   2.319   8.864   3.281  0.2570 -0.0872  0.1084
16247W        W32321   1.173  17.153  14.460 -0.1842  0.0712 -0.0694
16248W        W32322   3.940   7.415  13.105  0.0885 -0.1357 -0.0654
16249W        W32323  17.074  18.220   1.249  0.0937 -0.2491  0.2170
16250W        W32324   6.162   2.876   0.162  0.2492 -0.2004  0.0951
16251W        W32325  17.476  14.304  15.968 -0.0015 -0.1101  0.1554
16252W        W32326   5.807  16.371  15.330  0.1888  0.1504 -0.0524
16253W        W32327  13.015   0.374  14.559  0.1340 -0.2766  0.0978
16254W        W32328  16.929  17.539   5.481 -0.2235  0.0619  0.1227
16255W        W32329   3.815   8.861  11.640  0.0063 -0.0672 -0.0601
16256W        W32330   0.590  11.650  13.173 -0.0315  0.0785  0.2080
16257W        W32331  11.745  15.895   0.944 -0.2634  0.2399 -0.0691
16258W        W32332   2.726  12.310  14.105  0.1571  0.0226 -0.3030
16259W        W32333   2.574   8.467   3.411 -0.2556  0.0148 -0.2232
16260W        W32334   0.653  15.916   5.066 -0.1508 -0.1818  0.1317
16261W        W32335   1.161  17.186   2.293  0.0281 -0.0437 -0.0877
16262W        W32336   8.311   0.701  13.475  0.2330 -0.1147  0.1134
16263W        W32337   2.397   5.431   5.336 -0.1355  0.0510 -0.0576
16264W        W32338  13.247   0.906   6.277 -0.0109 -0.1400 -0.3751
16265W        W32339   7.694   1.858  14.180  0.0731  0.1771  0.0424
16266W        W32340  15.200  13.317  12.463  0.1950  0.1284  0.2068
16267W        W32341   1.498   7.559  14.001 -0.1010 -0.0489 -0.1572
16268W        W32342   9.641  14.023   1.052  0.1525  0.1556  0.1202
16269W        W32343  17.912   4.927   2.919  0.1448 -0.0900 -0.3517
16270W        W32344   0.976   0.097   4.043  0.0892  0.2970 -0.0398
16271W        W32345  18.210   6.278  15.495 -0.1377 -0.1101  0.3356
16272W        W32346  15.893   8.413  12.263 -0.2201 -0.0518 -0.1378
16273W        W32347  16.772  17.684   1.278 -0.0112  0.2586  0.1895
16274W        W32348  15.660   6.492  14.773 -0.4111  0.3273  0.0008
16275W        W32349   8.789   2.442   3.660 -0.1574 -0.0894 -0.3867
16276W        W32350   0.475  16.192  12.405 -0.0030 -0.1577 -0.0800
16277W        W32351  14.116  11.938  12.010  0.1130  0.1125  0.1916
16278W        W32352  16.813   2.714  15.347  0.0377 -0.1527 -0.2202
16279W        W32353   4.794   4.740  13.155  0.2076 -0.4986  0.2985
16280W        W32354  10.566   2.470   4.608  0.1756 -0.2666 -0.1817
16281W        W32355   2.017   6.979  12.009  0.0118 -0.2736 -0.4276
16282W        W32356   5.387   1.465   1.465  0.1472 -0.2758 -0.0173
16283W        W32357   1.300  11.867  11.806  0.0701 -0.0037  0.1279
16284W        W32358   9.801  13.632   1.299  0.0827 -0.1187  0.1169
16285W        W32359  17.619   6.670  11.933 -0.1948  0.2836 -0.0788
16286W        W32360   0.549  14.823   1.213  0.0596 -0.0987 -0.1779
16287W        W32361  13.369  11.478  15.673  0.0963  0.1814 -0.1513
16288W        W32362   3.369   6.403   4.298 -0.1333 -0.2595 -0.2444
16289W        W32363   9.903   3.849   4.276 -0.0435 -0.0070  0.5990
16290W        W32364   7.818  11.080   3.822  0.1110  0.1308 -0.0037
16291W        W32365   6.746   5.631   0.324  0.3046 -0.3997  0.1788
16292W        W32366   2.814  11.672  11.430 -0.1561  0.0975  0.0318
16293W        W32367  18.098   2.045   0.437 -0.2695  0.0142  0.0544
16294W        W32368   1.479   1.473  16.406 -0.0294 -0.0983 -0.1147
16295W        W32369  14.867   4.753  12.242  0.4936  0.2352  0.1623
16296W        W32370  16.787  14.791  15.355  0.1166 -0.0096 -0.0605
16297W        W32371   9.952  16.240  12.672  0.0138  0.0651 -0.1821
16298W        W32372   1.181   4.842  13.720  0.0135  0.1917 -0.2928
16299W        W32373  13.566   7.338  12.785 -0.0564 -0.0425  0.2594
16300W        W32374  15.565   6.000  14.765 -0.0340  0.1479 -0.0564
16301W        W32375  15.796  17.383  12.489  0.0498  0.0435  0.3842
16302W        W32376  14.165  17.085   0.782  0.0577 -0.0367  0.1600
16303W        W32377  17.869   9.469  11.855  0.4270 -0.1410  0.1863
16304W        W32378   3.609   6.225  14.487 -0.0231  0.2734  0.2193
16305W        W32379   9.619   4.753   4.091 -0.4175  0.0805  0.1231
16306W        W32380   2.036   1.787  14.394 -0.1113 -0.0563 -0.2210
16307W        W32381   2.520  17.492   5.284  0.4071  0.1821  0.1798
16308W        W32382  10.766   8.065  15.235  0.0414  0.0347 -0.1657
16309W        W32383   4.252  17.083   3.113  0.2874 -0.0538 -0.1122
16310W        W32384   1.012  14.041   2.098  0.1088 -0.0264 -0.0956
16311W        W32385   4.585  15.335  12.198  0.0407 -0.1861 -0.2425
16312W        W32386  17.649   3.000   1.808 -0.0087  0.1247 -0.2294
16313W        W32387   0.114   7.120   2.445 -0.2279  0.1891  0.0266
16314W        W32388   7.837   5.522  12.253  0.0550  0.1585  0.0047
16315W        W32389  17.852   2.161   5.036  0.1173 -0.1638 -0.1882
16316W        W32390   6.509   7.292   3.183 -0.1522  0.0090  0.2025
16317W        W32391  18.119  13.418   0.045 -0.5410  0.0121  0.2484
16318W        W32392   0.185   8.563  10.887 -0.0978 -0.3379 -0.0153
16319W        W32393   7.233   8.463  11.143 -0.0352  0.2393  0.1255
16320W        W32394   1.392   6.068   3.775  0.0223  0.0656 -0.2125
16321W        W32395   1.873   5.495   4.188 -0.2530 -0.0444 -0.2039
16322W        W32396   9.502  12.073  11.380 -0.0611 -0.0347  0.1456
16323W        W32397   2.376   5.663  16.436  0.0981  0.0992  0.0677
16324W        W32398  11.600   4.032  15.179  0.3687 -0.0804 -0.2431
16325W        W32399   9.107  10.086   2.694 -0.2480 -0.3850 -0.1528
16326W        W32400   1.567   9.809   1.200  0.0235  0.0615  0.0996
16327W        W32401   8.508   7.094   2.634  0.3942  0.1358 -0.3405
16328W        W32402  16.207  18.015  13.091  0.0100  0.0624  0.0272
16329W        W32403  15.843   5.432  16.193  0.2693  0.1604  0.2024
16330W        W32404   0.435   0.781  12.047  0.1371  0.2685  0.2549
16331W        W32405   1.678   5.268  13.442  0.0999  0.0125 -0.4781
16332W        W32406   0.750   3.754   3.100  0.3070 -0.1065 -0.1070
16333W        W32407  16.903  10.548  15.288 -0.1835  0.1302  0.2614
16334W        W32408  10.422   2.660   0.508  0.2671  0.1229  0.0191
16335W        W32409   9.246  17.951  14.806  0.2706 -0.0584  0.1442
16336W        W32410  10.358   2.793  12.204 -0.2284  0.1548 -0.0588
16337W        W32411  11.118  17.654  13.032 -0.1870 -0.1049  0.3883
16338W        W32412   4.039   1.567  13.546 -0.0107 -0.1665 -0.1027
16339W        W32413  10.888  12.014  15.176 -0.1901 -0.0467  0.1311
16340W        W32414   7.301  13.348  13.328 -0.1876 -0.1511 -0.1167
16341W        W32415  15.989   1.005   0.952 -0.0850 -0.0386  0.1661
16342W        W32416  13.259   1.871   2.248 -0.1700 -0.0190  0.0023
16343W        W32417  14.704   6.890   0.755 -0.2884 -0.1262  0.0592
16344W        W32418  16.246   0.282  13.599 -0.1369  0.1981  0.0002
16345W        W32419  10.919   3.400  16.201 -0.0204  0.3026  0.3524
16346W        W32420  10.704  16.742  11.119  0.1446 -0.0451 -0.0467
16347W        W32421  17.148  15.105  11.281 -0.0152 -0.1001 -0.2129
16348W        W32422   4.082   5.092   3.191  0.0701  0.1079  0.1994
16349W        W32423  14.435   3.354   0.851  0.1708  0.1663 -0.1971
16350W        W32424   9.086   3.396   2.300  0.3041  0.0668  0.4170
16351W        W32425   9.404  17.828   2.047 -0.0661  0.0071  0.2611
16352W        W32426   6.446  14.978  13.496  0.2636 -0.0162  0.0574
16353W        W32427  17.955  11.556   3.760 -0.2029 -0.3750  0.0297
16354W        W32428   4.548  10.710  15.283 -0.3332  0.1577 -0.0197
16355W        W32429   4.100   7.357  14.339  0.3303  0.1430  0.1830
16356W        W32430   6.644  15.249   2.288 -0.2084  0.3220 -0.2773
16357W        W32431   0.800   8.821  15.624 -0.3252 -0.2189  0.1145
16358W        W32432   6.222   0.367   5.408  0.1511  0.1831 -0.1932
16359W        W32433   3.337   6.598   0.387  0.1226  0.3695  0.0997
16360W        W32434  17.217  15.213   4.970  0.1809 -0.0775 -0.1677
16361W        W32435  11.592  11.146   2.938  0.2938 -0.0687 -0.0465
16362W        W32436   0.563   9.157   5.066  0.0951  0.0713 -0.0901
16363W        W32437   1.179  16.742  11.598  0.0474  0.1080 -0.0898
16364W        W32438  15.028   6.487   1.335 -0.1397  0.2118  0.2451
16365W        W32439  13.958   1.815  13.487 -0.1709 -0.0336 -0.1840
16366W        W32440   7.934  13.935   4.683 -0.0445  0.0160  0.1086
16367W        W32441  11.464   7.666  12.300 -0.0132 -0.1672  0.2311
16368W        W32442   1.125   2.973   1.305  0.0947  0.1560 -0.1829
16369W        W32443   1.931   2.812  16.356  0.3073 -0.5069  0.0172
16370W        W32444  12.639   5.642  13.694 -0.0142  0.0231 -0.0588
16371W        W32445  15.868  15.048  15.202 -0.2091  0.0192 -0.0340
16372W        W32446   2.305  16.117  13.013  0.0100  0.1929 -0.2858
16373W        W32447  14.656   0.749   2.540 -0.1438  0.1359  0.1263
16374W        W32448   8.436   3.671   4.460  0.0046  0.0053 -0.1828
16375W        W32449  10.900  16.244   3.644  0.3558 -0.0450  0.1321
16376W        W32450  16.065   3.038   1.001 -0.1707  0.1109  0.0857
16377W        W32451   2.598  17.599  12.489  0.2954 -0.2422  0.3888
16378W        W32452  18.013   2.289  11.214 -0.1608  0.1192 -0.1773
16379W        W32453  12.625   8.597  12.820 -0.3995 -0.0551 -0.1233
16380W        W32454  16.193   9.483   0.834 -0.3271 -0.1915  0.2013
16381W        W32455   7.647  12.550  13.385 -0.2236  0.0004  0.2612
16382W        W32456  14.271   1.215   1.250  0.1192  0.0149 -0.2294
16383W        W32457   0.258   7.115   5.613 -0.1112 -0.2222  0.3118
16384W        W32458   7.108   1.478   0.650  0.4363  0.1612 -0.3275
16385W        W32459   1.897  14.642  14.064  0.1514  0.0013 -0.0370
16386W        W32460   7.808   1.102   1.741 -0.0910 -0.0688 -0.0528
16387W        W32461  14.008   8.450  16.499  0.0184  0.3389  0.2071
16388W        W32462  11.132  18.097  15.702 -0.1181  0.2466  0.0285
16389W        W32463  18.186   9.153  12.219 -0.0369  0.2397  0.3025
16390W        W32464  17.900  16.610  13.760  0.0330  0.2693 -0.1598
16391W        W32465   6.584   0.766  13.120 -0.0679  0.2109  0.1231
16392W        W32466  10.391  10.369  13.540  0.1249 -0.3956 -0.0958
16393W        W32467   1.560   3.841   5.083  0.0609 -0.0129 -0.0875
16394W        W32468  14.014   4.469   4.124  0.0072 -0.1627 -0.3340
16395W        W32469   3.634  11.101  16.387 -0.1348  0.1125 -0.0058
16396W        W32470  16.052   5.940  12.705  0.0073  0.1012 -0.2509
16397W        W32471   9.790   3.963  14.804  0.0176  0.1207  0.0943
16398W        W32472  11.980   7.546   6.322 -0.1518  0.2636  0.1092
16399W        W32473   4.188   8.457   3.367 -0.0289  0.0938  0.0523
16400W        W32474  10.934  17.327  11.834  0.1300  0.0083  0.1323
16401W        W32475  17.365  11.730   3.552  0.2099  0.2223  0.3768
16402W        W32476  17.604   6.293   3.118  0.1019 -0.0445  0.2347
16403W        W32477  16.501   3.596   2.558  0.2189  0.1266 -0.1414
16404W        W32478  13.146  13.294   3.969  0.0979 -0.0332 -0.0435
16405W        W32479   7.112  13.618  14.612 -0.1276  0.1476 -0.0257
16406W        W32480  17.577  13.622   1.044 -0.1444 -0.2012  0.0236
16407W        W32481  16.700  17.959   4.689 -0.2179 -0.1834  0.1473
16408W        W32482  10.670   8.044   0.563  0.0759 -0.0946  0.2067
16409W        W32483   0.332   7.720  12.637 -0.0255  0.0637  0.1277
16410W        W32484  17.131   0.805  14.168  0.0418  0.1465 -0.2070
16411W        W32485   8.430   3.599  12.828 -0.0020 -0.0280 -0.2244
16412W        W32486  15.833   5.241  13.660 -0.1183 -0.0983 -0.1262
16413W        W32487  17.428   3.689  13.475 -0.3476 -0.0050 -0.1361
16414W        W32488   1.099  11.829   4.198  0.2725  0.2635  0.2813
16415W        W32489  15.348  15.214  11.404 -0.1708  0.0509 -0.0561
16416W        W32490   1.595  11.945  14.707 -0.0328  0.2113  0.1580
16417W        W32491  16.618  14.637   2.477 -0.1231  0.2674 -0.1118
16418W        W32492   7.568   3.772   1.099 -0.0493  0.1395 -0.2336
16419W        W32493   9.288   0.961  13.364  0.1759  0.1876 -0.0972
16420W        W32494  14.490  15.195   2.178 -0.3403 -0.0276  0.0370
16421W        W32495  12.894  15.539   3.881 -0.0282 -0.0721 -0.2924
16422W        W32496   1.424  11.238   3.622 -0.2291 -0.0397 -0.0756
16423W        W32497   2.070  11.078  15.538 -0.4309 -0.0607  0.2550
16424W        W32498  14.903   8.501  15.241  0.0404 -0.1131  0.1236
16425W        W32499  10.309   6.140  13.513  0.2488  0.0013 -0.0516
16426W        W32500   5.111  14.650   0.692 -0.1437  0.2316 -0.0667
16427W        W32501  17.202  11.513  14.936  0.1738 -0.0797 -0.0157
16428W        W32502  12.822   1.912  13.018 -0.3305 -0.1780  0.1262
16429W        W32503   1.321  13.674   4.917 -0.2930  0.1556  0.1226
16430W        W32504   3.721   9.966  10.304  0.0621 -0.0167 -0.1946
16431W        W32505   0.208  10.728  11.889  0.0099  0.0474  0.0750
16432W        W32506   7.937  17.405   2.420 -0.1859 -0.1946 -0.0998
16433W        W32507   9.283  17.160  11.732 -0.2792  0.2014  0.1920
16434W        W32508   4.349  13.928   3.271 -0.4589 -0.0363  0.0511
16435W        W32509   6.051  13.090  15.204 -0.2674  0.1994 -0.1169
16436W        W32510  18.000   5.575  13.265 -0.0481  0.0763 -0.0635
16437W        W32511  10.682  14.493   4.986  0.1219  0.2213  0.1484
16438W        W32512   2.383  16.029   4.116 -0.2735  0.3633  0.0665
16439W        W32513   8.508  15.261   3.468  0.1470  0.0608 -0.0151
16440W        W32514  17.618  16.107  13.586  0.0288  0.0392  0.1071
16441W        W32515   1.317  17.022   2.758  0.1686 -0.1560 -0.2810
16442W        W32516   9.971   8.592   1.733  0.0146 -0.2447  0.1520
16443W        W32517  17.627  10.478  13.467 -0.0008 -0.0855 -0.2690
16444W        W32518  17.104  16.216  13.410 -0.1304 -0.1061  0.0048
16445W        W32519  16.646  15.284   4.898 -0.0432 -0.0970  0.1785
16446W        W32520  16.622  14.326  15.516 -0.2351 -0.0690  0.1648
16447W        W32521   5.618   2.465  14.402 -0.0640 -0.1200 -0.2157
16448W        W32522   0.391  12.145  12.880  0.0405 -0.0086  0.0791
16449W        W32523  13.714   7.561  16.233  0.0183 -0.1703 -0.0394
16450W        W32524   8.707   8.927  15.764  0.1027  0.1482  0.0380
16451W        W32525   1.512  11.367   5.664 -0.0330  0.1150  0.4794
16452W        W32526   2.647  11.728   4.485  0.1880 -0.1875  0.1483
16453W        W32527  14.954  11.940   2.207  0.1936 -0.0286  0.2359
16454W        W32528  14.827  13.766   5.391  0.1214 -0.1615  0.0453
16455W        W32529   1.832  14.501  11.326 -0.3287  0.0675  0.1375
16456W        W32530  13.270   9.484   0.438  0.0680  0.1975 -0.0179
16457W        W32531   1.713  12.596   4.290  0.1793 -0.4480 -0.0886
16458W        W32532  15.644   7.506  12.426  0.0343  0.0554  0.2400
16459W        W32533  10.625   3.005  16.451 -0.2182 -0.1842 -0.0666
16460W        W32534   8.392  11.934  14.886 -0.1355 -0.2508 -0.1042
16461W        W32535   5.352   5.785   3.534 -0.2933  0.0202  0.1316
16462W        W32536   0.409   4.962   0.469  0.3770  0.0133  0.1159
16463W        W32537  16.612  16.148  13.167  0.1542  0.1011  0.1519
16464W        W32538  10.286  17.470   4.180 -0.2365 -0.1177 -0.1052
16465W        W32539   0.779  12.083   1.200 -0.1019  0.1137 -0.0784
16466W        W32540   8.448  17.316   3.557  0.1343 -0.0095  0.1070
16467W        W32541  16.979   4.997   0.915  0.2031 -0.0724 -0.2605
16468W        W32542   4.778  13.894   2.044  0.0465 -0.4279  0.1315
16469W        W32543  16.592  13.519  12.414  0.2738 -0.0665  0.2166
16470W        W32544   0.178   0.397   2.427  0.3010  0.0927 -0.2645
16471W        W32545  15.430   7.451   6.292 -0.1923 -0.2231  0.4234
16472W        W32546  16.672   7.386  11.746 -0.1112  0.1139 -0.0202
16473W        W32547  17.528  13.772  14.835 -0.1224  0.0128  0.0262
16474W        W32548  16.156  16.566  15.404  0.1724 -0.2887 -0.3041
16475W        W32549   6.232   3.452   2.125  0.1634  0.0376 -0.0599
16476W        W32550  14.174   8.377   0.480  0.0127  0.0824 -0.2832
16477W        W32551  16.590  10.953  12.706 -0.2906 -0.0753  0.3494
16478W        W32552   5.589   8.738   2.950  0.2132 -0.4091 -0.2318
16479W        W32553   4.608   7.402  14.077 -0.3251  0.0562  0.1144
16480W        W32554  16.446  16.315   2.366 -0.0604 -0.0125 -0.1747
16481W        W32555   3.871  15.926  15.850  0.0681 -0.2108 -0.1294
16482W        W32556  14.511  15.060  11.917  0.2016  0.1467  0.1499
16483W        W32557  12.296  18.130  14.368 -0.1757  0.0286  0.0527
16484W        W32558  14.594   6.135  14.587 -0.0846 -0.1201  0.1334
16485W        W32559   8.912  17.905  15.223 -0.3393  0.3954  0.0744
16486W        W32560   5.483  13.940   5.436 -0.1440 -0.2125  0.3571
16487W        W32561   0.723  16.805   2.125  0.0138  0.2299  0.1278
16488W        W32562   2.507  10.374  15.283 -0.2526 -0.0904 -0.2227
16489W        W32563  13.517   1.077  15.057  0.3942  0.1506 -0.0822
16490W        W32564  16.340  13.068   1.639  0.1215 -0.0511 -0.0929
16491W        W32565  17.842   2.181  12.097 -0.0822 -0.0775 -0.1022
16492W        W32566  15.455  13.569  15.728  0.3536 -0.0879  0.0084
16493W        W32567  11.536   1.989   3.936 -0.0235 -0.0677 -0.2402
16494W        W32568   7.217   3.146  11.853  0.2569  0.2058  0.0837
16495W        W32569  14.602  10.691   5.087  0.1704  0.2758  0.0193
16496W        W32570   2.258  15.181   4.429 -0.2177  0.2765  0.1712
16497W        W32571   4.097  11.787  15.278  0.0421 -0.0891  0.3395
16498W        W32572   6.561   1.731   1.870 -0.0292 -0.2233 -0.1949
16499W        W32573   1.271  11.975  10.858 -0.0500 -0.0946 -0.2313
16500W        W32574  13.017  12.968  11.516  0.1165  0.1618  0.0428
16501W        W32575   7.558   3.183  16.153  0.0690  0.1918  0.3853
16502W        W32576   9.254  16.663  12.261 -0.0345 -0.2944 -0.0193
16503W        W32577   2.454   1.887  12.086 -0.0993  0.1405 -0.2559
16504W        W32578  14.389  10.793   3.704  0.2518 -0.1907 -0.0536
16505W        W32579  12.392  13.144  12.575 -0.0270 -0.1358 -0.2608
16506W        W32580  12.114  13.923  13.957  0.2225  0.2018  0.0429
16507W        W32581  15.629   4.792   4.419  0.2063 -0.3260  0.2126
16508W        W32582   0.865   5.595  14.255  0.1925  0.1125  0.1527
16509W        W32583  16.619  15.740   4.410  0.1600 -0.3389  0.2927
16510W        W32584  15.022   2.502  11.883  0.1166 -0.0353  0.1101
16511W        W32585  13.855   9.449   1.696 -0.0576 -0.1893 -0.0429
16512W        W32586   7.554  12.130  14.175 -0.1464  0.1380 -0.0301
16513W        W32587  12.395   7.530  16.033  0.0329 -0.2227 -0.1102
16514W        W32588   4.867   9.393   0.320  0.0265 -0.2475  0.1296
16515W        W32589   5.684  10.211  11.114  0.1673  0.0724 -0.1185
16516W        W32590   0.926  14.966   1.557  0.0179  0.1178  0.0895
16517W        W32591  15.246  10.615  16.111 -0.1984 -0.0916  0.1115
16518W        W32592   9.538  15.349   0.932 -0.0158 -0.1767  0.0635
16519W        W32593   8.541   4.064   0.127  0.0330 -0.1278 -0.3036
16520W        W32594   0.874   1.108  13.904  0.1126 -0.0136 -0.0439
16521W        W32595  16.770  14.295  14.361  0.2071  0.1850 -0.1059
16522W        W32596   6.837   6.912   0.280 -0.1331  0.0647  0.0659
16523W        W32597  17.437  12.790  11.974  0.1139  0.1653  0.3149
16524W        W32598   3.648   1.445  14.767  0.2446 -0.4482  0.1706
16525W        W32599  14.809  17.713   0.650  0.2292 -0.1413  0.3113
16526W        W32600   0.550  16.667   1.683 -0.1672 -0.3478  0.0793
16527W        W32601  12.675   9.776  14.971 -0.2361  0.1184 -0.0269
16528W        W32602  12.792   7.697  12.159  0.0235  0.1742  0.2216
16529W        W32603  11.564  12.512   4.240 -0.1952 -0.2183  0.0709
16530W        W32604   5.231  17.667  14.676  0.3866  0.1909  0.0538
16531W        W32605   7.861   9.279   4.631 -0.1629 -0.0638 -0.0817
16532W        W32606   7.896  11.632   3.767 -0.0465  0.0471 -0.1254
16533W        W32607  10.718  12.905  13.196  0.0378 -0.0231  0.0443
16534W        W32608  17.937   3.712   1.581  0.3800  0.2904 -0.4087
16535W        W32609  10.835   3.073   5.504  0.0657  0.1185 -0.0106
16536W        W32610   8.758   1.112   0.981 -0.0072  0.0047 -0.1658
16537W        W32611   3.782  11.098  14.764  0.1933  0.0577 -0.1898
16538W        W32612   6.898   5.712  14.598 -0.0816 -0.1539  0.0409
16539W        W32613  17.295   1.278  14.496 -0.2702 -0.0047  0.1338
16540W        W32614  13.293   3.113  12.473  0.0598 -0.2362 -0.5781
16541W        W32615  18.131   0.680  13.652 -0.3162  0.0736  0.0431
16542W        W32616  16.402   2.941  15.148 -0.1396 -0.1673 -0.0579
16543W        W32617  10.567   0.577   1.787  0.2902 -0.0912 -0.1339
16544W        W32618  17.793   3.866   3.046  0.0956  0.0668  0.0842
16545W        W32619  12.955   4.279  11.828 -0.2150  0.2155 -0.0535
16546W        W32620   2.293  14.401   2.741 -0.3544  0.2852 -0.0714
16547W        W32621  12.084   2.776   0.108  0.0406 -0.0940  0.3408
16548W        W32622   5.514   2.101  11.186  0.0718 -0.3735 -0.0268
16549W        W32623   0.214  10.534  16.179  0.1565  0.4250 -0.1134
16550W        W32624   7.118  14.283   4.111  0.0189  0.2949  0.1039
16551W        W32625  17.034  13.455   3.370 -0.0074 -0.2516 -0.0514
16552W        W32626   9.519  13.859   2.111  0.2321 -0.0497  0.2520
16553W        W32627   2.554  14.158   4.263  0.0578 -0.3474  0.1925
16554W        W32628   9.926  10.238  11.117 -0.1783 -0.0391  0.1540
16555W        W32629  10.872   0.077   1.727 -0.0452 -0.4522 -0.0956
16556W        W32630   7.372  17.828  14.894 -0.2457 -0.2841 -0.3443
16557W        W32631  15.558   1.757  13.371  0.4132 -0.1901  0.1117
16558W        W32632   4.654   7.477  10.072 -0.1303 -0.2665  0.1530
16559W        W32633  16.460   4.937   1.138 -0.1609 -0.1908 -0.1753
16560W        W32634   0.944  15.881  15.084 -0.0466  0.2057  0.1549
16561W        W32635   8.868  12.678  16.238 -0.0363 -0.3546  0.1820
16562W        W32636  17.067   6.535   1.768  0.0331 -0.0573 -0.3814
16563W        W32637   1.080   6.780  13.649 -0.0800 -0.1658  0.1548
16564W        W32638   9.006  17.488  13.625 -0.1391 -0.1783 -0.0909
16565W        W32639  18.241   2.347   0.849 -0.1075 -0.3899 -0.0336
16566W        W32640   8.639  13.442   3.976 -0.0217 -0.3255 -0.5791
16567W        W32641   7.251   0.073   4.141  0.0600  0.0169  0.0192
16568W        W32642  16.634   2.251   1.790  0.3076  0.1180 -0.2007
16569W        W32643   1.812  16.958  16.158  0.1272 -0.2077 -0.1866
16570W        W32644  12.349   8.932  15.018  0.0074  0.1794 -0.0005
16571W        W32645  13.989   8.715  13.555 -0.0733  0.2201 -0.0724
16572W        W32646   0.530  13.071   3.023 -0.4770  0.0559 -0.2987
16573W        W32647   5.944   6.482  14.433  0.1165  0.1580  0.0868
16574W        W32648   3.746   9.685  14.275  0.0490 -0.1509  0.2019
16575W        W32649  16.132  16.090  14.820 -0.2517  0.2243  0.3164
16576W        W32650   9.856  14.774  15.224  0.0608  0.0879  0.3372
16577W        W32651  10.243  13.309   1.180 -0.0216 -0.3120 -0.2681
16578W        W32652   2.470  14.038  15.249 -0.1549  0.1289 -0.1995
16579W        W32653  14.706   2.593  14.591  0.3113 -0.0840  0.1630
16580W        W32654   6.956  14.730   5.090  0.1354 -0.0409  0.3817
16581W        W32655  11.232  17.385   5.595  0.0213 -0.1682  0.2973
16582W        W32656  15.801  12.794  13.780  0.0488 -0.0809  0.0067
16583W        W32657  16.332  12.979  13.887 -0.0885  0.1758  0.1326
16584W        W32658   8.257   5.177  13.673  0.0608  0.2881  0.1958
16585W        W32659  17.193   2.490  15.573 -0.0238  0.1760 -0.0096
16586W        W32660   8.162   8.506   0.835  0.0265 -0.2206  0.0494
16587W        W32661  14.959   6.289   3.772  0.0064  0.1229  0.1085
16588W        W32662   2.476   6.900   1.823 -0.3829 -0.1080  0.1336
16589W        W32663   0.802   1.795   5.155 -0.0810 -0.0137 -0.0990
16590W        W32664  18.086  16.659   3.470 -0.0409  0.1558  0.0293
16591W        W32665   0.194  15.229   2.201  0.0354  0.1463  0.0776
16592W        W32666  12.830  11.069   0.303 -0.1638  0.1328 -0.3183
16593W        W32667   2.525   0.369  13.391  0.1361 -0.0139  0.0470
16594W        W32668  11.930   9.516  11.854 -0.0125 -0.0942 -0.0404
16595W        W32669   8.138   6.227  11.526  0.0306 -0.4234 -0.1447
16596W        W32670   0.621   7.787  15.629  0.1695  0.2334 -0.1277
16597W        W32671  13.623  13.226  15.846 -0.2046 -0.0799  0.0356
16598W        W32672  12.158   9.101   5.380 -0.2209  0.1272  0.0637
16599W        W32673   2.391   1.340   3.925  0.1180 -0.0185  0.1589
16600W        W32674  17.186  16.715   1.603 -0.0775 -0.0878 -0.3226
16601W        W32675  18.083   6.242  16.004 -0.4150  0.1829  0.1476
16602W        W32676   6.299   8.315   5.067 -0.1792  0.0287  0.0886
16603W        W32677   1.735   1.170  15.995 -0.0567 -0.0279 -0.0151
16604W        W32678  17.268   5.329   3.234  0.1879  0.1284 -0.1633
16605W        W32679  14.025  13.855   3.891 -0.2883  0.0673 -0.0248
16606W        W32680   6.634   6.851  14.932 -0.1766  0.0911 -0.4152
16607W        W32681   1.084   5.065  14.465  0.1479  0.1608  0.2450
16608W        W32682  18.171  10.790  15.962 -0.1176 -0.1351  0.1967
16609W        W32683   7.634   6.635   2.970 -0.0651 -0.0208  0.1095
16610W        W32684  11.806   7.726  15.501  0.0270  0.2087  0.1100
16611W        W32685  11.531   3.990   0.036 -0.2454 -0.4158  0.1153
16612W        W32686  11.050   3.492  13.602 -0.2054 -0.1680  0.0064
16613W        W32687  14.889   5.423   4.459  0.1357 -0.0603  0.0981
16614W        W32688  13.528  16.682   2.899  0.1887 -0.0722 -0.2034
16615W        W32689  15.182   6.887   4.328 -0.5547 -0.2700  0.0704
16616W        W32690   2.262   2.862   0.282 -0.0517 -0.1283  0.1776
16617W        W32691   2.922   8.441  13.232  0.2045  0.0917  0.0485
16618W        W32692   8.484   2.654   4.115  0.0529  0.0682  0.2499
16619W        W32693   4.272   1.313   4.341 -0.3225 -0.0508 -0.0745
16620W        W32694   7.397   6.761   1.401  0.0217  0.1361  0.0157
16621W        W32695   1.406  13.084  11.328  0.3304 -0.0284 -0.0036
16622W        W32696  11.596   6.979   3.869 -0.0914 -0.0102  0.0304
16623W        W32697   0.265   6.106  16.217  0.0413 -0.2072 -0.1809
16624W        W32698   7.195  16.173  13.017 -0.0744 -0.0127 -0.2178
16625W        W32699  18.113   3.133   3.193 -0.0868 -0.1292  0.2317
16626W        W32700  13.294   3.031  13.014 -0.1077 -0.1232 -0.2615
16627W        W32701   3.480   1.716   1.047 -0.1640  0.1653  0.3229
16628W        W32702   2.212   7.279   9.622  0.0281 -0.0118  0.2065
16629W        W32703   8.572   0.592  15.757 -0.1322  0.1021 -0.1570
16630W        W32704  14.394   6.106  13.209 -0.1582  0.0730 -0.3909
16631W        W32705   2.380   5.077  14.104  0.0442 -0.1259  0.0983
16632W        W32706   8.687   8.135  14.617  0.1213 -0.1431 -0.0366
16633W        W32707   8.604   8.512  11.724  0.1296 -0.0480  0.0996
16634W        W32708   0.142   2.372  15.507 -0.1538 -0.2091 -0.1562
16635W        W32709   8.162  17.216   4.301  0.0854 -0.2047  0.0576
16636W        W32710   0.066   2.388  14.538  0.1580 -0.0225 -0.1074
16637W        W32711   1.568  11.187   5.204 -0.2025  0.3662  0.0248
16638W        W32712  16.733   2.721   4.610  0.2677  0.1315  0.2366
16639W        W32713   7.553   5.692   2.754  0.0813 -0.2116  0.0573
16640W        W32714   5.231   2.431   2.070  0.3004  0.1962  0.0538
16641W        W32715   7.571   5.548   5.703 -0.2874 -0.3373 -0.2758
16642W        W32716   9.996  16.591  15.638 -0.1950  0.0130  0.0510
16643W        W32717   5.865  12.382   1.360  0.0852  0.0432  0.1600
16644W        W32718   5.760  12.677  15.407 -0.2015  0.0969  0.0193
16645W        W32719   6.877  13.751   5.324  0.2654 -0.0878 -0.1438
16646W        W32720   5.077  16.670  14.927 -0.1938  0.0782  0.2446
16647W        W32721   7.061   1.560  15.270  0.0031  0.0581  0.1871
16648W        W32722   8.066  13.426   3.408 -0.0105  0.0073 -0.2178
16649W        W32723  14.267   6.422   1.450  0.3870  0.1364  0.2476
16650W        W32724   2.331   0.227  13.825 -0.2060 -0.0243 -0.0541
16651W        W32725   0.707  15.334   4.258  0.0429  0.0197  0.1024
16652W        W32726   0.996  11.396   2.457  0.0906 -0.0647 -0.1939
16653W        W32727   1.869   3.970   1.827 -0.1358  0.1319  0.0863
16654W        W32728   7.075  10.034   0.681 -0.1305  0.3517  0.2553
16655W        W32729  10.908  12.772   1.191 -0.0521  0.0461 -0.2150
16656W        W32730   9.385   7.121  11.535 -0.1541  0.1951  0.1580
16657W        W32731   6.368  18.102   3.100 -0.2387  0.0967  0.1752
16658W        W32732  14.047  11.261  15.780 -0.4469  0.3653  0.1751
16659W        W32733   8.020   4.331  15.104  0.2410 -0.1132 -0.0280
16660W        W32734  15.422   8.606   0.701 -0.2016  0.1263  0.4073
16661W        W32735  15.104   3.999   4.759 -0.0590 -0.0988 -0.0460
16662W        W32736  13.985  10.547  13.634  0.0311 -0.0521 -0.0632
16663W        W32737  12.643  17.857  12.820 -0.0216 -0.0558  0.0764
16664W        W32738   4.936   1.568   1.749  0.2266 -0.2012  0.3558
16665W        W32739   4.487   4.809  11.470  0.0683  0.0681  0.0043
16666W        W32740   5.000   0.757   1.455 -0.0379 -0.1743 -0.0648
16667W        W32741  11.130   5.234   4.814  0.3314  0.2064  0.0936
16668W        W32742  14.694  16.979  12.968  0.2696  0.2203  0.0029
16669W        W32743  16.601   3.643  13.728  0.3446  0.0854  0.3347
16670W        W32744  13.258   7.324  16.459  0.1296  0.1749 -0.0270
16671W        W32745  14.152   9.752  12.395  0.3008  0.0179 -0.2766
16672W        W32746   5.669   2.655  13.862 -0.1732 -0.1306 -0.2915
16673W        W32747   9.185  11.570  12.312 -0.2066  0.0249 -0.2456
16674W        W32748   4.977   3.348   0.585  0.1106  0.0338  0.0747
16675W        W32749   9.044   3.398  13.576 -0.0231 -0.1665 -0.0932
16676W        W32750  12.674   1.656  16.050  0.1790  0.1841  0.0180
16677W        W32751   6.389   0.292   2.823  0.0817  0.1437  0.1091
16678W        W32752   0.739   3.820  14.116  0.4263  0.0574 -0.1259
16679W        W32753   2.706   5.514   4.799  0.0614  0.0158  0.3488
16680W        W32754   3.912  10.252   3.020  0.0343  0.0256 -0.0640
16681W        W32755   2.064   6.731   3.601 -0.0180  0.2529  0.1036
16682W        W32756  15.871  17.477  15.069 -0.0308  0.2923 -0.3298
16683W        W32757   7.079  15.475  15.452  0.0507  0.0853  0.1533
16684W        W32758   3.408   1.838  11.982 -0.0986 -0.0544  0.0775
16685W        W32759  10.605  13.551   4.755 -0.1052  0.0429  0.0342
16686W        W32760   5.627  14.472  14.393 -0.1666  0.0273  0.0386
16687W        W32761   8.063  10.813  10.226  0.2560 -0.1422 -0.1895
16688W        W32762  17.989   1.674  16.152  0.0915 -0.1975  0.3789
16689W        W32763   7.718  10.245   3.175  0.1416 -0.2001  0.1536
16690W        W32764  11.357  15.051  15.224 -0.1061 -0.0252 -0.1151
16691W        W32765  13.973   8.440  12.973  0.0390 -0.1700  0.1673
16692W        W32766   1.017   0.289  14.452  0.3534  0.0598 -0.0490
16693W        W32767   5.389   9.640  16.058 -0.0834 -0.1438  0.0551
16694W        W32768   4.287   0.518   2.027  0.0966  0.1848  0.0157
16695W        W32769   3.358   4.954   1.154 -0.3565 -0.1764 -0.0428
16696W        W32770   6.622  13.594   4.888  0.2009 -0.1742  0.1195
16697W        W32771   5.009   5.648  11.147  0.1887 -0.0746 -0.0729
16698W        W32772  12.439  13.283   5.703  0.2755 -0.3079 -0.1201
16699W        W32773   4.470   4.384  11.229  0.1199 -0.3628  0.2494
16700W        W32774  15.754   3.371   2.300 -0.0291  0.0644 -0.1300
16701W        W32775  10.905  17.956   0.584  0.0709  0.1016 -0.4575
16702W        W32776  17.061  13.611   5.183 -0.0364  0.0498  0.1335
16703W        W32777  14.153  17.568   5.732 -0.2586 -0.1287  0.1668
16704W        W32778   2.096   0.577  13.205 -0.0631 -0.2463  0.3602
16705W        W32779  16.327   7.538  15.971  0.1365  0.1960  0.0255
16706W        W32780   5.887  12.733   5.316  0.2399  0.2112 -0.0983
16707W        W32781  17.909  10.554  12.138 -0.2695 -0.3364 -0.2720
16708W        W32782  14.555   1.681   5.209 -0.4497  0.1250 -0.1406
16709W        W32783  17.624   7.248  12.770 -0.4224  0.0062  0.3028
16710W        W32784   8.388   9.767  13.087 -0.0870  0.1695  0.2191
16711W        W32785   7.972   1.311  11.236 -0.0312 -0.1997 -0.1377
16712W        W32786   6.124   4.575  12.537  0.0832 -0.1196 -0.1360
16713W        W32787  13.254   3.204   3.004 -0.2491 -0.1129 -0.0247
16714W        W32788   3.287  17.633   1.150 -0.1634  0.0019  0.1309
16715W        W32789   7.915  11.021   0.183 -0.2670 -0.0838 -0.0157
16716W        W32790   0.740  11.481  12.325  0.2878  0.0124  0.0785
16717W        W32791   0.714  12.816  16.010 -0.2713  0.0812 -0.0339
16718W        W32792   9.940  10.039  14.293 -0.0622  0.1049  0.1111
16719W        W32793  12.379  15.041   1.914 -0.1823 -0.3427  0.1932
16720W        W32794  11.911   6.336  12.397 -0.0143 -0.3394  0.0937
16721W        W32795   1.811  10.651   0.029 -0.1261  0.0992 -0.0205
16722W        W32796   4.897   8.326   2.596 -0.0615  0.0267  0.2989
16723W        W32797   4.329   1.602   3.614 -0.1767  0.4929 -0.1440
16724W        W32798   0.514   0.055   1.978 -0.1652 -0.3610  0.0334
16725W        W32799   4.388  12.108   0.597  0.3646 -0.1206  0.0535
16726W        W32800   7.355  12.379  15.216  0.0911  0.0397  0.2587
16727W        W32801   3.891  12.690   2.913  0.0758  0.1275  0.0366
16728W        W32802   1.030  10.239   5.324  0.1664 -0.3318  0.3625
16729W        W32803  10.068  10.492  16.242  0.3022 -0.0177  0.0095
16730W        W32804  10.480  14.246   2.230  0.4360  0.0852  0.0930
16731W        W32805   9.315   6.335   2.854 -0.0677 -0.1192 -0.0708
16732W        W32806   3.199   1.473  11.591 -0.0931 -0.3660 -0.0963
16733W        W32807  11.326  17.322  14.566 -0.2651  0.3436 -0.2032
16734W        W32808  16.540   5.971  15.951 -0.1367  0.1055 -0.1777
16735W        W32809  14.690   6.553   1.684  0.2419  0.0809 -0.1421
16736W        W32810   4.701  15.450  12.645 -0.1036 -0.2608  0.0846
16737W        W32811  12.092  14.441   5.805  0.0655  0.0245  0.2827
16738W        W32812  10.098  18.067  12.653 -0.0935  0.0632 -0.0574
16739W        W32813   0.919   5.068   6.298  0.3508  0.0930  0.1192
16740W        W32814   6.098   8.593  13.699  0.0595  0.0435 -0.0766
16741W        W32815  10.952   2.761   4.947 -0.0533  0.1053  0.0346
16742W        W32816   2.694   0.113   3.206 -0.1770 -0.2552 -0.1079
16743W        W32817  13.317   3.167  13.714  0.0661  0.1070  0.1183
16744W        W32818   9.365  10.954   2.977 -0.0522 -0.2709 -0.0962
16745W        W32819   1.454  12.081   1.784 -0.0921 -0.0823 -0.1850
16746W        W32820   3.738   7.814  11.796 -0.0969  0.0917 -0.1215
16747W        W32821  14.623  11.219   3.397 -0.0877  0.0820  0.2736
16748W        W32822  16.244  14.742  11.777  0.0085  0.1136 -0.2123
16749W        W32823  13.892  12.061  13.230 -0.1689 -0.1744  0.0553
16750W        W32824   2.940   0.911  13.552 -0.1695 -0.0534 -0.0591
16751W        W32825   9.464   5.559  11.734 -0.2913  0.0647  0.4048
16752W        W32826  11.135   4.158  12.797  0.1139  0.2175  0.1068
16753W        W32827  10.389   3.667   3.736 -0.0076 -0.0702 -0.3035
16754W        W32828   4.977   2.105   5.236 -0.0723 -0.0359  0.0410
16755W        W32829   3.637  15.037  13.830 -0.1245 -0.1608  0.2249
16756W        W32830  14.392  13.577   5.452  0.2213  0.0299 -0.1977
16757W        W32831  14.451   9.489   5.112  0.1020  0.1403 -0.2000
16758W        W32832   8.343  13.462  15.212  0.0879 -0.1506 -0.2067
16759W        W32833   0.842   3.140  12.872 -0.2292 -0.1932  0.2739
16760W        W32834  11.462  14.130  13.220 -0.0503 -0.1952  0.1252
16761W        W32835   1.452  18.003  14.389  0.0597 -0.0006  0.1435
16762W        W32836  11.343   6.741  11.338  0.2843 -0.0218 -0.0737
16763W        W32837   2.381  11.955   3.009 -0.0380 -0.0555  0.3359
16764W        W32838   7.369   6.009  12.078  0.1915 -0.0370  0.2284
16765W        W32839   1.247   3.939   4.263  0.2416 -0.0949 -0.1465
16766W        W32840   7.808  11.722  14.179  0.1317 -0.1204  0.3312
16767W        W32841  17.637   4.440   1.449 -0.1008  0.2011 -0.1429
16768W        W32842   6.000  12.074   1.949 -0.2030  0.3070  0.2002
16769W        W32843  13.372   0.545  15.922  0.1664 -0.1663 -0.1593
16770W        W32844   2.667   5.096  12.146  0.0861 -0.1201  0.1343
16771W        W32845  15.058   1.061   2.746  0.2042  0.0641  0.1175
16772W        W32846   6.026   4.574   4.037  0.0718  0.0457 -0.0102
16773W        W32847  11.465   1.950   0.047  0.0240 -0.0064  0.1017
16774W        W32848  14.896   0.914   0.726  0.1519  0.1104  0.1152
16775W        W32849  13.343   4.034  14.839 -0.2452 -0.1217  0.1729
16776W        W32850   6.876  13.266  14.380 -0.1446  0.3685  0.2176
16777W        W32851  13.111  10.049   4.107 -0.3101 -0.1078 -0.0262
16778W        W32852   9.451   8.035  15.329  0.0691 -0.1431 -0.2679
16779W        W32853  11.727  10.350   3.531  0.2107  0.0086 -0.3076
16780W        W32854   1.730  16.145   6.031 -0.3195 -0.3648 -0.0202
16781W        W32855   8.367  11.577  13.522 -0.2324  0.1217 -0.3587
16782W        W32856   3.750   0.450   1.886  0.0795 -0.3666 -0.6069
16783W        W32857   9.247  11.545  14.448  0.0153  0.0718  0.0044
16784W        W32858  15.195   8.926  15.355  0.1969  0.1007  0.3738
16785W        W32859  12.021  17.452   4.193 -0.0126  0.1098 -0.2998
16786W        W32860   4.380   8.608  12.335 -0.1039  0.5145  0.0502
16787W        W32861   8.782  13.461  11.844  0.0989 -0.2907 -0.1515
16788W        W32862   3.979   9.673   2.298 -0.0402 -0.0417 -0.1057
16789W        W32863  12.023  11.455  11.113 -0.0733  0.2534 -0.2030
16790W        W32864   1.998  11.281   0.170 -0.2803  0.0968  0.1103
16791W        W32865   3.669   6.232  11.728  0.2460  0.0971  0.0121
16792W        W32866   4.967  10.544  11.812  0.0650  0.0159 -0.3890
16793W        W32867   7.475  17.962   5.035 -0.1136 -0.0127 -0.0208
16794W        W32868   9.091   8.906   2.292  0.3094  0.2530 -0.1080
16795W        W32869  14.124  17.456  13.045 -0.0992  0.1571 -0.0154
16796W        W32870   0.917   5.753   0.712 -0.0228  0.3422 -0.1370
16797W        W32871   8.817   0.653   3.339  0.0230  0.1573 -0.2178
16798W        W32872  17.487  10.568  13.997  0.0802 -0.0517  0.2609
16799W        W32873  15.739   1.682   5.439 -0.0831  0.3436  0.0149
16800W        W32874  14.964   6.535  13.772 -0.1006  0.0437 -0.2146
16801W        W32875   4.065   9.232  13.441 -0.0784  0.0128  0.1029
16802W        W32876   7.203   7.475  14.991  0.0557 -0.1395  0.1701
16803W        W32877   4.707   8.423   3.077  0.2830  0.0545 -0.0131
16804W        W32878  11.251  16.618  15.002 -0.1726 -0.0016 -0.0172
16805W        W32879   7.212  10.501   0.819  0.0812  0.1348  0.5041
16806W        W32880   8.129  15.220   6.413  0.4211 -0.2749 -0.1358
16807W        W32881  12.454  11.715  12.346 -0.3258 -0.0594  0.0072
16808W        W32882   4.056   6.631  16.178 -0.1127  0.0261 -0.0594
16809W        W32883   7.046   5.859  11.419  0.1020  0.0975  0.1461
16810W        W32884   6.777  10.804   1.709 -0.3022 -0.0371  0.0230
16811W        W32885  15.113  16.387   0.017 -0.1590  0.3948  0.1139
16812W        W32886   2.758   7.511  14.756  0.0980  0.0591 -0.3821
16813W        W32887   4.265   4.371   0.017  0.1310 -0.2065 -0.0315
16814W        W32888   3.628   3.568  12.932 -0.1309  0.0597  0.2152
16815W        W32889   7.257  10.798  13.935  0.0682 -0.1313 -0.0147
16816W        W32890  15.778   9.372   4.240  0.0074 -0.2026  0.0288
16817W        W32891   7.946  14.768  16.359 -0.0179 -0.0802 -0.3530
16818W        W32892   4.827   2.354   5.811  0.0470 -0.1032 -0.0492
16819W        W32893   7.679  16.753   1.476 -0.2927  0.2545 -0.0739
16820W        W32894  13.619   9.080   0.647  0.2333 -0.2144  0.0770
16821W        W32895  16.182   7.589   2.348  0.2749  0.1658 -0.1673
16822W        W32896   7.317  14.694  15.128 -0.3360  0.3220 -0.2184
16823W        W32897   5.600  16.814  16.435  0.1299  0.0644 -0.0403
16824W        W32898   5.065  10.492   3.364  0.1272 -0.2201 -0.1120
16825W        W32899  15.199   5.986   1.359 -0.0306  0.1665  0.4512
16826W        W32900  16.490   3.463   4.819 -0.0956  0.2410  0.3003
16827W        W32901  14.452  16.338   1.175  0.0153  0.0846  0.1369
16828W        W32902  17.820   8.559   3.202  0.0328  0.1825  0.3245
16829W        W32903  14.535  10.717   2.125 -0.0358  0.2403 -0.0454
16830W        W32904  18.146   7.500  11.812  0.2627 -0.2597  0.0290
16831W        W32905   1.967   9.128  11.245  0.1634  0.1112  0.1392
16832W        W32906   4.408  13.688  11.832 -0.2858 -0.1068 -0.2602
16833W        W32907   0.065   0.355   1.950 -0.1424  0.1993 -0.2871
16834W        W32908  12.326  13.762   5.490 -0.1653 -0.3052  0.1181
16835W        W32909   1.500   5.143   2.656  0.0194 -0.1182 -0.2414
16836W        W32910  11.304  13.059  11.082 -0.1171  0.0841 -0.2329
16837W        W32911  15.212   0.903  14.622 -0.1878  0.0534 -0.1228
16838W        W32912  14.353  10.789   3.123 -0.1014  0.1695  0.1102
16839W        W32913   1.210  17.530   1.886  0.0875  0.1154 -0.0985
16840W        W32914  13.899  17.500   0.831  0.0086 -0.0208 -0.2619
16841W        W32915  13.942  17.439  13.628  0.0915  0.1023  0.1419
16842W        W32916  15.586  12.053  12.893  0.2901 -0.0089  0.1698
16843W        W32917  14.353   8.331   5.029 -0.0639  0.0260  0.1321
16844W        W32918   4.928  14.812  14.799  0.2147 -0.0068  0.0441
16845W        W32919  15.653   1.188  12.635  0.3407  0.0622  0.1500
16846W        W32920   1.834   5.602   0.785  0.2548 -0.0343  0.0103
16847W        W32921   0.874  10.222  13.497 -0.0090 -0.0045  0.3536
16848W        W32922  14.647   6.649   4.014  0.0290  0.2917  0.0849
16849W        W32923   1.195  14.969   1.170 -0.0082  0.0541  0.3702
16850W        W32924  11.987  15.678   5.130 -0.2782  0.0983  0.1050
16851W        W32925   9.834  16.377  12.070  0.0089  0.0390  0.2453
16852W        W32926  10.155  13.906  16.171 -0.3498  0.2613  0.2032
16853W        W32927   0.573  12.514  15.072  0.0758 -0.0238 -0.0273
16854W        W32928   0.499   0.065  16.415  0.2878  0.0590 -0.1384
16855W        W32929  17.910   9.591   0.198  0.0141 -0.0907  0.1803
16856W        W32930   5.271  11.243   1.426 -0.0915 -0.0696  0.1025
16857W        W32931   4.190   8.799  14.523 -0.2461  0.1442  0.1953
16858W        W32932  13.971   6.182   1.125 -0.0954  0.0935  0.2189
16859W        W32933   6.335  15.955   3.477 -0.0605 -0.5585  0.0470
16860W        W32934  10.483   7.975  13.571  0.0085  0.1141 -0.0077
16861W        W32935   5.509   8.199   1.964  0.1985 -0.2551  0.0145
16862W        W32936  11.913   5.577  13.175  0.2282 -0.3364  0.2677
16863W        W32937   6.958   6.642  14.590  0.0438 -0.0407  0.1460
16864W        W32938   3.481  10.455   2.137 -0.0049 -0.0628  0.2775
16865W        W32939   3.683  15.036   1.584  0.1791  0.1813 -0.2275
16866W        W32940  16.717   3.747   0.852 -0.0157  0.0965  0.1304
16867W        W32941   7.159   3.489   1.213 -0.2114  0.3471  0.0002
16868W        W32942   9.977   6.093   4.672  0.1594 -0.1065 -0.1107
16869W        W32943   3.057  16.068   4.867 -0.3016  0.0221  0.2686
16870W        W32944  15.164  16.826  12.727  0.2351  0.1617 -0.1272
16871W        W32945  12.715   9.586   1.244  0.0561  0.2149 -0.3522
16872W        W32946   1.925   7.373  11.661  0.2129  0.2752 -0.1579
16873W        W32947  17.778   4.164  14.580 -0.0525 -0.2236  0.1078
16874W        W32948  15.340   5.005   3.769  0.1844  0.1318  0.0228
16875W        W32949   6.184  13.733  12.915 -0.1356  0.0219  0.0191
16876W        W32950  15.912  17.144   0.624 -0.3086 -0.1412  0.1223
16877W        W32951   6.226  17.640   4.885  0.3303  0.0977  0.0804
16878W        W32952  16.466   1.258   0.972  0.2545  0.0868  0.1873
16879W        W32953   7.662   5.359  16.192  0.0948 -0.3190  0.0623
16880W        W32954   8.849   9.328  12.171 -0.0140  0.1369  0.0487
16881W        W32955  15.019  12.883  15.357 -0.2352  0.0319 -0.0491
16882W        W32956   5.759  16.021   0.735  0.2594 -0.1268 -0.0070
16883W        W32957   8.960   9.903  15.204 -0.0837  0.3065  0.2708
16884W        W32958   5.731  17.972   6.053  0.0374  0.2498 -0.5706
16885W        W32959   7.372  15.481   1.699 -0.0434  0.0133 -0.1026
16886W        W32960  12.982   7.640   1.754 -0.3078  0.3060 -0.2422
16887W        W32961  11.748   6.611   0.261 -0.2361  0.0302 -0.1683
16888W        W32962  15.552  13.000   2.131 -0.1391 -0.0541 -0.2372
16889W        W32963   7.928   0.659  14.139 -0.0714 -0.3346  0.0047
16890W        W32964  14.241   4.150   1.949  0.0473  0.1465 -0.1297
16891W        W32965   6.657  12.122  12.923 -0.0911 -0.2260  0.1266
16892W        W32966   1.599  13.979   2.237  0.1437 -0.2332  0.2118
16893W        W32967   9.592  17.528  11.874  0.1117 -0.1134 -0.1755
16894W        W32968   6.873  10.724   5.393  0.3093  0.0060  0.3097
16895W        W32969  14.372  16.391  11.974 -0.0655  0.1384 -0.1768
16896W        W32970  16.427   3.311   0.740 -0.1607  0.2525  0.3337
16897W        W32971  11.180   9.623  14.730  0.1910 -0.0346  0.2178
16898W        W32972  13.788  11.802   1.553  0.0376  0.1651  0.0197
16899W        W32973   2.344   4.718   1.380 -0.0385 -0.1048 -0.1943
16900W        W32974   7.823   8.302   1.293  0.0136  0.2026 -0.1331
16901W        W32975  11.150   1.151  12.576 -0.0511  0.0719 -0.1309
16902W        W32976  18.057  12.704   3.846 -0.4300 -0.0925  0.2605
16903W        W32977   0.295  12.579  15.530 -0.1208  0.1516  0.0297
16904W        W32978   1.444  17.483  10.541  0.1442 -0.0269 -0.0951
16905W        W32979  14.840  15.725   3.593  0.0280 -0.1936  0.2849
16906W        W32980   7.279   8.453   1.203 -0.2985 -0.0012  0.0380
16907W        W32981   2.856  12.237   2.276  0.0802 -0.1630 -0.2221
16908W        W32982  16.751   9.822  14.173  0.0995  0.0318 -0.1298
16909W        W32983   6.179   5.071   1.652 -0.2126  0.2342 -0.3512
16910W        W32984  14.533   2.211   6.145 -0.0705 -0.0506 -0.2956
16911W        W32985  17.723   2.083  13.895 -0.2372  0.0002  0.4063
16912W        W32986   8.375   0.580  16.416  0.0890  0.0100 -0.0364
16913W        W32987   1.199   3.695  13.707 -0.1206  0.1304  0.0687
16914W        W32988  15.715  11.139   3.248  0.2233  0.1460 -0.1901
16915W        W32989  14.530  11.367   2.883 -0.0048 -0.0035  0.0324
16916W        W32990   5.909   0.679   2.857 -0.0043  0.0054  0.4161
16917W        W32991   0.343  16.446  14.250 -0.0180 -0.0880  0.2652
16918W        W32992  15.819   7.014   2.426 -0.1579  0.0708  0.2986
16919W        W32993  16.420   2.522  14.148  0.0295  0.0586 -0.2089
16920W        W32994  15.583   3.583   0.357 -0.0673 -0.2215 -0.1372
16921W        W32995   7.494   0.913   2.387  0.0013  0.2121 -0.0405
16922W        W32996  14.108  18.156   4.447 -0.0630 -0.1402 -0.2141
16923W        W32997   7.744   2.431   3.293  0.4123  0.2138 -0.0192
16924W        W32998   3.855  11.702   2.517 -0.1394  0.1720  0.0383
16925W        W32999   3.827   6.969  14.539 -0.0229  0.0191  0.1506
16926W        W33000   7.907   4.392   2.391  0.1750 -0.1502 -0.0164
16927W        W33001  14.635  15.924   1.641  0.2156  0.0629 -0.0014
16928W        W33002  14.706  15.796   4.728 -0.0501  0.1438 -0.0252
16929W        W33003  17.538   4.258   3.171  0.0383 -0.0799 -0.1900
16930W        W33004  12.611   5.550   4.112  0.0149 -0.4425  0.0569
16931W        W33005  10.144  12.314  14.471 -0.1618  0.2109 -0.1609
16932W        W33006   0.110  15.118   2.778 -0.0491 -0.0512  0.1239
16933W        W33007   4.253  15.402   2.333 -0.0130 -0.2153 -0.0551
16934W        W33008   5.494   3.909  12.122 -0.1311 -0.4966  0.3172
16935W        W33009  10.387  16.056   4.437 -0.0799  0.0046 -0.3497
16936W        W33010   4.340  11.334   4.337 -0.0989 -0.0579  0.2447
16937W        W33011  14.686   9.123  14.039 -0.0443 -0.4832 -0.1338
16938W        W33012  13.562  14.501  12.227 -0.0956  0.2692  0.0285
16939W        W33013  13.361  16.035  12.388  0.3459  0.2429 -0.0749
16940W        W33014  17.081  15.619  15.862  0.0929  0.1487  0.0097
16941W        W33015   7.026   8.170  14.465 -0.2729  0.1140  0.2294
16942W        W33016  10.758  17.657  15.936  0.6031 -0.0215 -0.2759
16943W        W33017   8.485   4.033  15.338 -0.6682  0.0202  0.1984
16944W        W33018   2.967   6.391   3.756 -0.0704 -0.0671 -0.0696
16945W        W33019  17.107   0.944  11.289 -0.3018 -0.2732  0.1631
16946W        W33020   0.582   0.153  15.545 -0.0539  0.0852  0.0092
16947W        W33021  14.887  11.026   4.388  0.2183  0.0902  0.0316
16948W        W33022   2.325   2.187  11.300  0.3366 -0.3265  0.1760
16949W        W33023  14.188  16.069   5.907 -0.3772  0.0277 -0.3181
16950W        W33024   7.689  10.934  11.821  0.1114  0.1942  0.1296
16951W        W33025   7.030  12.255  14.803  0.1618 -0.0957 -0.0133
16952W        W33026   2.923  16.070  11.647 -0.1342  0.2420 -0.0119
16953W        W33027   6.529   3.699  15.596 -0.0724 -0.0985  0.2517
16954W        W33028  12.500   7.171  12.648 -0.0311  0.2473  0.0793
16955W        W33029   8.329  11.681   5.642  0.2093  0.0609 -0.1188
16956W        W33030  14.185   8.368   4.110  0.0725  0.1882 -0.1250
16957W        W33031   3.219   6.818   3.972  0.1979  0.0585 -0.2632
16958W        W33032   0.244   2.742  15.754  0.2954 -0.0607  0.0996
16959W        W33033   5.083   6.108  11.371  0.1727  0.0997 -0.0438
16960W        W33034  12.875   0.275   2.556 -0.2328  0.1370  0.1097
16961W        W33035   1.465   0.241   3.871  0.1232 -0.2617 -0.0713
16962W        W33036   3.887  13.930  11.993 -0.0877 -0.0421  0.0673
16963W        W33037   6.597  14.487   5.363  0.4311 -0.1112 -0.1362
16964W        W33038   3.013  13.072   1.403 -0.3417  0.0311 -0.0895
16965W        W33039  17.945  15.898   4.450 -0.2637  0.0542  0.3900
16966W        W33040   5.970   9.659  15.956 -0.3218 -0.0579 -0.0987
16967W        W33041   8.738   2.136  13.430 -0.1143 -0.3610 -0.2822
16968W        W33042   1.748  10.393  12.802 -0.0805  0.1728  0.1407
16969W        W33043  10.445   1.617  11.783  0.2882  0.2929 -0.0516
16970W        W33044   0.506   7.074   5.096  0.0642  0.2574 -0.1075
16971W        W33045  15.936   5.762   1.096 -0.1851 -0.1734  0.3889
16972W        W33046   9.026   6.108  12.545  0.3925 -0.1696  0.0254
16973W        W33047   6.870  14.956   1.805  0.1409  0.0939  0.0543
16974W        W33048  12.427  14.245   0.372  0.1234 -0.1248  0.0661
16975W        W33049   4.981   7.496   4.087 -0.1354  0.1292 -0.0984
16976W        W33050   0.680  17.319   4.806 -0.1754 -0.1011 -0.1888
16977W        W33051  16.962   1.394  12.726  0.0702 -0.1664 -0.3575
16978W        W33052   9.857   9.792  15.681  0.1605 -0.2352  0.0591
16979W        W33053   9.589  14.561   3.444 -0.2093 -0.0844 -0.1990
16980W        W33054  10.713   2.070  13.850 -0.3644 -0.0747  0.4583
16981W        W33055  14.046   9.112  12.333  0.3949  0.2580 -0.1950
16982W        W33056  13.197   7.441  12.441 -0.0936 -0.2392  0.2647
16983W        W33057   7.883   0.644   2.456 -0.1109 -0.0159  0.0771
16984W        W33058  11.190  12.750  15.323 -0.0733 -0.0189  0.0017
16985W        W33059  12.888   5.149  14.148  0.5051  0.2435 -0.2079
16986W        W33060   7.836   6.353  15.882 -0.1758  0.0952 -0.1205
16987W        W33061  15.770   4.714   2.773  0.1215  0.3123 -0.0111
16988W        W33062   1.800   5.555  14.748 -0.1840  0.1091 -0.2105
16989W        W33063  13.576   9.299  13.035  0.0374  0.0374  0.0291
16990W        W33064  13.398  12.394   2.200 -0.0613  0.2434  0.0952
16991W        W33065  14.577  15.316  13.364  0.0416  0.1027  0.0620
16992W        W33066   3.369   4.579  15.085 -0.3340 -0.3665 -0.1755
16993W        W33067   4.153   5.732  13.747  0.0155  0.2417 -0.3606
16994W        W33068  15.879  13.266  11.829 -0.4698 -0.0448  0.2664
16995W        W33069  16.660   2.682  11.887 -0.1211  0.2651 -0.1352
16996W        W33070  15.463   7.039   5.224 -0.0893 -0.0721 -0.1102
16997W        W33071  17.769   8.913  14.905  0.0090 -0.2228  0.5670
16998W        W33072   2.155   0.927  14.069 -0.0532  0.2006 -0.1028
16999W        W33073   5.598  16.993   4.310  0.1693 -0.0192  0.1128
17000W        W33074   2.495  17.158   5.780  0.0081 -0.1807  0.1555
17001W        W33075  10.514  10.815  12.623 -0.1741  0.1286 -0.2648
17002W        W33076  10.276   3.147   0.324 -0.2695 -0.1284  0.2682
17003W        W33077   2.937   7.943  14.602 -0.1218 -0.1732  0.1347
17004W        W33078   6.130   4.561   1.697  0.2484  0.0411 -0.0878
17005W        W33079   5.212   5.287  16.042  0.1445 -0.0270 -0.0539
17006W        W33080   9.305   1.472   0.426  0.3033 -0.0852  0.3885
17007W        W33081   9.860  13.303  11.643  0.1466 -0.0662 -0.0596
17008W        W33082  14.234   6.430   5.339 -0.0424 -0.0742 -0.0989
17009W        W33083  16.525   3.583   1.444  0.1370  0.0435 -0.2944
17010W        W33084   1.438   6.688  15.116 -0.1151  0.2401 -0.6193
17011W        W33085  16.541   2.912   5.516 -0.1074  0.0694 -0.0993
17012W        W33086   3.619  17.131  12.701 -0.1121  0.1742 -0.4340
17013W        W33087   3.440  14.455   3.534 -0.0987  0.0745  0.2849
17014W        W33088  10.928   7.369   1.487  0.4109  0.1536 -0.2209
17015W        W33089   8.182  10.263   2.868  0.2935  0.2369 -0.0226
17016W        W33090   6.958   9.030   0.485  0.4878 -0.0975 -0.2845
17017W        W33091   4.874   7.512   2.974  0.1654  0.3338 -0.0325
17018W        W33092  17.704  16.119   3.607  0.1826 -0.0803 -0.0630
17019W        W33093  10.458   9.932  11.365  0.1603  0.1329 -0.0578
17020W        W33094  15.648  18.106  11.607 -0.0837  0.0557 -0.1796
17021W        W33095   3.214  15.431  12.764  0.0631  0.1864  0.0170
17022W        W33096   1.205  10.798  13.874  0.1342 -0.0207  0.2348
17023W        W33097   8.279   7.877   1.565  0.0563  0.0637  0.0491
17024W        W33098  12.945   5.747   6.046  0.1742  0.2042 -0.0547
17025W        W33099   9.790   1.057  13.522  0.2239  0.2377 -0.1221
17026W        W33100  16.114   5.502  11.681 -0.1927 -0.0677 -0.3555
17027W        W33101  10.466   5.292   2.710  0.1413  0.2339  0.1678
17028W        W33102  14.608   0.324  13.701  0.1530 -0.1520 -0.1929
17029W        W33103   1.590  17.742   3.177  0.0230  0.2303  0.0568
17030W        W33104  11.752   7.718   1.489 -0.1463  0.0683 -0.0983
17031W        W33105   0.414  11.012   4.482  0.2050 -0.0171  0.0073
17032W        W33106  11.399  12.821   0.930  0.1441  0.0098 -0.0839
17033W        W33107   1.370   8.920  14.194  0.1540  0.0440 -0.3972
17034W        W33108  14.583   1.474   4.129  0.3911  0.3759  0.0579
17035W        W33109  17.145  17.537  15.819 -0.3107  0.0353  0.1587
17036W        W33110   0.976   7.592  11.742 -0.2476  0.1841 -0.1004
17037W        W33111   7.516   3.221  14.624  0.1679  0.0473 -0.4378
17038W        W33112  16.098   1.758   3.267 -0.0250  0.2081 -0.0902
17039W        W33113  10.532   5.687  14.469  0.1123 -0.2411 -0.1527
17040W        W33114  13.098  16.854  12.148  0.1333  0.1795  0.1193
17041W        W33115  16.458  15.692   2.932  0.2747 -0.2535  0.0244
17042W        W33116   0.063  12.054   1.728 -0.0724  0.2913  0.0636
17043W        W33117   1.025   0.402  13.221 -0.0996 -0.2768 -0.0702
17044W        W33118   8.298   0.847   1.822  0.1387 -0.0244 -0.2407
17045W        W33119   1.404  15.348  11.180  0.0836 -0.3614  0.0659
17046W        W33120  12.445  12.095  15.573 -0.2232 -0.0056 -0.0668
17047W        W33121   8.308   6.071   5.687 -0.1700  0.1152  0.1530
17048W        W33122  11.262  15.635   2.241 -0.1714 -0.1803  0.1157
17049W        W33123  11.676   0.308  14.847 -0.0971 -0.0368 -0.0195
17050W        W33124   9.275   3.567  11.232  0.0233 -0.0091 -0.1986
17051W        W33125  14.029   9.016   4.689 -0.0164  0.3041  0.0065
17052W        W33126   7.317   6.820  15.756  0.1641  0.0399 -0.3428
17053W        W33127  12.973   5.441   2.090  0.0787  0.0429  0.0914
17054W        W33128   0.593   1.574  14.300 -0.4319  0.0063  0.0469
17055W        W33129  12.859   0.131   3.270 -0.2876  0.0978  0.1354
17056W        W33130   4.284   6.780  14.522  0.2185 -0.0601  0.2013
17057W        W33131  15.342  15.621   5.071  0.1585 -0.0903 -0.0036
17058W        W33132   4.863  13.262   5.634 -0.1158  0.0318 -0.3509
17059W        W33133   6.953  14.035   4.887 -0.2594 -0.2360  0.1512
17060W        W33134  17.956  14.013   1.263 -0.1500 -0.2431 -0.0172
17061W        W33135  16.173  14.849  16.361 -0.1008  0.0515 -0.0241
17062W        W33136   3.146  11.310  12.136  0.2723  0.0195 -0.1612
17063W        W33137   1.980   9.558   1.730  0.1464 -0.3303  0.0562
17064W        W33138   5.635   4.089   5.166 -0.1938  0.0849  0.1416
17065W        W33139  11.223  17.786  11.602 -0.0703 -0.3138 -0.0549
17066W        W33140  17.044  18.176   0.017  0.2865  0.1441 -0.1327
17067W        W33141   1.328   2.456   2.423  0.1705 -0.0353  0.0755
17068W        W33142  10.357   8.911  11.617  0.2377  0.0355 -0.0098
17069W        W33143   3.864   2.082   4.396 -0.2178 -0.0481 -0.2108
17070W        W33144  11.548   1.460   5.353 -0.0809 -0.1091  0.3239
17071W        W33145  10.636   9.957   4.384  0.1407 -0.0112  0.2453
17072W        W33146   0.450   1.431   4.036  0.1206 -0.3260 -0.0115
17073W        W33147   1.165  16.607   0.422 -0.0277  0.0466 -0.1120
17074W        W33148   1.197   5.332  13.805  0.0694  0.1940  0.4813
17075W        W33149   8.494   2.080   2.104 -0.0292 -0.2597 -0.2417
17076W        W33150  15.412  11.953  11.710  0.2443 -0.1959 -0.0704
17077W        W33151   0.800   7.521   3.062  0.0861 -0.1163  0.2236
17078W        W33152   7.602   7.390  15.810  0.2583 -0.0569  0.0470
17079W        W33153  12.749  18.060  11.727  0.0228 -0.2366 -0.3951
17080W        W33154  11.146   2.639   1.146 -0.0348  0.0806  0.0031
17081W        W33155  14.310  15.170  15.258 -0.1351  0.0175  0.0865
17082W        W33156  14.457   3.062   2.316 -0.0529 -0.0018  0.0640
17083W        W33157  12.996  17.138  14.551  0.0507  0.1383  0.1696
17084W        W33158   5.593  12.686   0.195 -0.1405  0.1277 -0.1439
17085W        W33159  16.524   5.469   0.319  0.1095  0.0463 -0.0143
17086W        W33160   1.389  13.728   1.783 -0.0848  0.1785 -0.3278
17087W        W33161  12.732  12.120   5.745  0.0087  0.1870  0.4282
17088W        W33162   7.286  11.207   0.384 -0.2472  0.1886 -0.4460
17089W        W33163  17.406  15.298  16.388  0.1080 -0.0594 -0.0858
17090W        W33164   8.609  13.807  13.941 -0.0082 -0.0858  0.0743
17091W        W33165   4.668  16.687   4.319  0.0911  0.3752 -0.1484
17092W        W33166   8.313   5.784  11.534 -0.0277  0.2765 -0.0085
17093W        W33167  12.963  14.230   0.779  0.0674  0.1009 -0.0058
17094W        W33168  16.121  13.097   5.840  0.0774  0.1110 -0.0236
17095W        W33169  13.939  17.345   4.419 -0.0217  0.0219  0.1834
17096W        W33170   7.006   3.848   3.334 -0.0706 -0.0622  0.3899
17097W        W33171   2.250   3.466   2.775 -0.0212  0.1448 -0.3630
17098W        W33172   0.721  10.576   4.513 -0.2332  0.0983 -0.0017
17099W        W33173   4.332  12.562  11.681  0.0362  0.0763 -0.2055
17100W        W33174  11.415  13.270   1.618 -0.1739 -0.0735 -0.2886
17101W        W33175   3.774  16.693   2.830 -0.3102  0.1079 -0.1972
17102W        W33176   8.418   2.119   3.792  0.2021  0.1052  0.3859
17103W        W33177  10.641   2.795  14.500 -0.1832 -0.2986  0.0590
17104W        W33178   2.865   4.410  14.311 -0.2827  0.1212  0.0161
17105W        W33179   4.810   7.147   0.346  0.1389  0.1334 -0.1632
17106W        W33180  17.060  13.106  15.174 -0.1057 -0.2327 -0.1611
17107W        W33181   1.406   5.484  16.269  0.2339 -0.1397  0.0552
17108W        W33182   1.359   0.391   3.326 -0.0683 -0.0103 -0.0174
17109W        W33183  14.382   7.087   2.091 -0.2832 -0.2985  0.1647
17110W        W33184   2.482  11.488   0.893  0.1753  0.0902 -0.3464
17111W        W33185  15.272   7.789  15.851 -0.2152  0.2600 -0.1215
17112W        W33186  15.037  11.811   0.059  0.1622 -0.1574  0.3135
17113W        W33187   2.428   8.768  10.304  0.3154  0.0911  0.0853
17114W        W33188   4.952  17.503  13.822 -0.1168  0.0753  0.2248
17115W        W33189  11.858  11.816   5.083 -0.1569  0.1657  0.1100
17116W        W33190  12.261  14.367  15.442  0.0813  0.3521  0.1703
17117W        W33191  10.886   3.780   4.372  0.2731  0.0526  0.0468
17118W        W33192   4.927   1.396   1.177 -0.0304 -0.0045  0.1133
17119W        W33193  16.367  17.023   2.819 -0.1415 -0.2154  0.2184
17120W        W33194   8.388   2.370   3.254  0.0319 -0.1478 -0.1438
17121W        W33195  13.761  17.434   0.300 -0.3859 -0.0872 -0.3092
17122W        W33196  14.862  13.490   3.499  0.2959 -0.1145 -0.1399
17123W        W33197   4.573   3.052   4.827 -0.4567 -0.0621 -0.1246
17124W        W33198   3.354  16.415   5.163 -0.0870  0.1071  0.3178
17125W        W33199   7.156  11.690   0.617 -0.2185 -0.0953  0.2733
17126W        W33200   0.747   6.472   1.796  0.2134  0.0657 -0.0114
17127W        W33201   8.212   1.019   5.939 -0.0260  0.1153  0.2764
17128W        W33202   8.793   0.664  13.344  0.1896  0.0852 -0.2025
17129W        W33203  13.608  10.289  16.361  0.1307  0.1689 -0.1752
17130W        W33204   8.140  12.733   2.247 -0.0206 -0.0183 -0.0192
17131W        W33205  11.881   4.043   4.113 -0.0056  0.3034 -0.1196
17132W        W33206   3.141   9.433   3.027 -0.2099 -0.0615  0.1803
17133W        W33207  12.928   3.362  12.152  0.4916 -0.0273  0.1120
17134W        W33208   5.383   7.432  11.847 -0.1801  0.3209  0.0475
17135W        W33209   5.260   0.596  14.134 -0.0949 -0.2005 -0.0786
17136W        W33210   2.038  11.746   0.227  0.1108 -0.1961 -0.1468
17137W        W33211  11.855  10.387  11.811  0.1559  0.2267  0.0261
17138W        W33212  13.113  15.210  11.837 -0.6703  0.2032 -0.5523
17139W        W33213  15.546   2.158  14.492 -0.1510  0.0214 -0.1884
17140W        W33214   6.108   0.902   1.004  0.2691 -0.0577 -0.0021
17141W        W33215   8.680   4.751  13.861 -0.0968  0.0648  0.1175
17142W        W33216   4.885  11.465   0.162 -0.1860  0.1816  0.3704
17143W        W33217   1.537  16.217  16.131  0.1322 -0.2570 -0.2498
17144W        W33218   4.659   4.809   1.644 -0.0770  0.1403 -0.2007
17145W        W33219   2.528  17.704   4.838 -0.2593 -0.0018 -0.1368
17146W        W33220   6.871   1.299   3.083  0.1754 -0.3893 -0.0103
17147W        W33221  13.555   9.862  11.864  0.1516  0.0332  0.2035
17148W        W33222   8.157  14.297   0.690 -0.1808  0.1339  0.0159
17149W        W33223   8.745  13.041  14.396  0.0688  0.0927  0.1040
17150W        W33224   9.633   5.738   1.498  0.0648  0.3169  0.0231
17151W        W33225  11.150   0.055   2.219 -0.1037  0.2949 -0.0471
17152W        W33226  18.110  17.304  12.246 -0.0072 -0.0971 -0.1363
17153W        W33227   1.605   6.580   6.069 -0.3428 -0.1629 -0.0931
17154W        W33228  10.641   4.150  13.842  0.0224  0.2324 -0.3510
17155W        W33229   8.975   7.417   4.168  0.0042  0.0369 -0.1708
17156W        W33230  12.447  11.642  15.351 -0.0493  0.1743 -0.1977
17157W        W33231   3.917  15.826   2.024  0.3973  0.1036 -0.1777
17158W        W33232   2.121   1.991   3.961 -0.1564  0.1408  0.2502
17159W        W33233  13.586  16.914  12.466  0.1186  0.0070  0.2956
17160W        W33234  15.503  14.340   4.626 -0.4144 -0.0172 -0.2074
17161W        W33235   2.224  14.772   3.525 -0.0994 -0.1499 -0.2239
17162W        W33236   6.748   6.789   2.832 -0.0006 -0.1485  0.2363
17163W        W33237  10.825   5.796  15.503 -0.2458  0.1752  0.3948
17164W        W33238  13.440  11.409   2.794  0.0009  0.1716  0.2413
17165W        W33239   5.007   8.591  15.943 -0.2091 -0.4089  0.0862
17166W        W33240   6.575   2.513  13.410  0.0028 -0.1344  0.1594
17167W        W33241   3.435  14.804   5.729 -0.1452 -0.2427  0.0958
17168W        W33242  17.710   6.630   0.793 -0.1987  0.0153  0.0147
17169W        W33243   5.468  15.504   5.359  0.0790  0.1029  0.3450
17170W        W33244  15.194  15.742  12.790  0.0028  0.1694 -0.2171
17171W        W33245   7.264   1.473   1.241 -0.0950 -0.2141  0.2076
17172W        W33246   6.126  14.028   3.963 -0.2992 -0.0380 -0.1240
17173W        W33247   9.282  17.416  14.075 -0.0416  0.4358 -0.0794
17174W        W33248  15.649   9.599  11.561  0.0827  0.0009 -0.2710
17175W        W33249   7.092  12.914  12.106 -0.1107 -0.1570  0.2809
17176W        W33250  10.515  16.093   2.837 -0.1612  0.3812 -0.0123
17177W        W33251  11.310   0.299  14.014  0.1626  0.1561 -0.1524
17178W        W33252   9.075   8.529  15.839  0.1810  0.2618  0.1157
17179W        W33253  10.928   8.022   5.562  0.3187  0.0981 -0.2535
17180W        W33254   1.377   2.185   3.270  0.2456 -0.0249 -0.2824
17181W        W33255   6.778  17.265  13.427  0.1359  0.0820  0.1463
17182W        W33256  16.328  10.028  16.078 -0.0374  0.0656  0.1709
17183W        W33257  10.555  15.251   2.467  0.2286 -0.0977  0.2129
17184W        W33258  15.629  11.072  14.537  0.0676 -0.0349 -0.1630
17185W        W33259   1.407  16.469   5.750  0.1521 -0.0694 -0.3357
17186W        W33260   9.524   2.645  12.943  0.2915  0.1472  0.4992
17187W        W33261   6.382   6.660   3.151 -0.0186  0.0260 -0.1170
17188W        W33262   8.544   2.037  11.575 -0.1059  0.2393 -0.0076
17189W        W33263  16.189  17.060   1.845 -0.4250 -0.3661  0.0836
17190W        W33264  11.145   6.380  13.964  0.4731  0.0104 -0.2679
17191W        W33265  10.344   4.841  11.935  0.0866 -0.0088  0.0733
17192W        W33266   8.192  11.585  11.580  0.0690  0.2677  0.1948
17193W        W33267   3.916   2.740   4.603  0.0548 -0.2981 -0.1784
17194W        W33268  17.184  15.790   1.449 -0.0194 -0.1556  0.1012
17195W        W33269   3.944   3.328   3.271 -0.1304  0.3163 -0.0806
17196W        W33270   1.427   1.170  14.684  0.2443  0.0558  0.0924
17197W        W33271  10.708  14.548  13.422  0.0617 -0.1118 -0.2394
17198W        W33272   4.872   1.260   3.720 -0.1295  0.0264  0.0523
17199W        W33273  11.130   7.679   0.483 -0.0978 -0.0181 -0.5748
17200W        W33274  14.289   7.773   3.236 -0.3290  0.1303  0.1721
17201W        W33275  16.848  12.715  16.437 -0.2648 -0.0669 -0.0705
17202W        W33276  14.359   8.809   5.974 -0.0272  0.0103 -0.1873
17203W        W33277   1.958  12.100   2.797 -0.0021  0.1913 -0.1312
17204W        W33278  17.685   2.315   0.156  0.1635 -0.0209  0.2515
17205W        W33279   6.950   5.484  13.296  0.0595  0.0894 -0.0220
17206W        W33280  14.002   1.287   3.802  0.2451  0.2866  0.4164
17207W        W33281   4.948  13.158   4.263  0.1320 -0.0196 -0.0665
17208W        W33282  13.677   1.320  15.831  0.0593  0.0509 -0.1283
17209W        W33283   7.422   2.718   5.773  0.3461  0.1790 -0.1812
17210W        W33284  14.080   1.729   4.483 -0.1569  0.1476  0.0738
17211W        W33285   9.909   6.898   1.035  0.4291  0.0779 -0.0260
17212W        W33286  10.720   9.293   5.328 -0.0247 -0.0381  0.0958
17213W        W33287  12.071  12.362   4.396 -0.3470 -0.2869  0.0299
17214W        W33288   5.391   0.959   3.017 -0.1234  0.0403  0.0876
17215W        W33289  11.315   4.529  16.098 -0.1380 -0.1677 -0.1076
17216W        W33290   0.385  11.820   5.273 -0.1041 -0.1205  0.0025
17217W        W33291   0.282  14.038  12.357  0.0929 -0.1975 -0.1382
17218W        W33292   5.298   4.365   0.072 -0.1054 -0.0392  0.3708
17219W        W33293   6.836   1.928   2.927 -0.2874 -0.1505 -0.0215
17220W        W33294   3.239   6.549  15.556 -0.0185 -0.1110 -0.1384
17221W        W33295  15.253  11.633   1.787 -0.0921 -0.0033 -0.1821
17222W        W33296   2.089   1.807  11.777  0.1242 -0.0557  0.0318
17223W        W33297   6.926   0.814  15.423  0.1072 -0.0473  0.1059
17224W        W33298   3.908   9.762  16.391 -0.0999  0.1132  0.1487
17225W        W33299  13.548   9.188  15.678 -0.3486 -0.0726 -0.1453
17226W        W33300   4.875   8.727  13.437  0.0713  0.0510 -0.5830
17227W        W33301  16.796   4.534  14.241  0.3219  0.0252  0.0133
17228W        W33302  18.011   3.195   0.024 -0.1951 -0.0039 -0.1181
17229W        W33303  15.579  17.648  14.690 -0.0862  0.0770  0.0420
17230W        W33304   9.299   8.053   2.802 -0.2781  0.4510  0.2285
17231W        W33305  15.836   8.204   3.411  0.1102  0.1084  0.2170
17232W        W33306  17.521   9.324   4.051  0.0791 -0.0423 -0.1335
17233W        W33307   0.956  17.387  13.797  0.0110  0.1218  0.0390
17234W        W33308   1.641   4.610   3.733  0.2069  0.1266  0.3112
17235W        W33309   4.690   4.355   4.326  0.1122 -0.1050  0.0651
17236W        W33310  15.389   8.987   2.844 -0.0100 -0.2370  0.0769
17237W        W33311   1.850   3.713  11.273 -0.0349  0.1660  0.0284
17238W        W33312  16.113   1.623  15.137  0.3345 -0.0980  0.0153
17239W        W33313  15.441   2.423   2.907 -0.2019  0.1403  0.1770
17240W        W33314  18.067  12.942  15.779  0.1405  0.2541  0.1803
17241W        W33315   2.419  14.053  13.691  0.2749 -0.2694 -0.2964
17242W        W33316   9.316  17.176  15.598 -0.1195  0.0967 -0.1022
17243W        W33317  14.254  15.568   1.883  0.0720  0.2021  0.0715
17244W        W33318   7.073  14.149  14.889 -0.1440  0.1945  0.1320
17245W        W33319  17.910   2.996  11.869 -0.1727  0.3239  0.3827
17246W        W33320  15.822  12.784  16.103  0.0612 -0.0518  0.1191
17247W        W33321  11.471   4.018  11.814 -0.0793  0.0412  0.2431
17248W        W33322  16.884   8.975   2.863 -0.1811  0.1701 -0.3402
17249W        W33323   0.232   4.165  15.143 -0.0826 -0.1331  0.1615
17250W        W33324  13.287   5.956  15.467 -0.1186  0.1452  0.1072
17251W        W33325   5.949   2.823   3.011  0.1179  0.1665 -0.1649
17252W        W33326  11.592   8.410  13.018  0.0437 -0.0931  0.0276
17253W        W33327   5.823  17.048  14.441 -0.1032 -0.2198 -0.2534
17254W        W33328   1.357  13.965  11.870 -0.0537  0.0635 -0.2461
17255W        W33329  16.524  11.615   0.913  0.0209 -0.0941 -0.1160
17256W        W33330  17.183   2.254  13.567  0.0980 -0.0639  0.3841
17257W        W33331  17.451  11.737  11.416  0.0276  0.2831 -0.0051
17258W        W33332  12.997   6.373   1.097  0.2456  0.0541 -0.1649
17259W        W33333  16.920   2.523   5.606  0.0244 -0.3066 -0.1169
17260W        W33334  16.438   1.247  13.276 -0.1051  0.5900  0.1291
17261W        W33335  17.260  14.740  14.186  0.0277  0.1746  0.1649
17262W        W33336   0.679   4.675  13.796  0.1276  0.3232 -0.2616
17263W        W33337   0.570   9.497   2.045 -0.0293  0.2784  0.3079
17264W        W33338   7.506  14.650   4.976 -0.0617  0.1655  0.2053
17265W        W33339   1.351   0.815  14.322 -0.0952 -0.1777  0.1803
17266W        W33340   8.394  10.691   1.093  0.0444  0.1587 -0.0404
17267W        W33341   6.147  11.329  13.485 -0.0947 -0.0409 -0.1456
17268W        W33342  10.578   4.714   1.633  0.4508 -0.1572  0.1715
17269W        W33343  16.622  14.224   2.189  0.0759  0.1682 -0.0581
17270W        W33344  14.383  17.238   2.901 -0.3805  0.0051  0.0400
17271W        W33345  16.634   8.111  13.534  0.0151 -0.2916  0.0258
17272W        W33346   5.315   3.957   0.526  0.2194 -0.1233 -0.3059
17273W        W33347  14.926   7.218   3.081 -0.1491  0.0323 -0.5031
17274W        W33348  12.824   3.005  13.164 -0.4431 -0.3831  0.0117
17275W        W33349  12.380   4.075  12.555 -0.1513 -0.3158 -0.3348
17276W        W33350  16.885  17.307  13.985 -0.0598  0.0379 -0.3028
17277W        W33351  16.789  15.979   2.443  0.1636  0.1530  0.0222
17278W        W33352  14.706  15.039   5.355  0.1645 -0.3946  0.1847
17279W        W33353   6.663  14.047  12.140 -0.0533 -0.0448 -0.1719
17280W        W33354   0.441  13.690   4.637  0.3949  0.1626  0.3479
17281W        W33355  11.433  13.431  13.935  0.1206  0.1647 -0.0708
17282W        W33356   4.852  15.031  14.348  0.1754 -0.2307  0.2235
17283W        W33357   6.733   1.938  12.780  0.3748 -0.1218 -0.0517
17284W        W33358  17.418   3.208  11.558  0.4640  0.0122 -0.1582
17285W        W33359   4.367   3.963   5.269 -0.2078  0.1458 -0.0657
17286W        W33360   1.519   4.457  12.878 -0.0384 -0.2892 -0.0093
17287W        W33361  16.620   4.240   5.387  0.0650  0.2612 -0.0718
17288W        W33362   5.734  12.750  14.885 -0.0859  0.0410  0.1510
17289W        W33363  17.222  17.460   2.108 -0.0667 -0.0157  0.0118
17290W        W33364   2.868   4.174   5.067 -0.0348  0.3457 -0.1677
17291W        W33365  15.513   6.009   0.879  0.0376  0.0611  0.1901
17292W        W33366  10.326  14.949   0.937 -0.0698  0.0237 -0.2514
17293W        W33367  16.667   4.844  16.101  0.1247 -0.0446 -0.0546
17294W        W33368   3.210   4.688  11.467  0.1456 -0.1344  0.0536
17295W        W33369   1.082   9.852   0.771  0.1150  0.0867 -0.2125
17296W        W33370  16.149   5.295  14.644 -0.1560 -0.0102  0.2358
17297W        W33371  14.207  14.287  16.215  0.0341  0.1812 -0.0362
17298W        W33372  10.676   4.454  12.937  0.1160  0.2525  0.0078
17299W        W33373   3.404  14.192  12.011 -0.3625  0.0978 -0.2502
17300W        W33374   7.551   0.823  15.464 -0.0703 -0.1764 -0.0684
17301W        W33375  11.703  14.218   5.565 -0.0028 -0.2042  0.0221
17302W        W33376  13.083  10.778   4.214 -0.0491 -0.0170  0.0997
17303W        W33377  17.473   8.541   3.584 -0.0446  0.2872 -0.1036
17304W        W33378  11.803  12.093   4.090 -0.1594  0.4386 -0.2076
17305W        W33379  16.164  12.652   4.627 -0.0433  0.1673 -0.1219
17306W        W33380   7.786   9.930  16.065 -0.1467  0.0525 -0.0624
17307W        W33381   4.924   4.826  11.218  0.1695  0.2150 -0.1627
17308W        W33382  14.569   5.637   1.587 -0.2417 -0.1695 -0.2174
17309W        W33383   3.444  16.365   0.688 -0.1692  0.0475  0.0091
17310W        W33384   1.001  16.999   0.677 -0.1763 -0.0265  0.0986
17311W        W33385   5.082  11.144  12.721 -0.0056  0.1435 -0.0851
17312W        W33386  15.765  17.157  13.812  0.0938 -0.0204  0.0925
17313W        W33387  14.235   9.513  16.080 -0.1450  0.2582  0.2953
17314W        W33388   8.416   4.423   5.661 -0.0858  0.1250 -0.2628
17315W        W33389  17.800  16.720   5.560  0.1296  0.0037 -0.1395
17316W        W33390  16.211  17.071   1.316  0.1641 -0.0673 -0.1294
17317W        W33391  11.138   7.745   2.715 -0.0294  0.1098 -0.0647
17318W        W33392   0.655   6.831   2.537 -0.0784  0.0638  0.0825
17319W        W33393  12.498  17.036   2.495 -0.0821  0.0986  0.0160
17320W        W33394   2.221   2.570   2.930  0.0779  0.2796 -0.3413
17321W        W33395   2.856   9.158   5.056  0.0539  0.0026 -0.1684
17322W        W33396  11.199  14.078   3.247  0.0371 -0.0296 -0.0264
17323W        W33397   9.166  15.178   1.674  0.2161 -0.0208 -0.1200
17324W        W33398   4.071   6.909  15.049  0.2504 -0.2671  0.3895
17325W        W33399  16.247  12.672  12.871 -0.1606 -0.0873 -0.5664
17326W        W33400   7.806  12.594   1.144  0.2070  0.2911 -0.3697
17327W        W33401  17.060   7.176   2.733 -0.3415  0.1119 -0.2178
17328W        W33402  17.012   0.582   5.336 -0.1354  0.0038 -0.2785
17329W        W33403  13.015   3.598  16.080  0.3723  0.2768 -0.3384
17330W        W33404   1.790   3.614   6.046 -0.0941 -0.0850 -0.0497
17331W        W33405   4.800   7.534  12.969 -0.0890 -0.2185  0.3296
17332W        W33406  10.527   0.332  13.720 -0.0473  0.3470  0.0836
17333W        W33407  11.042   4.108  15.393 -0.0272 -0.0529 -0.5275
17334W        W33408   2.153  12.397   4.193 -0.0336  0.2153 -0.0867
17335W        W33409   3.408   5.178   0.302 -0.0265  0.2607 -0.0149
17336W        W33410  10.144  16.422   5.706 -0.0514 -0.0606 -0.2372
17337W        W33411  14.738   8.873   3.934 -0.0267 -0.2386  0.0128
17338W        W33412   7.569   8.095  14.545  0.4877 -0.0071 -0.1351
17339W        W33413   9.399   3.355  16.338  0.0300  0.1923  0.2078
17340W        W33414  17.686   1.684  12.010  0.0386  0.0861 -0.2008
17341W        W33415  11.995   8.603   0.678  0.0126  0.0647  0.3686
17342W        W33416   8.321  16.148  11.619  0.1069 -0.0721  0.2202
17343W        W33417   8.098   9.068  12.690 -0.1082  0.1785  0.2462
17344W        W33418   2.514  12.714   5.771  0.1861 -0.0192 -0.1931
17345W        W33419  10.480   8.723  10.058 -0.1598 -0.2431  0.2369
17346W        W33420   4.908  12.308   0.584  0.2438 -0.4529 -0.1391
17347W        W33421   5.423   9.848  14.081 -0.2390  0.0101  0.0964
17348W        W33422   1.587  12.836   1.024  0.0941 -0.0671  0.0315
17349W        W33423   7.209  14.688   2.840  0.0738 -0.1646  0.1192
17350W        W33424  10.897   7.191  14.395 -0.2868 -0.1521 -0.0262
17351W        W33425   6.786  12.515  11.957  0.1068  0.1172  0.1569
17352W        W33426  10.334   9.302  12.566 -0.1992 -0.0650  0.1454
17353W        W33427  10.861   9.330  13.798 -0.2230 -0.1344  0.0155
17354W        W33428  10.148   1.987   6.454 -0.0272 -0.0914 -0.0815
17355W        W33429   4.097   9.396  12.888  0.0493 -0.2203  0.1600
17356W        W33430   2.061  15.503  14.559  0.3612  0.1445 -0.2433
17357W        W33431  17.138   7.503  14.068 -0.2432 -0.4418 -0.3374
17358W        W33432  10.396  14.669   5.791 -0.1643  0.1260  0.0929
17359W        W33433   6.647   1.260   2.294 -0.0377  0.0432  0.1037
17360W        W33434  11.247   6.430   2.570  0.1829  0.2736  0.2046
17361W        W33435  10.369  17.454  15.564  0.1241  0.0239  0.6021
17362W        W33436  11.872   0.584  12.404  0.1723  0.0080  0.3728
17363W        W33437  15.681   6.934   4.270 -0.1538 -0.3609  0.1709
17364W        W33438   4.546   8.414   0.493 -0.1001  0.1014  0.0021
17365W        W33439  10.600   1.379   5.936 -0.0896 -0.1953  0.1011
17366W        W33440   2.356  17.850   1.995  0.1713  0.0838 -0.1990
17367W        W33441   5.895   3.369  13.298  0.1566  0.2914 -0.2460
17368W        W33442   7.028   4.573  16.076  0.1676 -0.2937  0.0503
17369W        W33443   1.440   3.286   0.144  0.0992 -0.2074 -0.0560
17370W        W33444   3.891   4.867   3.693 -0.2035 -0.0437 -0.2447
17371W        W33445   0.123  10.667   3.432  0.2067  0.1760 -0.0358
17372W        W33446  10.614   2.128  13.398 -0.0981  0.2127 -0.1545
17373W        W33447  17.661   0.750  12.067 -0.0143  0.0352  0.4342
17374W        W33448  11.816  16.708  15.914  0.0789 -0.0762  0.1075
17375W        W33449  10.875   4.459  13.596 -0.2051 -0.2460 -0.0102
17376W        W33450  10.213   8.792   2.206 -0.0683  0.1194 -0.1213
17377W        W33451   5.362   5.669   4.837 -0.2149 -0.0783  0.2943
17378W        W33452   1.015   5.242   0.313 -0.0157 -0.2675  0.0125
17379W        W33453  17.871  16.115   0.086  0.0325  0.1347 -0.1951
17380W        W33454  12.754  11.148   2.194 -0.0991  0.0278 -0.1971
17381W        W33455   3.573   2.771  15.381  0.2144  0.1763  0.3773
17382W        W33456  14.588   4.693   0.395 -0.0690  0.0855  0.0720
17383W        W33457   0.949   6.457   1.024  0.1754  0.2200  0.3982
17384W        W33458  10.362   6.206   2.931 -0.0027  0.1424  0.0852
17385W        W33459   2.308  16.959   1.890  0.5089 -0.1545 -0.0858
17386W        W33460   3.597   5.347   1.396  0.0136 -0.0732  0.2669
17387W        W33461   9.194  16.573   5.949  0.0369 -0.2293 -0.1541
17388W        W33462   3.215   0.665  16.310 -0.0144 -0.1531 -0.0799
17389W        W33463  17.850  11.630   4.629  0.0259  0.1974 -0.1219
17390W        W33464   7.292   2.930  12.444 -0.2359  0.1560 -0.1087
17391W        W33465  16.462  12.569   0.958 -0.2739 -0.1197 -0.1743
17392W        W33466   7.648   1.847   5.669 -0.0014 -0.0984 -0.0719
17393W        W33467   8.773   5.192   3.454  0.2145  0.5782 -0.1002
17394W        W33468  14.447   8.598   4.571 -0.1556 -0.1390  0.2453
17395W        W33469   4.219   0.686   2.550 -0.0937 -0.0850 -0.0969
17396W        W33470   2.313  15.542  16.157 -0.1466  0.0965  0.1652
17397W        W33471   0.339  11.410   2.999  0.1412 -0.1398 -0.3130
17398W        W33472  16.802  16.058   0.121  0.2299 -0.1568  0.0335
17399W        W33473   7.988  17.344   0.502  0.0786  0.0652  0.2147
17400W        W33474   0.415   6.163  12.649  0.1278  0.1251  0.1918
17401W        W33475   8.385   2.543  11.599 -0.3810  0.1984  0.1374
17402W        W33476  14.554  12.591   0.716 -0.2735  0.5491  0.2903
17403W        W33477   2.001   9.191   2.086  0.0208 -0.3378  0.1220
17404W        W33478   2.307  13.489  12.545  0.0442  0.2320 -0.0150
17405W        W33479  17.466  10.288  10.860 -0.3842 -0.0573  0.2469
17406W        W33480   7.848  16.116  15.133  0.0680  0.1199  0.0758
17407W        W33481  18.097   7.021   4.164  0.1307 -0.1280 -0.1497
17408W        W33482   7.749  11.616   0.863 -0.0382 -0.3528  0.2469
17409W        W33483  14.791  16.883  14.587 -0.2374 -0.0289  0.2161
17410W        W33484  10.728   9.470  15.515 -0.2315 -0.0098  0.1271
17411W        W33485  10.280  12.474  15.547  0.2979 -0.1410  0.2267
17412W        W33486   5.526   6.321  12.429  0.0257  0.1378 -0.3097
17413W        W33487  16.498   4.989   2.026 -0.1316 -0.6254  0.1874
17414W        W33488  17.648  15.405   1.036  0.2963 -0.0984 -0.0142
17415W        W33489  16.086  10.593   1.970  0.1355  0.1982 -0.0352
17416W        W33490  16.400   1.709  13.436  0.2560 -0.1957  0.3251
17417W        W33491   0.025  13.941   2.115  0.2944 -0.0517 -0.3091
17418W        W33492  17.066  12.776   0.402  0.2235 -0.3406  0.1959
17419W        W33493   6.197   1.382  13.908 -0.2684 -0.0164  0.2370
17420W        W33494  12.915   5.039   2.451  0.0719 -0.1164  0.2365
17421W        W33495  16.810   8.028  12.577 -0.1792 -0.4171  0.0248
17422W        W33496   7.003   9.852  12.067 -0.2113 -0.1279 -0.1359
17423W        W33497  14.092   0.144   0.331  0.1172  0.2126 -0.1478
17424W        W33498  14.614  15.340  15.725  0.2676 -0.1036  0.3133
17425W        W33499   6.503   5.495  13.546  0.3303 -0.0983 -0.1401
17426W        W33500  16.797   0.575  12.915  0.0045 -0.1386  0.0667
17427W        W33501   5.457  14.571   5.967 -0.0728 -0.0935  0.1007
17428W        W33502   3.667   8.652   0.837  0.1309  0.1548  0.1759
17429W        W33503  13.180  10.101   3.206 -0.2235  0.0133  0.0448
17430W        W33504  17.958  12.962  12.202 -0.2976  0.0331 -0.1328
17431W        W33505  11.558  15.566  14.979 -0.1433 -0.3006  0.1870
17432W        W33506  15.853  10.367  15.061 -0.0577 -0.0528  0.0715
17433W        W33507   8.979  10.121   3.148 -0.2424 -0.0638 -0.2918
17434W        W33508   0.927  15.141   0.402  0.0467  0.0388 -0.4138
17435W        W33509  16.143  16.129   3.120  0.1062  0.3012 -0.2606
17436W        W33510   8.860   0.015   2.581  0.1073  0.0434 -0.2364
17437W        W33511   0.288   9.849   5.401  0.2375 -0.1153  0.1064
17438W        W33512   0.888   8.388  13.520 -0.0453 -0.3325  0.2534
17439W        W33513  13.896  11.986   4.098  0.0541  0.0271 -0.1453
17440W        W33514  13.598  17.099   4.810 -0.1850  0.1135  0.1712
17441W        W33515   2.037   1.467   6.129 -0.0125  0.1212 -0.2782
17442W        W33516   0.156  16.755   2.164  0.0104  0.0909  0.0795
17443W        W33517  13.631  13.310   3.200  0.0644  0.0400  0.1800
17444W        W33518  15.271  15.754  16.458 -0.0397  0.3364  0.3318
17445W        W33519   2.126   9.319   2.512  0.0311  0.2189 -0.2476
17446W        W33520   8.301   2.218   4.438 -0.2878  0.2783  0.2269
17447W        W33521  16.516   5.434  14.274  0.0918 -0.1599 -0.4736
17448W        W33522   1.947   5.683  13.623  0.0703 -0.1900  0.0384
17449W        W33523   9.457  13.236  16.409  0.0202 -0.0485 -0.1194
17450W        W33524   9.537   4.334   3.768  0.1864  0.1032  0.2596
17451W        W33525  10.162  12.882  15.917 -0.1453 -0.5505 -0.1928
17452W        W33526  10.141  13.926   2.483 -0.1070 -0.0540  0.1379
17453W        W33527   6.439  13.834   4.414 -0.0276  0.1206 -0.0079
17454W        W33528   8.073  11.597  13.093 -0.3910 -0.1418  0.0871
17455W        W33529   5.671   8.866  13.628  0.0928  0.0425 -0.1527
17456W        W33530   4.995   4.451  14.151  0.1145  0.0554 -0.2512
17457W        W33531   0.998  16.493  14.169 -0.0627  0.1138  0.0665
17458W        W33532   0.219   1.954  14.348 -0.4029 -0.1321  0.0199
17459W        W33533  13.958   2.281   5.828  0.3132  0.2784 -0.0449
17460W        W33534  14.516   2.499  11.954 -0.1405  0.4179  0.1621
17461W        W33535   7.288  17.790   1.626 -0.2132  0.1720  0.1377
17462W        W33536   3.751   2.530   0.723  0.0917  0.0237 -0.0209
17463W        W33537  12.518  12.351   0.185 -0.0764  0.3915  0.0393
17464W        W33538  15.507   3.171   0.022 -0.1987 -0.0499  0.2022
17465W        W33539  13.422  16.595   1.861 -0.0653  0.1941  0.1521
17466W        W33540  16.848  13.857   2.527  0.0775  0.0769  0.0758
17467W        W33541  17.636   7.812   2.456 -0.0198  0.1679 -0.2375
17468W        W33542   2.351   2.765  15.517 -0.0431  0.2030  0.1296
17469W        W33543   7.353  10.841  14.501  0.0257  0.3680  0.0970
17470W        W33544  14.888  14.792   2.852  0.3472  0.1146  0.0946
17471W        W33545   1.254  12.030  13.007  0.1042 -0.0268 -0.3593
17472W        W33546  12.626  17.779  12.345  0.1419 -0.1262  0.0837
17473W        W33547  10.242  15.132   5.514  0.1349  0.1877  0.1321
17474W        W33548   0.855  10.670   5.030 -0.1706 -0.0248 -0.0967
17475W        W33549   2.774   7.052  12.382 -0.2566  0.0008 -0.1106
17476W        W33550   2.122   1.373   0.259 -0.1820 -0.1651  0.0312
17477W        W33551   1.919   6.495  15.189 -0.0364  0.0720 -0.0349
17478W        W33552   8.088   3.487  10.575  0.5020 -0.1644  0.3332
17479W        W33553  10.789  11.441  15.168 -0.1118  0.4452  0.4849
17480W        W33554   4.425   8.973  12.705  0.0513  0.0286  0.1152
17481W        W33555   3.915  14.519   0.862  0.4836 -0.0584  0.0325
17482W        W33556   2.146   1.023  11.516  0.0101  0.0817 -0.0823
17483W        W33557  16.743  12.910  15.695 -0.2639 -0.5505 -0.4066
17484W        W33558  18.116   0.598  15.221  0.0773 -0.0059  0.0924
17485W        W33559   5.256  17.405   4.255  0.2268  0.0177 -0.0838
17486W        W33560   7.433   2.285  13.946  0.2846  0.0013 -0.3093
17487W        W33561   1.242   6.844  12.345 -0.1866  0.0735  0.0664
17488W        W33562   4.314  11.150   1.797 -0.1888 -0.0153 -0.0686
17489W        W33563   8.905  17.197   5.795  0.0339 -0.4096  0.0564
17490W        W33564   7.049   0.651  14.958  0.0399 -0.1354  0.2088
17491W        W33565  14.539  10.298   3.598  0.1649  0.1415  0.2475
17492W        W33566   1.090  10.772  14.865  0.0098  0.1056 -0.1600
17493W        W33567   0.992  10.663   1.924  0.0518  0.0700 -0.2044
17494W        W33568   6.846  17.983   4.297  0.0861 -0.2963  0.0916
17495W        W33569   1.706   4.914   1.801  0.1542  0.2412  0.1713
17496W        W33570   1.223  15.331   4.366 -0.0310  0.0523 -0.4690
17497W        W33571  15.285   0.463   5.525  0.1338  0.2588  0.1466
17498W        W33572   6.233  17.540  15.909 -0.0935 -0.1951 -0.1305
17499W        W33573   1.736   3.487  12.287  0.1103 -0.1370  0.0017
17500W        W33574   2.759  11.804   3.698 -0.2141 -0.1870 -0.3217
17501W        W33575  11.898  12.016   1.912  0.1828  0.1411 -0.0411
17502W        W33576  10.084  15.431  12.909 -0.2462 -0.0030 -0.1247
17503W        W33577   0.411   1.489   4.575 -0.1172  0.0411  0.1223
17504W        W33578   0.597   6.752   4.466 -0.0423  0.2025 -0.1086
17505W        W33579  11.015  13.000   5.291  0.1035 -0.0519  0.1479
17506W        W33580  16.311   6.737   0.053  0.2043  0.2189  0.0499
17507W        W33581  10.459  16.853   4.710 -0.2550  0.0868 -0.1883
17508W        W33582   0.830   6.010   1.367  0.0074  0.0264  0.0881
17509W        W33583   3.587  14.266   5.032  0.2058 -0.0062  0.1483
17510W        W33584  15.078   7.448   3.662 -0.1213 -0.0034  0.0657
17511W        W33585   2.883   3.496  14.132  0.1268 -0.1215 -0.3448
17512W        W33586  14.937   8.143   5.941  0.2352  0.1381  0.2818
17513W        W33587  13.226   4.492  10.812 -0.3484  0.0844 -0.2037
17514W        W33588   7.993  11.137   3.266  0.0164 -0.0462 -0.0333
17515W        W33589  10.643  11.852  14.782  0.0263  0.0473 -0.0481
17516W        W33590  15.304   5.941   4.364  0.0162  0.4238 -0.0061
17517W        W33591  12.280   4.914   4.542 -0.1297 -0.2444 -0.1211
17518W        W33592   5.789   3.804  13.054  0.1288 -0.0067 -0.2086
17519W        W33593  12.973  12.192   1.748  0.2527  0.0492  0.1314
17520W        W33594  10.278  14.262  14.125  0.0781 -0.1579  0.3856
17521W        W33595   2.053   5.225  13.800  0.2641  0.4714 -0.0761
17522W        W33596  11.489   5.502  14.141 -0.2443 -0.0051 -0.0509
17523W        W33597   1.323   7.871  12.661 -0.0340  0.0024 -0.0766
17524W        W33598   2.316   7.045  12.507  0.1179 -0.0179  0.0501
17525W        W33599   1.308   2.232  14.387 -0.4606 -0.2047 -0.0357
17526W        W33600   6.659  16.747   3.523 -0.1371 -0.1410 -0.2787
17527W        W33601   8.102  11.487   2.815 -0.0291 -0.3752 -0.4903
17528W        W33602  14.986  12.943   0.689 -0.0136  0.2075  0.0467
17529W        W33603   4.312   7.674  10.365  0.1273 -0.0596 -0.0637
17530W        W33604  10.787  11.533  11.457 -0.0303  0.2261  0.0884
17531W        W33605  11.556   0.614  14.476 -0.0363  0.2148 -0.3926
17532W        W33606   0.043  15.785   3.081 -0.1402 -0.0120 -0.0362
17533W        W33607  16.651   6.395  13.600  0.0373 -0.0131 -0.2453
17534W        W33608   3.046   7.311  15.114 -0.1482 -0.2644 -0.0819
17535W        W33609  12.881   2.038   2.579  0.2957 -0.1025 -0.0994
17536W        W33610  13.415   7.140  13.620 -0.0170  0.0259  0.3343
17537W        W33611  10.863   4.044   0.260 -0.0674  0.0427 -0.1818
17538W        W33612   3.790   4.806  14.169  0.1655 -0.1350 -0.2234
17539W        W33613   6.057   5.829  11.875 -0.3367  0.1138 -0.0024
17540W        W33614   1.819   8.139   0.968 -0.1650 -0.0129  0.0171
17541W        W33615  15.470   5.857  11.723 -0.0516  0.0751 -0.0392
17542W        W33616  11.768   1.586   4.886  0.1798 -0.1142 -0.2589
17543W        W33617   3.081  13.432  15.387 -0.1904 -0.0759  0.2664
17544W        W33618  16.596   2.189   1.251  0.2287  0.2341  0.1055
17545W        W33619   5.801   7.775   2.029 -0.0561 -0.1966  0.2709
17546W        W33620   4.503   8.385   5.625  0.4318 -0.1112 -0.1442
17547W        W33621   0.285   4.065   0.176 -0.1064 -0.1888  0.2978
17548W        W33622  16.551   7.767   0.966  0.0459 -0.0554  0.0173
17549W        W33623  15.684   2.230   1.362 -0.1521 -0.0134 -0.3948
17550W        W33624   2.162   1.871   0.368  0.0487  0.0301  0.2169
17551W        W33625  10.096  17.629   1.557 -0.2236  0.1580 -0.1931
17552W        W33626  17.614  11.639   0.008 -0.0759  0.1748 -0.1007
17553W        W33627  10.330   9.213   4.369  0.3639 -0.1217  0.0826
17554W        W33628  11.072   4.062   0.770 -0.3066 -0.1163 -0.0389
17555W        W33629   4.768  14.817   1.821  0.0709 -0.1410  0.1212
17556W        W33630  11.662   3.544   4.871  0.0840  0.2634 -0.0104
17557W        W33631   5.748  11.856   5.426  0.1553  0.1489 -0.1181
17558W        W33632   9.756  12.090   4.811  0.3522 -0.0412  0.1105
17559W        W33633   9.955   7.826  13.435  0.2473  0.0321 -0.0842
17560W        W33634   3.166   3.091  12.451  0.1464  0.0134 -0.1434
17561W        W33635  10.643  17.932  12.685  0.0525 -0.1493  0.3458
17562W        W33636   5.253  12.359   2.267 -0.2582 -0.2492  0.3193
17563W        W33637   1.835   5.925   2.580  0.1741  0.1950  0.1329
17564W        W33638   4.709  14.009   4.800 -0.0845  0.3728  0.0881
17565W        W33639   7.538   3.493  13.811 -0.0505 -0.4018  0.0964
17566W        W33640   4.799   3.628  14.634 -0.2924  0.1213  0.5339
17567W        W33641  18.202  10.808   4.242  0.2228 -0.0057  0.1240
17568W        W33642  10.686  10.029  12.261  0.0100 -0.1848 -0.3150
17569W        W33643   6.542   4.105   0.942  0.0579 -0.2567  0.1495
17570W        W33644  14.968   2.238  16.451 -0.0008 -0.3040 -0.0534
17571W        W33645   4.932  18.134  13.620 -0.2001 -0.1332 -0.1736
17572W        W33646   3.487   3.676   1.550 -0.1500  0.3941  0.1868
17573W        W33647  13.945  16.523   1.594  0.0091 -0.0277 -0.1369
17574W        W33648  13.158  12.253  13.967  0.3398 -0.0458  0.1068
17575W        W33649  14.699  14.041  16.083  0.1917 -0.3404 -0.0146
17576W        W33650  10.954   2.501  15.273  0.0293 -0.0234 -0.0707
17577W        W33651   1.288   7.853  16.160  0.2415 -0.1550 -0.2264
17578W        W33652   7.184  13.704   0.739 -0.0320  0.0123  0.1378
17579W        W33653   0.536   5.243  14.511 -0.2799 -0.2438 -0.2434
17580W        W33654  14.613  16.804   4.835  0.2815  0.1279 -0.2509
17581W        W33655   1.850   3.240   2.533 -0.0710  0.1129  0.2045
17582W        W33656   6.402   7.553   1.901 -0.0697  0.4255 -0.3246
17583W        W33657  15.689   1.333  13.529  0.2110  0.1129 -0.0245
17584W        W33658   1.265   8.480  14.519  0.1011 -0.1201  0.0179
17585W        W33659   2.331   1.174  14.542 -0.1181 -0.2221  0.0207
17586W        W33660   1.260   7.473  14.857  0.0476  0.2310 -0.0082
17587W        W33661  10.284   3.144  13.133  0.0195  0.0255 -0.0933
17588W        W33662   9.424   0.322   1.126 -0.2139 -0.0813 -0.3915
17589W        W33663   2.234   2.450   3.780  0.3656 -0.3915  0.1532
17590W        W33664   1.897  17.064   3.789 -0.0349  0.0818  0.2221
17591W        W33665   2.962   0.076   1.692  0.2922  0.1982 -0.0881
17592W        W33666  10.082  14.674   2.038  0.2344  0.1055 -0.1292
17593W        W33667   2.309  13.286  15.732  0.1582  0.1145  0.0699
17594W        W33668  16.509  15.062  13.916 -0.0431  0.2241  0.2013
17595W        W33669  14.552   2.126  12.358  0.1000  0.4336  0.1297
17596W        W33670   5.530   3.117  11.435 -0.6426 -0.0530  0.0971
17597W        W33671  12.828   8.919  15.141 -0.0165  0.1802 -0.0802
17598W        W33672  14.464   8.970   5.022  0.3399  0.3033  0.2721
17599W        W33673  16.141  11.335   4.102 -0.1287 -0.0662  0.1097
17600W        W33674   4.147  12.083   0.108 -0.4420  0.1475 -0.0587
17601W        W33675   6.205  11.418  15.576  0.1036 -0.0662  0.0168
17602W        W33676   3.735   2.201   2.146 -0.1474  0.0050 -0.1426
17603W        W33677  14.366   9.005   1.252 -0.3901 -0.0452  0.1307
17604W        W33678  16.094  14.236  15.705  0.0104 -0.0219  0.1304
17605W        W33679  13.309  12.529  12.228 -0.1187 -0.2999 -0.0184
17606W        W33680  12.257  10.704  13.791 -0.0813 -0.3519 -0.1970
17607W        W33681   8.212   5.347   0.594 -0.0495 -0.2569 -0.1500
17608W        W33682  12.186   6.196   5.780  0.4262 -0.3259 -0.0026
17609W        W33683  16.991  15.619  14.819 -0.0222  0.2219  0.0551
17610W        W33684   0.517   0.125  14.695  0.1213 -0.2533 -0.1523
17611W        W33685   5.430   2.018   2.917  0.1181  0.0097 -0.0713
17612W        W33686  10.846   2.146   1.959 -0.1441 -0.4159  0.1331
17613W        W33687   8.892   4.585  15.833  0.2035  0.2316 -0.1216
17614W        W33688   2.115  10.389  13.314  0.1012 -0.1864 -0.1992
17615W        W33689   2.690  12.415  16.221 -0.1650 -0.0100  0.0805
17616W        W33690   6.398  13.625   2.238  0.1170  0.3698  0.0247
17617W        W33691   6.497  15.232  15.601  0.0826  0.0909  0.0284
17618W        W33692   0.496   9.278  11.394  0.0015  0.0180  0.0649
17619W        W33693   2.034   3.119   3.078  0.0399 -0.3712  0.0439
17620W        W33694  12.317  12.023  14.527 -0.0377  0.1403  0.0796
17621W        W33695  17.781   5.856   4.675 -0.1789 -0.0808  0.0401
17622W        W33696  13.117  17.049  15.861 -0.2209 -0.3817 -0.0750
17623W        W33697   6.512  15.463   6.235 -0.3341  0.1932 -0.1599
17624W        W33698   4.305  14.614   0.273  0.3767  0.0648 -0.1777
17625W        W33699  13.243   8.648   1.068 -0.0524 -0.0389  0.1052
17626W        W33700   0.754  17.789   2.834 -0.1084 -0.1020  0.0056
17627W        W33701   0.668   0.828   5.305 -0.1867 -0.3070 -0.1358
17628W        W33702   7.744  10.511  14.681 -0.1502  0.1663  0.1489
17629W        W33703   2.254   4.624   4.931 -0.1690  0.1576 -0.0717
17630W        W33704  10.564   0.535  14.601  0.1335  0.0516  0.0155
17631W        W33705   8.141  17.528   3.860  0.2761  0.3725  0.3234
17632W        W33706   0.927   7.010   4.792 -0.1652  0.1521 -0.0837
17633W        W33707  14.444   9.908  13.030  0.2110  0.1644  0.2092
17634W        W33708  16.474   5.103   4.352 -0.0425  0.0974  0.0768
17635W        W33709   3.302   4.063   1.333  0.1602  0.0038 -0.0605
17636W        W33710   4.079   0.530   0.684 -0.0726 -0.1449  0.3232
17637W        W33711  16.993  10.936  14.092 -0.0641 -0.1619 -0.0725
17638W        W33712   3.582   3.365   0.087  0.0064 -0.2311  0.2473
17639W        W33713   5.655  14.562   3.010  0.1394 -0.2756  0.0301
17640W        W33714   2.861   7.930   0.114 -0.3058  0.2710 -0.1237
17641W        W33715   9.367   9.595  12.211  0.0891 -0.0151  0.2406
17642W        W33716   7.831  17.154  12.324 -0.1571 -0.1074 -0.0599
17643W        W33717  17.084  17.006   5.532 -0.2536  0.1998 -0.0846
17644W        W33718  11.351   7.545   4.610 -0.0133  0.1046 -0.2585
17645W        W33719   9.814  12.065   1.350  0.0017 -0.0577  0.2643
17646W        W33720   9.522  12.356   1.680 -0.0503 -0.0970 -0.2274
17647W        W33721   4.711   3.502  11.448  0.1277 -0.4538  0.0644
17648W        W33722  10.239  14.096  14.829  0.0024  0.1124 -0.0342
17649W        W33723   3.549   5.691   4.414  0.3449  0.1145 -0.0908
17650W        W33724   3.246  16.044  15.097 -0.2778  0.0986  0.2289
17651W        W33725   1.835   2.549   6.200 -0.0412  0.0216  0.1565
17652W        W33726   3.316  13.896  14.005  0.0134  0.0012  0.2275
17653W        W33727   6.205  13.280   0.996 -0.1944 -0.2209  0.1212
17654W        W33728  13.935  16.864   0.450 -0.0142  0.1405 -0.1263
17655W        W33729   8.226  17.627   1.850 -0.0950  0.0104  0.1252
17656W        W33730   2.565  16.029   3.632  0.2122  0.1961  0.1795
17657W        W33731   9.168  17.892   1.064 -0.1831  0.0574 -0.0825
17658W        W33732   9.494  12.972   5.104  0.1500 -0.1289 -0.0134
17659W        W33733  16.476  13.129   1.172  0.1352 -0.0836  0.0730
17660W        W33734   8.007   7.052   1.117  0.0952  0.1069 -0.0766
17661W        W33735   0.872   3.236   1.605 -0.3017  0.2191  0.0557
17662W        W33736   3.531   9.226  11.584  0.0501  0.2758 -0.2712
17663W        W33737  15.868  14.991  12.629 -0.1241 -0.1126 -0.0531
17664W        W33738   0.752   9.598  11.148 -0.1374 -0.0166  0.0044
17665W        W33739  15.257  13.553  14.110  0.2525  0.1505  0.0639
17666W        W33740  16.405   9.316  12.896  0.3256  0.2706  0.0654
17667W        W33741  14.807   3.567  13.518 -0.3309 -0.0028 -0.1143
17668W        W33742   2.064  13.508  10.944 -0.0442 -0.0636 -0.4908
17669W        W33743   2.187   9.010  12.146  0.2033 -0.0882  0.1960
17670W        W33744   1.029   7.942   1.604  0.0890 -0.0142  0.1101
17671W        W33745  16.846   6.920  11.504  0.1785 -0.1995  0.2568
17672W        W33746   9.259   2.194  14.422  0.1274 -0.1112 -0.0437
17673W        W33747   2.159  14.485  14.515  0.2862  0.0411 -0.1122
17674W        W33748   7.709  14.722   2.714  0.0993  0.0296  0.0850
17675W        W33749   4.031  10.385  12.105  0.1720 -0.2611  0.1210
17676W        W33750   7.660  17.870   2.414 -0.1878  0.1840 -0.1354
17677W        W33751   4.675   0.668  11.885 -0.1464  0.1211  0.1820
17678W        W33752  10.113   3.162  11.844  0.0562  0.1237 -0.1282
17679W        W33753  10.335   3.973   1.749  0.1097 -0.0815 -0.0473
17680W        W33754   8.013  10.653  12.801 -0.2493  0.1413 -0.2919
17681W        W33755  15.423   7.541  16.284  0.0378  0.0505 -0.0953
17682W        W33756   1.661  12.898  13.209  0.3008 -0.2290 -0.0363
17683W        W33757   1.972  17.331  13.966 -0.0848  0.3127 -0.0904
17684W        W33758  11.717   4.563  14.380 -0.3096  0.2899  0.3646
17685W        W33759   6.433   4.899  12.838 -0.2855  0.2262 -0.0468
17686W        W33760   9.721   8.051   5.041 -0.0148 -0.1904 -0.3697
17687W        W33761   6.858   0.716  16.210  0.3521 -0.0026 -0.1642
17688W        W33762   2.892   5.383  15.610 -0.2194  0.0875 -0.0211
17689W        W33763   9.799  12.435  15.804  0.0848  0.2325 -0.1873
17690W        W33764  15.729   8.256   5.047  0.0452 -0.0500  0.2511
17691W        W33765  15.748   1.541  16.098  0.2139  0.0487 -0.0353
17692W        W33766   3.900  16.336   2.146 -0.0679  0.0289 -0.1992
17693W        W33767  17.331   3.425  12.564 -0.0463  0.0143  0.0657
17694W        W33768   4.200   5.608  11.294  0.1489  0.1899  0.2306
17695W        W33769  13.213   0.947  13.085  0.2992  0.0112 -0.2576
17696W        W33770  16.886  17.369  10.885  0.2447  0.2062 -0.0137
17697W        W33771   6.876   8.095  15.656 -0.0533 -0.1658  0.0779
17698W        W33772  11.226   3.794   2.583 -0.1705  0.0391 -0.2091
17699W        W33773   9.459   2.254   3.084  0.0536 -0.1628  0.0231
17700W        W33774   4.538  12.920  13.828 -0.0306  0.1150 -0.1754
17701W        W33775  11.835   4.813   1.695 -0.1167  0.4424  0.2445
17702W        W33776   9.251   2.987  12.151 -0.1328  0.0082 -0.0068
17703W        W33777  13.434   6.866  13.056  0.0598  0.0044  0.0890
17704W        W33778   5.257   0.078  15.652 -0.1697 -0.0758 -0.1318
17705W        W33779  13.231  16.648  15.705  0.1816  0.2318  0.0212
17706W        W33780  12.154   4.765   4.023  0.1114  0.2682 -0.1780
17707W        W33781   1.782   4.660  11.921 -0.1350  0.0752 -0.0368
17708W        W33782  17.746   5.452   1.724  0.1537  0.2671  0.1704
17709W        W33783   8.756   5.372   4.134  0.0283 -0.1248 -0.1184
17710W        W33784  11.200  10.396  13.891  0.1635  0.0536  0.0543
17711W        W33785  17.452  10.340   5.153  0.2953  0.2099  0.1831
17712W        W33786   5.285   0.425  11.905  0.2530  0.0086  0.0783
17713W        W33787  15.460   8.631   3.243  0.0042  0.1446  0.0786
17714W        W33788   6.664   0.945   1.826 -0.0106  0.0903  0.0972
17715W        W33789   8.717   9.187   0.433  0.1563  0.2663 -0.0574
17716W        W33790   1.552  12.877  12.423 -0.1991 -0.1610  0.2007
17717W        W33791  15.020   9.388  14.458 -0.1595 -0.1185 -0.2054
17718W        W33792  11.429   6.025  14.218  0.2290 -0.0640 -0.4299
17719W        W33793   1.885  11.552  14.076 -0.1305  0.1566 -0.2890
17720W        W33794  16.226   8.928   5.966 -0.0814 -0.0158  0.3346
17721W        W33795  13.411  13.943   1.938  0.0085 -0.2451  0.0233
17722W        W33796   8.729   7.321  15.999 -0.0923  0.1850  0.0762
17723W        W33797   1.806   1.198  12.380  0.2465  0.2379 -0.0293
17724W        W33798   8.509   2.711  13.904 -0.0199 -0.2009 -0.1564
17725W        W33799  15.397   4.149   2.069  0.1323  0.4641 -0.0168
17726W        W33800   2.789  15.545  11.511 -0.1343  0.0973 -0.1042
17727W        W33801  17.297  16.587  14.895  0.1029 -0.1309  0.1505
17728W        W33802  17.626  12.135   0.494  0.4632 -0.2262 -0.1857
17729W        W33803   9.470   2.536  14.732 -0.0340  0.0795 -0.2318
17730W        W33804   0.547   3.605  15.551  0.0961  0.1119  0.2647
17731W        W33805  12.585  13.490   1.027  0.0862 -0.1796 -0.0450
17732W        W33806   2.123   9.632   2.915  0.0224 -0.2819  0.0899
17733W        W33807  15.711  13.577   2.244  0.2671  0.1365  0.0884
17734W        W33808   3.680  17.820  14.265  0.1980 -0.3100  0.0757
17735W        W33809  16.335   4.521  13.566  0.2275  0.2240 -0.2110
17736W        W33810  12.168   5.415   2.743  0.1289 -0.1107  0.2636
17737W        W33811   3.962   7.791  13.508  0.1889  0.1130  0.1305
17738W        W33812   1.814  16.023   1.754  0.0711 -0.1895  0.1763
17739W        W33813   9.582  17.505   1.055  0.0121 -0.1247 -0.0516
17740W        W33814   0.648  13.494  15.334 -0.0022 -0.1133 -0.1244
17741W        W33815   0.199   5.799  12.915  0.1911  0.1591 -0.0881
17742W        W33816   2.978  18.166   4.293  0.0977  0.2765  0.1274
17743W        W33817   6.423  11.716   2.854  0.0017  0.1790 -0.1187
17744W        W33818   9.733   9.490  15.223  0.0310  0.0304 -0.1980
17745W        W33819   9.358   1.786  11.523  0.0494  0.0358  0.3594
17746W        W33820   0.167   5.712  11.349 -0.0450  0.1687 -0.2457
17747W        W33821   8.707   2.540   0.845 -0.2164 -0.0409 -0.0800
17748W        W33822  14.815  11.668  11.176 -0.0611  0.4802 -0.0637
17749W        W33823   1.283   4.407  12.364 -0.1740  0.2081  0.0395
17750W        W33824  16.418   2.754  13.673 -0.0072  0.0296 -0.0033
17751W        W33825   4.156   0.667   4.356 -0.1414  0.0554  0.2016
17752W        W33826   8.385  17.215   0.208 -0.2784 -0.1317 -0.1762
17753W        W33827  16.093   5.047  11.832 -0.1390  0.0418 -0.1986
17754W        W33828   1.507   7.875  13.229 -0.2862 -0.1131 -0.1281
17755W        W33829  17.366   8.605   2.698 -0.1362  0.0624 -0.0538
17756W        W33830   5.248   5.787   2.749 -0.1408  0.2416 -0.1402
17757W        W33831  15.088   1.050  15.562 -0.1158  0.0020 -0.0776
17758W        W33832   6.550  15.556   4.757 -0.3031 -0.1545 -0.2599
17759W        W33833  15.499   5.393   2.025 -0.2878  0.1703 -0.0822
17760W        W33834   6.138   8.382  14.161 -0.2591  0.0002 -0.1042
17761W        W33835  10.666   1.386  13.034 -0.1189  0.0467  0.0665
17762W        W33836   4.247  12.043   2.320 -0.0077  0.0524 -0.1291
17763W        W33837  15.548  10.984   1.214 -0.2273  0.0626  0.3143
17764W        W33838   1.217  11.231   2.054 -0.0752 -0.0336  0.0106
17765W        W33839   2.101  11.420  11.031  0.1929 -0.0148  0.2487
17766W        W33840   9.618  15.397   1.702  0.1638  0.1621 -0.1423
17767W        W33841  10.363  15.991  12.631 -0.0422  0.0305 -0.0129
17768W        W33842   6.344  15.467   3.688 -0.0418  0.1595  0.3032
17769W        W33843  16.999   4.583   2.850  0.0496 -0.1991 -0.1753
17770W        W33844   5.974  17.175  12.003  0.1769  0.2539  0.1269
17771W        W33845  12.429  11.725   3.543 -0.1305  0.3582  0.0046
17772W        W33846   9.339  18.213   1.417 -0.0664  0.3898  0.2091
17773W        W33847  12.460  14.613  11.559 -0.0511  0.0657  0.0318
17774W        W33848   3.551   6.093   0.486  0.0771 -0.0071  0.0155
17775W        W33849  14.413  15.283  13.881  0.2070 -0.2096 -0.0820
17776W        W33850   9.653   3.737  16.489  0.2429  0.0721 -0.2883
17777W        W33851   7.561   3.574  13.120 -0.1557  0.1301 -0.1882
17778W        W33852   5.621  12.120  15.419 -0.1262 -0.0016 -0.3492
17779W        W33853   4.556  13.066   1.752  0.2490 -0.2660 -0.1472
17780W        W33854  16.477   5.319  11.959  0.1758 -0.0647 -0.3904
17781W        W33855   8.447  17.886   5.624  0.1934  0.1982  0.0452
17782W        W33856  10.610  13.725   1.840  0.1793 -0.0684 -0.0591
17783W        W33857  13.961  15.831  16.037 -0.1759 -0.0354 -0.3535
17784W        W33858  10.032  13.419  11.191 -0.0249 -0.0724 -0.3427
17785W        W33859  10.391  10.590   1.738  0.0407  0.1539  0.0659
17786W        W33860   7.575  10.370  11.223 -0.2964 -0.0379  0.2151
17787W        W33861  11.751  14.670  13.313  0.1684 -0.3005 -0.2293
17788W        W33862   9.715   8.838   1.332  0.0309 -0.0960 -0.0606
17789W        W33863   1.041   6.994  12.931  0.0688 -0.0976 -0.0442
17790W        W33864  18.025  14.689  13.682 -0.1046 -0.1768  0.0219
17791W        W33865   5.614  12.293  14.936 -0.1844  0.2827 -0.1101
17792W        W33866  17.611   3.327  14.632  0.1230 -0.1731  0.1241
17793W        W33867   6.623   4.486   5.783 -0.0892  0.2135 -0.2006
17794W        W33868   0.486  16.889   5.031 -0.2656 -0.0469 -0.0181
17795W        W33869   9.073  12.750   3.743 -0.0937  0.1360  0.2375
17796W        W33870  17.786  10.510  15.591  0.3463  0.0969 -0.1775
17797W        W33871   3.049   9.259   0.746  0.2203  0.3959  0.2470
17798W        W33872  17.950  15.950   4.942 -0.0184 -0.1953 -0.0191
17799W        W33873   1.064  15.161  14.648  0.0535 -0.0753 -0.1587
17800W        W33874   1.401   1.403  12.597 -0.2228 -0.1309  0.3069
17801W        W33875   3.702   2.297   5.008  0.0195 -0.4118  0.1085
17802W        W33876   3.443  10.601   3.156 -0.1211 -0.0413 -0.0552
17803W        W33877   7.922   1.083  13.455 -0.3682 -0.1338  0.0178
17804W        W33878  16.837   6.568  15.154  0.1399  0.0578  0.1717
17805W        W33879   9.109   4.143  13.802 -0.1140 -0.2281  0.1756
17806W        W33880   0.653  17.196  13.409 -0.0774 -0.2686  0.1603
17807W        W33881   6.687   6.737   0.915  0.2246 -0.0657  0.1603
17808W        W33882   7.491  11.968   3.948  0.2115  0.3015  0.2019
17809W        W33883  13.743  12.343   2.671  0.3521  0.0421  0.0695
17810W        W33884   8.824  12.617   5.567 -0.0120  0.0166  0.1783
17811W        W33885  17.420   3.238   2.323 -0.2111 -0.1106 -0.1503
17812W        W33886  12.520  13.017   3.655  0.0430  0.0403 -0.0836
17813W        W33887  10.263  16.963   5.766 -0.0040  0.3393  0.0012
17814W        W33888   0.013   1.782  13.908 -0.0590  0.0526  0.2760
17815W        W33889   1.440   8.299  15.176 -0.0962 -0.2822  0.2875
17816W        W33890   9.503  11.615   4.748  0.0687 -0.1201  0.5641
17817W        W33891   5.989  15.870  16.285 -0.0285 -0.3011  0.0588
17818W        W33892   0.797  13.541  14.859  0.0512  0.0793  0.1430
17819W        W33893   4.534   2.711  14.771  0.3433  0.0428  0.2891
17820W        W33894   3.157   6.300   0.804  0.0705 -0.1764  0.0843
17821W        W33895  17.910  17.497   0.125  0.3238 -0.0912  0.2324
17822W        W33896   2.297   7.926   3.773 -0.1277 -0.1531  0.0256
17823W        W33897   9.715  13.119  13.780 -0.0694 -0.1565 -0.0499
17824W        W33898  12.141   5.394   4.418 -0.2766 -0.2522  0.1431
17825W        W33899   2.228  12.124   1.588 -0.3652 -0.0358 -0.0313
17826W        W33900   2.533   1.165   0.982 -0.3078  0.0681 -0.1776
17827W        W33901  12.402  12.178   1.905  0.1664  0.2147 -0.0582
17828W        W33902   2.620  15.248   0.696  0.0966 -0.0311 -0.1045
17829W        W33903   3.952   4.590  12.064  0.3677 -0.0779 -0.0057
17830W        W33904   3.602   3.817  16.308 -0.1354  0.4255 -0.0967
17831W        W33905  12.265   2.540  16.132  0.1199  0.1426  0.0320
17832W        W33906   8.646  16.775  11.347  0.1422 -0.0468 -0.2387
17833W        W33907  14.805   0.934  15.932 -0.2032  0.3707 -0.0814
17834W        W33908  14.154   6.297   4.286  0.0042 -0.1073  0.3198
17835W        W33909   9.259  17.777   3.066 -0.2045 -0.3139 -0.0658
17836W        W33910   0.535   6.922   1.963  0.0952 -0.0109 -0.3097
17837W        W33911  10.207   6.994   4.216  0.2310 -0.2993  0.2645
17838W        W33912  15.518  14.031  14.527  0.0616 -0.0395  0.1796
17839W        W33913  13.544   0.572  13.924 -0.5926 -0.1583  0.1108
17840W        W33914   8.929   6.729   0.557  0.3161 -0.0976  0.0371
17841W        W33915  14.387  13.095   4.382  0.0360  0.0904  0.1303
17842W        W33916   6.353   3.142  14.216 -0.0762  0.2782 -0.1707
17843W        W33917  14.338   5.478  14.589  0.0021 -0.1935  0.1641
17844W        W33918   9.200   9.464  15.357  0.0367  0.2282  0.1053
17845W        W33919   6.827   4.779  12.217  0.0576  0.3064  0.1329
17846W        W33920   6.816  16.350   5.308 -0.3939  0.0152  0.0618
17847W        W33921  15.937   7.585   1.147  0.1659  0.3264 -0.5114
17848W        W33922   2.021   6.868  16.287  0.1329 -0.0329 -0.0549
17849W        W33923   5.905  11.789  15.817 -0.0619  0.0331  0.2678
17850W        W33924  14.743  11.997   0.558  0.3676 -0.0760  0.1956
17851W        W33925   6.462   5.498   1.436  0.1984 -0.0491 -0.0821
17852W        W33926   7.344  11.687  13.980  0.0385  0.0476  0.0387
17853W        W33927  15.730   3.946  14.023  0.0759  0.0411 -0.2679
17854W        W33928   6.689   9.137   1.070  0.1737  0.0823 -0.0013
17855W        W33929   6.838   7.455  13.232  0.0503 -0.0620  0.0654
17856W        W33930   5.824   3.316  12.810 -0.2023  0.4812  0.0208
17857W        W33931  17.676  16.769   4.235  0.0202  0.2115 -0.0208
17858W        W33932   0.480  13.719   2.378  0.1491 -0.0832 -0.0672
17859W        W33933   8.539   0.962   4.133  0.1646 -0.2934  0.3810
17860W        W33934  14.429  17.885   3.886  0.1159  0.4321  0.1926
17861W        W33935  16.799   3.372   2.205  0.4159  0.1169  0.2957
17862W        W33936  16.516  13.170   2.134 -0.1288  0.2120  0.0082
17863W        W33937  17.026   4.696  16.412 -0.1307 -0.5185 -0.0832
17864W        W33938   9.224  13.190   1.042 -0.4171  0.5085 -0.2435
17865W        W33939  10.288   2.765  14.191 -0.2576  0.0656  0.0340
17866W        W33940   3.264   7.840  15.623  0.0915  0.1853  0.2598
17867W        W33941   8.930   5.271  13.210 -0.1078  0.1010  0.0352
17868W        W33942   5.793  18.017  14.829 -0.2409 -0.2942  0.2050
17869W        W33943   5.421  14.882  16.168  0.5383  0.2256 -0.0862
17870W        W33944  12.646  13.987  13.899 -0.0439  0.1684 -0.0036
17871W        W33945  14.951  12.701   3.763 -0.3106 -0.3578  0.0061
17872W        W33946  17.060  12.637   0.967  0.0640 -0.1556 -0.2674
17873W        W33947  11.484   4.828   4.681  0.3771  0.2854 -0.2787
17874W        W33948  10.387   5.784   4.694 -0.0046  0.4930 -0.0722
17875W        W33949   6.903  10.124   2.532 -0.2036 -0.0280 -0.3090
17876W        W33950  13.509   5.044   3.228 -0.0311  0.2231 -0.1275
17877W        W33951   9.575   7.546  11.310 -0.0600 -0.0894 -0.1737
17878W        W33952  10.876   3.815   3.888 -0.1680 -0.2716 -0.3419
17879W        W33953   9.596   4.531   4.970  0.0631  0.3261  0.1024
17880W        W33954  11.020   4.312   3.701 -0.0900  0.0245  0.0447
17881W        W33955   8.509  15.084   4.910  0.1591 -0.0352  0.2346
17882W        W33956  13.313   4.464  13.781 -0.2217  0.1508 -0.0940
17883W        W33957   8.956   3.264  11.596  0.0431  0.4096  0.0518
17884W        W33958  14.510  15.291   1.019  0.0626 -0.0188 -0.0535
17885W        W33959  16.724  10.230  11.558  0.1283 -0.0377  0.3359
17886W        W33960  16.688  10.303  16.488  0.2100  0.4734 -0.1806
17887W        W33961  11.373  14.697   5.237  0.0501  0.0851 -0.0806
17888W        W33962  14.811  16.062   5.155  0.0305  0.2564 -0.0297
17889W        W33963   4.529  12.463   0.241  0.1258 -0.0198 -0.2748
17890W        W33964  12.691  13.745   3.137 -0.2358 -0.3446  0.1318
17891W        W33965  17.882  15.577   1.712 -0.0046 -0.0932  0.3600
17892W        W33966  15.990   9.783  15.831  0.0747  0.1120 -0.0236
17893W        W33967   6.897   5.620  11.904  0.0162 -0.0978 -0.0840
17894W        W33968   7.728   5.503  14.892 -0.2244 -0.1056  0.0213
17895W        W33969   5.600   5.728  12.379 -0.1256 -0.1381  0.2552
17896W        W33970  16.443  17.460   2.137  0.5171  0.1453 -0.1317
17897W        W33971  17.502   2.820   0.336  0.0013 -0.1425 -0.0928
17898W        W33972  14.388   7.235   3.054  0.0553 -0.0844 -0.3509
17899W        W33973   1.826  16.444   5.498  0.0775 -0.3794 -0.2362
17900W        W33974   6.722  16.173   1.789  0.0761 -0.3094  0.0219
17901W        W33975   2.553   9.400   2.843  0.1022 -0.0086 -0.0564
17902W        W33976  17.048   9.022  15.908  0.1308  0.0420 -0.1262
17903W        W33977   8.957   6.803  11.747  0.0117  0.1361 -0.2567
17904W        W33978   4.082   0.130  13.454 -0.3431 -0.1515 -0.0223
17905W        W33979   7.921   3.024   0.698 -0.2329 -0.0500  0.0176
17906W        W33980  17.569   1.703   6.111  0.2355 -0.3060 -0.2584
17907W        W33981  16.299  11.729  14.984 -0.4605  0.1224  0.0647
17908W        W33982   5.810   9.560   2.865  0.1290  0.2823 -0.0343
17909W        W33983  15.537   2.742   0.975 -0.3885 -0.3415  0.1490
17910W        W33984  10.873   1.504   3.072  0.2857 -0.2453 -0.3281
17911W        W33985  12.929  13.857  12.468  0.0579 -0.1576 -0.2733
17912W        W33986   9.831  16.268   2.036  0.1293  0.1452 -0.1358
17913W        W33987   9.827   3.894  12.639  0.0806 -0.0400  0.0591
17914W        W33988  10.203   5.815   3.716 -0.3161  0.1174  0.2165
17915W        W33989  11.962   6.358   4.216 -0.4393 -0.2398 -0.0077
17916W        W33990  15.523   1.715   0.759  0.0564 -0.0554  0.0588
17917W        W33991   3.627  10.911   3.794  0.4469 -0.0199  0.1907
17918W        W33992   5.979  11.875   1.442  0.1074 -0.0717 -0.1854
17919W        W33993  11.022  16.827  12.020 -0.4998  0.3228 -0.5017
17920W        W33994  12.376   3.286   0.768  0.0785  0.1864 -0.1622
17921W        W33995   4.997  11.369   6.263 -0.2048 -0.0442  0.0045
17922W        W33996  11.085  15.382   2.703  0.1418 -0.0239 -0.2615
17923W        W33997   3.193   2.878  11.546  0.0327  0.0118 -0.4118
17924W        W33998  14.913   3.663   5.683  0.2286  0.3530 -0.1874
17925W        W33999   4.185  10.842   3.578  0.2197  0.1171  0.2464
17926W        W34000   1.253   4.875   3.534  0.1004 -0.0379 -0.0214
17927W        W34001   8.572  13.171   0.444 -0.0576 -0.5524 -0.0987
17928W        W34002   7.529   5.247   2.937  0.0069 -0.0362 -0.4671
17929W        W34003   7.793   9.332  11.276  0.0963 -0.1095  0.0032
17930W        W34004   1.091   5.489   5.532 -0.1598 -0.1834 -0.1132
17931W        W34005  17.510   1.236  12.204 -0.1223  0.1540 -0.1632
17932W        W34006  10.328  15.485   3.858 -0.1192 -0.1484  0.1121
17933W        W34007  14.985  14.079  14.404 -0.0908 -0.1617  0.0345
17934W        W34008  11.244  12.525  15.784 -0.1309 -0.1948  0.0466
17935W        W34009   3.679   9.281   2.824  0.0614 -0.1393  0.0560
17936W        W34010  15.793  11.155  15.131  0.2055 -0.0956  0.2260
17937W        W34011   8.833  10.707   0.651 -0.1116  0.0723  0.1122
17938W        W34012   6.413   1.456  11.999  0.2078 -0.1072 -0.0107
17939W        W34013   1.627  14.936  15.746 -0.2974  0.0460 -0.2496
17940W        W34014  11.256   9.622  10.834 -0.2666 -0.2217 -0.1836
17941W        W34015   8.643  12.723  13.760  0.1309 -0.1643 -0.3761
17942W        W34016  11.363   4.288   4.551 -0.0483 -0.0603  0.1868
17943W        W34017   0.992  14.762  13.096  0.0093 -0.0359  0.0798
17944W        W34018   9.557   9.032  16.002 -0.2895  0.3199 -0.0884
17945W        W34019  13.678   3.775   3.306 -0.4314  0.3062  0.3518
17946W        W34020  17.346  15.477  12.278  0.2868 -0.1516  0.1776
17947W        W34021   2.439  14.188  16.161  0.0544 -0.0791 -0.1027
17948W        W34022   3.332  16.303   4.035 -0.3328 -0.0245  0.0131
17949W        W34023  11.237   7.746   3.578 -0.1974 -0.4053  0.0587
17950W        W34024   7.513   7.075  15.314  0.1700  0.0406 -0.2155
17951W        W34025   6.869   6.412   2.429 -0.0011  0.1539 -0.2873
17952W        W34026  12.505   7.046   5.505  0.1375 -0.2015 -0.0683
17953W        W34027  11.393   9.528   3.557  0.1805  0.0740 -0.0042
17954W        W34028   2.859  15.037  15.556  0.3970 -0.2869 -0.0888
17955W        W34029  12.496   1.766   0.004  0.0639 -0.0109  0.2525
17956W        W34030  16.316  11.929  11.583  0.0851 -0.1845 -0.1922
17957W        W34031   2.657   3.281   2.452  0.1984 -0.0253  0.0967
17958W        W34032  17.344   8.179   4.806 -0.0634  0.1009 -0.0624
17959W        W34033   1.989  17.137   1.449  0.1561  0.0857 -0.0411
17960W        W34034   3.983   9.420   3.747 -0.4145 -0.1170 -0.1079
17961W        W34035  11.092   7.154   1.061 -0.3102 -0.3125  0.1962
17962W        W34036   1.001   1.312  16.465 -0.2514  0.1714 -0.1301
17963W        W34037   3.565   4.848   0.659  0.2098 -0.0775  0.1325
17964W        W34038  17.649  11.529  14.093  0.2317  0.2207 -0.0319
17965W        W34039   2.837   5.886  13.948  0.0616  0.0806 -0.2704
17966W        W34040   1.055  14.546   4.596 -0.2769  0.3793 -0.2727
17967W        W34041   8.550   2.044  15.202 -0.0154  0.3809  0.2987
17968W        W34042   4.655  13.659   5.599  0.2267 -0.0424  0.1800
17969W        W34043  13.543  12.635  13.697 -0.1912 -0.2046 -0.1114
17970W        W34044  17.908   5.874  16.414 -0.0405  0.0477 -0.0989
17971W        W34045  10.826   3.082   1.933  0.0569 -0.1493  0.0962
17972W        W34046   2.954   9.300  11.353  0.0138  0.2408 -0.2396
17973W        W34047   5.751   4.741  15.162  0.0501  0.2937 -0.2436
17974W        W34048  10.625  16.602  13.356  0.1615 -0.1844  0.0983
17975W        W34049   4.947  13.160   2.624  0.0380  0.0316 -0.2779
17976W        W34050   3.410   7.304   2.975 -0.0151 -0.0099  0.2384
17977W        W34051   5.109  15.231  13.497 -0.1840 -0.0310 -0.2678
17978W        W34052  14.906  11.822  12.450  0.1679 -0.0691  0.1070
17979W        W34053   2.675  17.146   4.830 -0.0850 -0.1019  0.0866
17980W        W34054   7.746   7.219  11.566  0.0993 -0.3160 -0.0084
17981W        W34055   8.028   5.301   2.658  0.3168 -0.0303  0.0089
17982W        W34056  15.394   6.580   1.062  0.0013 -0.0589  0.0819
17983W        W34057  15.555   0.571   3.335 -0.1406  0.0588  0.1603
17984W        W34058  10.194   9.703   4.525 -0.1581 -0.2849 -0.0318
17985W        W34059  13.037   6.820  13.323  0.2897 -0.0732 -0.0323
17986W        W34060   5.234   5.679   1.052 -0.1992 -0.3905 -0.0383
17987W        W34061  17.003   5.460  11.774 -0.0249  0.1132 -0.2227
17988W        W34062  11.706   2.373   2.597 -0.1795  0.1094  0.0340
17989W        W34063   2.228   2.114   2.600 -0.2176 -0.0565  0.0499
17990W        W34064  15.796  16.812   2.104  0.2656 -0.2009 -0.0703
17991W        W34065  11.155   6.275   4.088 -0.0727 -0.4468 -0.1070
17992W        W34066  11.899  10.118  12.608 -0.1828 -0.2839 -0.3160
17993W        W34067   2.541   9.721   5.735 -0.1210  0.3199  0.0206
17994W        W34068   9.795  17.284   1.915 -0.0602 -0.2801  0.0035
17995W        W34069   9.679  15.137  14.898  0.0641 -0.0389  0.0332
17996W        W34070   4.819  13.353  15.316 -0.0855 -0.1675 -0.1629
17997W        W34071   4.406   6.221   2.478  0.1382  0.2579  0.1082
17998W        W34072   8.890  15.519  15.191 -0.0616  0.2632 -0.0069
17999W        W34073   9.634  15.584  12.758  0.0085 -0.1200 -0.1270
18000W        W34074  11.136   3.660   0.115  0.2098  0.4673 -0.0608
18001W        W34075  17.051   1.675   5.943 -0.4084 -0.0581 -0.2950
18002W        W34076   2.540  10.566   5.541  0.2301 -0.0216 -0.2286
18003W        W34077   4.981   9.142   3.659 -0.2435 -0.0510  0.2230
18004W        W34078  14.404   9.668   2.273  0.2471  0.2850 -0.2666
18005W        W34079   9.956   2.519   4.998  0.3077  0.2052 -0.0969
18006W        W34080   9.078  16.534  15.018  0.1484  0.1776 -0.0795
18007W        W34081   7.261  11.811   1.586 -0.0269  0.1183 -0.2227
18008W        W34082  15.947   1.506   5.954 -0.0747  0.1208  0.2630
18009W        W34083   9.908  17.188   0.781 -0.1030 -0.1881 -0.2013
18010W        W34084   1.080  15.241  10.756 -0.3728  0.2499  0.0435
18011W        W34085   4.625   5.115   3.250 -0.1708 -0.1142 -0.0523
18012W        W34086  14.714  12.556   3.065  0.1956  0.0434 -0.0636
18013W        W34087   3.230  12.969   5.640  0.0373  0.1130 -0.0876
18014W        W34088   5.057   8.775   2.767 -0.3180  0.0111 -0.2429
18015W        W34089  16.106   8.955  13.754 -0.5057  0.0675 -0.0232
18016W        W34090  17.291   6.507   2.276  0.0671  0.0854 -0.0628
18017W        W34091  14.024  13.557  13.671 -0.0389  0.1482  0.0917
18018W        W34092  10.721  16.443  15.775 -0.1240  0.1446  0.0350
18019W        W34093   4.423   9.973  11.417  0.2067  0.0063 -0.3393
18020W        W34094   2.977   4.714   5.575 -0.4530 -0.1409 -0.4786
18021W        W34095   7.497  15.098   3.058  0.1184  0.1222 -0.1225
18022W        W34096   9.399   9.389  14.583 -0.0170  0.1679  0.0790
18023W        W34097   9.522   9.993  13.165  0.0486  0.1809 -0.2435
18024W        W34098   6.345  13.169  12.525 -0.0886 -0.1836  0.0644
18025W        W34099   4.329  12.440  13.619  0.0531 -0.3400 -0.0543
18026W        W34100  15.581   5.786  13.425 -0.1250 -0.0303 -0.1215
18027W        W34101   4.883   6.285  15.795  0.1978  0.2203  0.0143
18028W        W34102  15.419  17.402   4.548 -0.3078  0.0869  0.0783
18029W        W34103  12.068  17.606  11.442  0.4186 -0.1094 -0.2177
18030W        W34104   7.492   4.186   5.318  0.1125 -0.0691  0.0552
18031W        W34105   8.629  10.444  11.272 -0.2914  0.1218  0.2087
18032W        W34106  13.504  16.470  12.139  0.0343 -0.0131  0.0814
18033W        W34107   8.649  10.607  13.446 -0.0306 -0.0531 -0.3304
18034W        W34108   8.261  12.111   5.322 -0.1441 -0.2797 -0.2095
18035W        W34109   7.896  12.427  11.595  0.2137  0.1346 -0.1547
18036W        W34110  17.885  11.057   0.611 -0.1164 -0.2903  0.0809
18037W        W34111   1.715  15.582  15.152  0.1318 -0.1374  0.1197
18038W        W34112   2.660  13.500  12.113 -0.1889  0.0362  0.1387
18039W        W34113  12.283   4.915  16.126  0.0112  0.2315 -0.1034
18040W        W34114   6.474   1.098   4.630  0.0456 -0.0313 -0.1749
18041W        W34115   7.316   0.263   4.881 -0.1645  0.0395 -0.2843
18042W        W34116  17.763  14.159   2.999  0.1473 -0.0066  0.1223
18043W        W34117   0.911  12.060  13.915  0.2968 -0.1723 -0.1648
18044W        W34118  12.250  14.732   1.100 -0.1062 -0.2366  0.2107
18045W        W34119  16.038  10.914   1.078  0.2111  0.1647 -0.4916
18046W        W34120  17.169   9.342   5.988  0.0599  0.3269 -0.1951
18047W        W34121   1.451  11.204  12.803 -0.3520 -0.1456  0.0028
18048W        W34122   5.438  12.854   2.435 -0.0196  0.1515  0.1541
18049W        W34123  11.626   3.535   2.430 -0.1048  0.0144  0.0516
18050W        W34124  11.749   9.563   5.490 -0.1092 -0.3689  0.0689
18051W        W34125   5.378   7.752  12.408 -0.0553  0.1266  0.1961
18052W        W34126  16.859   8.949   4.230  0.1936 -0.0403  0.4133
18053W        W34127   9.062   4.346   5.037  0.1709  0.0973 -0.0958
18054W        W34128  14.927   9.724  16.123  0.1577 -0.1324 -0.1042
18055W        W34129   3.491   9.934  10.872  0.0205 -0.0914 -0.0741
18056W        W34130   1.440   0.361   0.075 -0.0651 -0.2081  0.0813
18057W        W34131   6.080   7.937  13.782 -0.0937 -0.0791  0.0398
18058W        W34132   6.709   4.811  16.415 -0.0212 -0.3605 -0.2246
18059W        W34133   0.194  13.368  14.865 -0.1973  0.0371  0.2166
18060W        W34134   1.604  10.319  15.946  0.1958 -0.0707 -0.1762
18061W        W34135   0.550  12.628   4.848  0.0135 -0.0900  0.2062
18062W        W34136  12.459   3.695   4.396 -0.1244  0.1618 -0.1009
18063W        W34137   1.736   6.798  15.808 -0.0728 -0.0760 -0.5134
18064W        W34138   4.222  11.584  12.723 -0.3847  0.0527 -0.0578
18065W        W34139   7.229   7.211  11.696 -0.1769 -0.2583  0.1937
18066W        W34140  12.852   2.057   3.879 -0.0129 -0.0996  0.3642
18067W        W34141   4.656  10.925   2.588 -0.0231 -0.0995  0.0770
18068W        W34142   8.071   5.846   1.782 -0.2867 -0.2062  0.0229
18069W        W34143   5.904   7.993   3.306 -0.2075  0.2865 -0.0436
18070W        W34144   0.951  13.468   3.912 -0.1158 -0.0113 -0.0900
18071W        W34145  15.826  10.476   2.371  0.2014  0.0984 -0.0848
18072W        W34146   3.457   9.815   5.343 -0.4516 -0.0622  0.1221
18073W        W34147  13.920  12.737  11.894 -0.0557 -0.2846  0.0145
18074W        W34148   7.595   9.200  12.278  0.1242  0.0830 -0.0102
18075W        W34149  11.046  17.647   0.089  0.0133 -0.0300  0.4616
18076W        W34150  17.041  13.122   1.073  0.1761 -0.2331  0.1223
18077W        W34151   0.304  11.041  14.604  0.1327  0.0599  0.3176
18078W        W34152  11.083   2.682   2.132 -0.2615  0.2582  0.0442
18079W        W34153   7.788   7.364   3.033 -0.1705  0.2682  0.0491
18080W        W34154  15.360  13.898  12.480  0.1648  0.1710 -0.1026
18081W        W34155   3.657  15.582  11.775 -0.0593 -0.1545  0.0941
18082W        W34156  15.505   4.417   3.061  0.1689 -0.0969  0.2770
18083W        W34157   6.963  13.253  11.790 -0.2139  0.0560  0.0652
18084W        W34158   2.838  14.854   1.682 -0.2212 -0.3151  0.2259
18085W        W34159   6.978  16.674   3.982 -0.1797 -0.2379 -0.0588
18086W        W34160  17.363   5.435  14.884 -0.4499  0.3120 -0.0598
18087W        W34161   9.870   2.183   0.107  0.1830  0.1380  0.0697
18088W        W34162   4.951   2.613   1.706 -0.1080 -0.4633 -0.0867
18089W        W34163  15.545   9.815   5.197  0.2840 -0.1175 -0.0092
18090W        W34164   4.158   3.539   2.324 -0.1028  0.1832  0.0780
18091W        W34165  11.988   8.995   3.803 -0.2543 -0.1650  0.0824
18092W        W34166   5.249  14.348  12.729  0.4661 -0.1157  0.4192
18093W        W34167   1.529   1.796   0.869 -0.0281 -0.2385  0.1144
18094W        W34168  12.902   5.236   0.136 -0.0837  0.1805  0.1731
18095W        W34169   7.356  16.997  11.710  0.1366 -0.3300  0.0581
18096W        W34170   0.901   0.457   5.508  0.0557  0.0343 -0.0505
18097W        W34171   8.705   2.402  12.844  0.2703 -0.0834  0.1013
18098W        W34172  16.993  17.931   0.503 -0.1610  0.2278  0.3815
18099W        W34173   5.251   9.372  14.363 -0.2574  0.0792 -0.2151
18100W        W34174   8.877   0.812   5.439  0.2961 -0.1038 -0.0568
18101W        W34175   1.938   9.504  14.820 -0.0093 -0.0084  0.0113
18102W        W34176   0.876  12.380   0.509 -0.0300 -0.1916  0.0768
18103W        W34177  14.086   6.234  12.003  0.0590  0.2723 -0.3845
18104W        W34178   7.616   8.018  15.046 -0.1004 -0.1754  0.1717
18105W        W34179  16.797   5.098   1.452 -0.2951  0.2892  0.1566
18106W        W34180   9.171  13.241   0.526 -0.1209  0.1561  0.0694
18107W        W34181  17.117   7.412  14.569 -0.3475 -0.0798  0.1229
18108W        W34182   7.847   1.287  12.931  0.0048 -0.0458 -0.0539
18109W        W34183  12.200  16.533  13.389 -0.1811  0.4317 -0.2784
18110W        W34184   3.709  13.336  13.802  0.2107 -0.1285  0.1407
18111W        W34185  10.445   0.686   2.283  0.1900  0.0493  0.1084
18112W        W34186  11.426   5.045  15.177 -0.0066  0.0546  0.0684
18113W        W34187  10.457  10.907   4.398  0.0742 -0.1690 -0.0453
18114W        W34188  12.793  10.621   0.623  0.2367  0.3302  0.3005
18115W        W34189  14.929  14.033   3.396  0.3274  0.3063 -0.1288
18116W        W34190  10.190   5.838  16.178  0.0923 -0.1410 -0.2474
18117W        W34191  15.765  11.360   0.135  0.1007  0.0136 -0.3020
18118W        W34192   7.138   5.413  12.761  0.1385  0.6768 -0.1876
18119W        W34193  12.076   3.050   3.667  0.2079 -0.0799  0.1911
18120W        W34194  11.687   3.872   1.470  0.1705 -0.2255 -0.3235
18121W        W34195  16.527  15.237  12.501 -0.0604  0.0362 -0.0461
18122W        W34196  11.030   7.787   5.125 -0.3708 -0.1043 -0.2335
18123W        W34197   8.506   1.070   2.546 -0.0833 -0.0131  0.0880
18124W        W34198  13.858  12.028  12.443 -0.0370  0.2442 -0.3986
18125W        W34199   4.234   0.466  12.609  0.2320 -0.0935  0.0341
18126W        W34200   6.945   8.238   2.390  0.4738 -0.0872 -0.0482
18127W        W34201  12.491  10.266  15.184 -0.1593 -0.1530 -0.0567
18128W        W34202   3.540   7.475   0.722 -0.2609 -0.1549 -0.3767
18129W        W34203  17.581  14.303  15.047 -0.1456  0.2759 -0.0370
18130W        W34204   4.499  12.622   3.694  0.1545 -0.2001  0.2604
18131W        W34205   0.677   3.223   1.177  0.1692  0.1161  0.1032
18132W        W34206  14.361   9.007  14.427 -0.1089 -0.2823  0.2007
18133W        W34207   2.749  15.140   1.161 -0.0502  0.2838 -0.1620
18134W        W34208   4.659   7.414   2.038  0.2266  0.2063 -0.1163
18135W        W34209  14.974   6.929   0.294  0.0819 -0.1181  0.0412
18136W        W34210  14.270  11.720   3.260  0.1611 -0.2991 -0.2151
18137W        W34211   1.928  10.225   1.033  0.2532 -0.1864  0.0694
18138W        W34212   5.528  10.686   2.520 -0.1553 -0.1496  0.0694
18139W        W34213   3.824   7.440   4.367  0.0594  0.2618 -0.3191
18140W        W34214   3.857  16.917   0.052  0.1794 -0.2454 -0.0415
18141W        W34215   7.292  14.921   1.354 -0.1587 -0.1205 -0.1947
18142W        W34216   5.505   7.026   4.288 -0.0397  0.1219 -0.0903
18143W        W34217   5.460   1.959   1.623  0.1267 -0.1636 -0.1954
18144W        W34218   7.373   1.855  16.331  0.0376 -0.0778 -0.0226
18145W        W34219  13.712  14.714  14.435  0.0882  0.2005  0.0179
18146W        W34220  14.660   2.474   0.643  0.1514  0.0268 -0.1299
18147W        W34221   9.904  16.891   5.468 -0.2557  0.2587 -0.0684
18148W        W34222  15.671  13.452   3.617  0.2690 -0.1463  0.0654
18149W        W34223   2.457  17.085  15.287  0.1445 -0.4390 -0.1563
18150W        W34224   2.207   6.728  12.900  0.4531  0.2727 -0.2171
18151W        W34225  15.756   8.658   4.692 -0.3408  0.0625 -0.1316
18152W        W34226  13.556  13.960   5.380  0.2561  0.2871 -0.2108
18153W        W34227   2.661   4.630   0.070  0.0820 -0.0008  0.1546
18154W        W34228  17.927   2.640  12.417  0.0637 -0.2546 -0.2892
18155W        W34229   5.075   4.494  12.286 -0.1393  0.2838  0.0190
18156W        W34230  15.203   0.574   3.816 -0.1469 -0.0400 -0.0830
18157W        W34231   5.568  18.000  15.425  0.1409  0.1257  0.0600
18158W        W34232  12.454  13.037   4.632 -0.0900 -0.2445  0.2218
18159W        W34233  14.020   8.796  14.109  0.1364 -0.1050 -0.0721
18160W        W34234   7.205   8.028  11.522 -0.0464  0.1754 -0.2111
18161W        W34235   0.734   9.960  15.591 -0.2133  0.0568  0.0946
18162W        W34236  14.065   4.607   0.950 -0.2361  0.0860  0.0107
18163W        W34237   2.992  15.732  14.275  0.3261 -0.3366  0.2166
18164W        W34238   4.218   1.071   6.114  0.1731 -0.1613 -0.0897
18165W        W34239  18.001   9.587  13.394  0.3581  0.0516  0.0194
18166W        W34240  13.615   7.805  12.477  0.3282 -0.1787  0.1402
18167W        W34241   9.243   3.786   2.573 -0.2605 -0.0779 -0.0182
18168W        W34242  17.075   2.518   0.497 -0.1034  0.0924  0.2988
18169W        W34243   9.109  12.929  11.097  0.0306 -0.0829 -0.0155
18170W        W34244   6.137   0.798  13.466 -0.0673  0.1091  0.1577
18171W        W34245   9.891   2.940   3.721  0.1603  0.0266 -0.2527
18172W        W34246  12.288   3.808   0.828  0.2954 -0.0182  0.2775
18173W        W34247   4.336   7.307  11.506  0.0129 -0.3135 -0.0371
18174W        W34248   4.223  17.912   0.295 -0.0020  0.1997  0.0546
18175W        W34249  11.667   4.415   1.407  0.2895 -0.1183 -0.3586
18176W        W34250   6.016  18.187   3.910 -0.2291 -0.2067  0.0105
18177W        W34251   6.825  12.569  13.323  0.0722 -0.2016  0.0678
18178W        W34252  17.300  16.952  11.899 -0.1778 -0.0868  0.0155
18179W        W34253   2.727  10.802   2.309  0.0040  0.0202 -0.2595
18180W        W34254   5.525   2.080   0.348  0.3255  0.1352 -0.4478
18181W        W34255   1.777  14.149  15.531 -0.0682  0.1385 -0.2070
18182W        W34256  15.388   8.207   4.638 -0.0491 -0.0097 -0.1456
18183W        W34257   3.713   6.740   0.085 -0.2150 -0.1562  0.1055
18184W        W34258   0.776   8.261  11.016 -0.1307  0.3698 -0.0109
18185W        W34259  11.918   2.641   4.671 -0.0176  0.0572 -0.0412
18186W        W34260  10.597  10.458   4.596 -0.4158 -0.1403  0.1144
18187W        W34261  12.254   9.255   2.079  0.1524  0.2170 -0.0105
18188W        W34262   8.652  12.751   4.004  0.0588 -0.1346  0.2576
18189W        W34263   8.997  15.894   3.758 -0.2372  0.2150  0.1451
18190W        W34264  15.066  11.893   5.851 -0.1257 -0.2675 -0.1787
18191W        W34265   8.261   3.542   2.170  0.2222  0.1419 -0.1424
18192W        W34266   8.966   6.010  16.059  0.2531  0.0705 -0.0145
18193W        W34267   0.824   7.963  12.599 -0.4113 -0.1013 -0.1312
18194W        W34268   7.734  14.891   4.558  0.0676  0.3801 -0.1708
18195W        W34269   3.582   0.088   4.844 -0.0008  0.1423 -0.1639
18196W        W34270   9.189   2.586   1.045 -0.2155  0.3116  0.0401
18197W        W34271  12.568   8.049  14.564 -0.1276 -0.1606 -0.1908
18198W        W34272  10.469  15.377   1.103 -0.2396 -0.3824  0.0913
18199W        W34273  17.435  17.476  13.720 -0.1333  0.0031 -0.3530
18200W        W34274   6.403  11.547   3.364  0.0140 -0.0428  0.1161
18201W        W34275  14.470  10.115   2.679 -0.1613 -0.1840 -0.2577
18202W        W34276   1.699   9.922   1.890  0.1470  0.0029  0.1207
18203W        W34277  12.449  15.023   2.463 -0.0647 -0.0785  0.1578
18204W        W34278   3.665   6.740   1.352  0.0730  0.2787  0.1085
18205W        W34279  15.862  12.211  11.726  0.0415  0.2005  0.1558
18206W        W34280  12.252   8.906  14.533  0.0038 -0.0267  0.2396
18207W        W34281   7.069   1.785   3.895 -0.4101  0.0087 -0.2470
18208W        W34282  15.297   0.849  16.066  0.2837 -0.0209 -0.3739
18209W        W34283  13.577  14.639   0.190  0.3909  0.2108  0.2271
18210W        W34284   5.944   0.218   3.017  0.1328 -0.1898  0.0030
18211W        W34285  12.004  11.834  12.217  0.0011  0.0991 -0.1772
18212W        W34286  11.768  14.411  15.268  0.0122  0.0806  0.0855
18213W        W34287  16.036   8.585  14.212  0.1211 -0.1332 -0.0542
18214W        W34288   6.263  11.558  11.543 -0.2204 -0.0627  0.0361
18215W        W34289   4.767   3.430   4.410  0.1492 -0.1534  0.2803
18216W        W34290   1.371  11.181  13.482  0.1777  0.2950 -0.2607
18217W        W34291   7.497   5.147   5.079  0.0065  0.0356  0.0879
18218W        W34292   8.149   0.825   0.393 -0.1211 -0.2878 -0.2448
18219W        W34293   4.728  11.792  13.910 -0.0555 -0.0285  0.1163
18220W        W34294   8.687   5.622  12.877  0.2311 -0.0440 -0.1150
18221W        W34295   9.786   6.224  14.205 -0.0926 -0.1724 -0.2368
18222W        W34296   4.641  13.868   1.501  0.0973 -0.0146 -0.0832
18223W        W34297  12.628   0.785  14.966  0.0987  0.0790 -0.0798
18224W        W34298   0.346  15.163  16.029  0.1622 -0.1189  0.0516
18225W        W34299   4.395   5.729   2.195  0.0242 -0.0860  0.2210
18226W        W34300  11.386   6.243  13.578  0.1320 -0.1706 -0.3810
18227W        W34301  12.125  12.760   0.216  0.0559 -0.0375  0.1664
18228W        W34302  12.821   5.906   2.859 -0.0945  0.2498  0.1559
18229W        W34303  14.406   3.765   0.083  0.0984 -0.1188 -0.4299
18230W        W34304   7.001   4.746  14.506 -0.1654 -0.1845  0.1142
18231W        W34305  11.769  15.379   2.514 -0.3441 -0.3070  0.2600
18232W        W34306  16.093   6.378   6.180  0.0142 -0.2310  0.1112
18233W        W34307  16.874   7.233  12.237  0.1547 -0.0382 -0.2805
18234W        W34308   9.312   8.627  14.873  0.2592  0.1557 -0.1021
18235W        W34309  17.368  11.908  15.827 -0.1934  0.0031  0.2342
18236W        W34310  15.980   2.225  15.366  0.0235 -0.2971  0.0320
18237W        W34311  11.669   1.415   2.404  0.0094  0.0730  0.1023
18238W        W34312   5.443  11.120  12.137 -0.0567  0.1909 -0.2333
18239W        W34313  18.161   7.389  13.017  0.2873  0.2607 -0.0761
18240W        W34314   1.473   0.246  14.287  0.1648 -0.2040  0.0229
18241W        W34315   2.244   3.073  13.462 -0.1579  0.1587 -0.0766
18242W        W34316  16.011  10.077   4.401  0.0608 -0.3562 -0.1404
18243W        W34317  13.831   1.468   0.089  0.1375  0.2292 -0.0230
18244W        W34318   4.846  17.073   0.781 -0.2405  0.2253 -0.0383
18245W        W34319   1.442   1.788   6.400 -0.3905  0.1102 -0.0132
18246W        W34320   4.047   0.053   2.860  0.0497  0.1437 -0.0946
18247W        W34321  14.911   5.729   3.048 -0.1006 -0.0094 -0.1379
18248W        W34322   3.340  15.004  14.680  0.1499  0.0799  0.1604
18249W        W34323   7.338   6.441   1.852  0.1241 -0.1516  0.0865
18250W        W34324  13.851  14.651   3.616 -0.2119 -0.4114 -0.2427
18251W        W34325   5.478   0.122   3.205 -0.1377 -0.0846  0.3161
18252W        W34326  11.537   6.341   6.003 -0.0478 -0.1841 -0.0209
18253W        W34327  13.510  17.088  13.707 -0.2783  0.0086 -0.0516
18254W        W34328   1.410   4.190   0.424 -0.0432  0.1021 -0.2601
18255W        W34329  17.490   3.715  11.493  0.0367  0.1188  0.1462
18256W        W34330   0.870  15.068   5.881  0.2358  0.1877 -0.1350
18257W        W34331   0.769  15.386  15.465 -0.0308 -0.1898  0.0396
18258W        W34332   5.081  14.904   2.201 -0.1672  0.1296 -0.2987
18259W        W34333   7.415  16.171   2.085 -0.3060  0.0737 -0.1073
18260W        W34334   3.665   0.422  11.693 -0.0159 -0.2214 -0.1194
18261W        W34335  15.494  15.077   2.525 -0.0614 -0.1313  0.2006
18262W        W34336   8.119   8.608   0.070 -0.1222 -0.1762  0.4357
18263W        W34337  11.604  14.962   4.012  0.2883 -0.3382  0.0853
18264W        W34338   6.472  16.928   2.274  0.0336  0.0407 -0.2813
18265W        W34339   7.488   2.238  12.755 -0.2916  0.2129 -0.1877
18266W        W34340   8.911   6.767   1.084 -0.1719 -0.1115 -0.2969
18267W        W34341  17.858   3.996   6.127  0.1671  0.3063 -0.0605
18268W        W34342   1.967   1.261   5.564 -0.2461 -0.1397  0.2486
18269W        W34343   4.706  14.427  10.741 -0.4006  0.4653  0.4566
18270W        W34344  10.947  18.001   4.474  0.1197 -0.1331 -0.1067
18271W        W34345  13.737  10.335   4.887 -0.0868 -0.0616 -0.2418
18272W        W34346  16.194  15.178  12.969 -0.1140  0.0318  0.1250
18273W        W34347  17.102   9.100   5.603  0.1376  0.0054 -0.0363
18274W        W34348   2.930  13.203  10.630 -0.0149 -0.2757 -0.3626
18275W        W34349   0.404  13.145   0.344  0.2199  0.3903 -0.0998
18276W        W34350   9.377   4.706  16.060 -0.1930 -0.0012 -0.0417
18277W        W34351   8.999  10.781   3.803 -0.0501  0.0833 -0.3423
18278W        W34352  15.759   3.258   5.553  0.3079  0.1545 -0.1893
18279W        W34353   2.994  12.735   3.228  0.1689 -0.1112  0.1877
18280W        W34354   0.558  15.468  10.759  0.0560 -0.1934  0.0611
18281W        W34355  15.569   4.454  14.728 -0.2473 -0.2051 -0.0217
18282W        W34356  16.649   8.710   0.482 -0.1023  0.0548 -0.1733
18283W        W34357  15.131  10.780   4.830 -0.0542  0.1181 -0.0826
18284W        W34358   6.086   3.744   2.481 -0.1782  0.2237 -0.0473
18285W        W34359  11.094  12.516  14.152  0.1912 -0.1523  0.3236
18286W        W34360   9.062   3.465  12.081 -0.0208  0.3621  0.0027
18287W        W34361  15.747   7.339   4.704 -0.3309 -0.0371  0.0769
18288W        W34362   0.402   8.656  15.294  0.1394  0.2927 -0.1441
18289W        W34363   4.826  17.254  14.399  0.2633 -0.3133 -0.0512
18290W        W34364  15.114   1.698   5.186 -0.0233  0.0757 -0.0927
18291W        W34365   9.618  13.585  14.298 -0.1792  0.2588  0.1258
18292W        W34366  14.429  11.892  15.650 -0.2546  0.0962  0.0044
18293W        W34367   3.130   5.945   4.154 -0.1091  0.2040  0.1243
18294W        W34368  17.998   0.817  11.562  0.0369 -0.2432 -0.0495
18295W        W34369  10.773  18.060   3.552 -0.0854  0.1979 -0.2255
18296W        W34370  12.719   5.623  14.266  0.1737  0.1056 -0.3057
18297W        W34371  12.056  15.227   2.909  0.0130  0.0215 -0.0181
18298W        W34372   8.244   2.810   2.352 -0.0041  0.3185  0.4655
18299W        W34373  13.039   5.685   5.036  0.0330 -0.1341  0.0739
18300W        W34374   0.738  10.359  12.839 -0.0289  0.0663 -0.2281
18301W        W34375  13.668   2.103   2.411  0.3265  0.0876  0.1014
18302W        W34376  15.553   5.623  15.188 -0.0122  0.2286  0.3264
18303W        W34377  11.420   7.753   3.076  0.0032  0.0281  0.2077
18304W        W34378   3.320  12.518  11.691  0.0279 -0.0814  0.0211
18305W        W34379   7.459   4.241  11.520  0.0678 -0.2382 -0.2480
18306W        W34380   8.741   2.163   5.381  0.4188  0.0836 -0.1536
18307W        W34381  14.010  10.681   4.179  0.0281  0.3874 -0.0143
18308W        W34382   5.214  14.890   3.250 -0.1233  0.0972  0.2801
18309W        W34383   2.948  12.654  15.877 -0.0236 -0.1528  0.4044
18310W        W34384  15.659  13.396   1.755 -0.2946 -0.0912  0.1594
18311W        W34385  16.329   1.890   1.683  0.1785 -0.1829  0.2903
18312W        W34386   8.573  14.585   2.969  0.0717  0.4105  0.2767
18313W        W34387   7.986  18.173  13.687 -0.3156 -0.4071 -0.2689
18314W        W34388   4.437   9.684   2.487  0.0010 -0.3931 -0.4618
18315W        W34389  16.501   6.962  12.673  0.2375 -0.2136  0.0441
18316W        W34390   6.890  12.774   0.731  0.0706  0.4012  0.1103
18317W        W34391   0.848   7.954  11.397  0.2807  0.1428  0.1097
18318W        W34392   6.322   4.574   1.262 -0.1047  0.0305 -0.1785
18319W        W34393   7.720   1.430  13.741 -0.0179  0.0017  0.0784
18320W        W34394  17.971  16.067  13.920 -0.1091 -0.2529 -0.1657
18321W        W34395   5.210   8.895   5.383 -0.0745 -0.2004  0.0566
18322W        W34396  13.093   1.306   4.643  0.3149 -0.0675  0.0811
18323W        W34397  10.307   3.333  16.208 -0.1629 -0.0502  0.1556
18324W        W34398   4.272   0.116   0.456 -0.2539 -0.0645  0.1180
18325W        W34399   0.829   0.456   4.846  0.2766  0.0435 -0.0429
18326W        W34400   7.984   7.108  15.221 -0.0826  0.1006  0.0600
18327W        W34401   1.255  16.566  12.023  0.2063  0.1527  0.0631
18328W        W34402   3.823   0.957   1.585  0.0977  0.2502  0.0693
18329W        W34403   9.787   1.689  11.776 -0.2090 -0.0450 -0.2064
18330W        W34404   8.332   1.396  13.642  0.2650 -0.1089  0.2619
18331W        W34405  16.299   5.274   3.883  0.1278  0.0337  0.1798
18332W        W34406   8.865   6.276   2.681 -0.4813 -0.2659  0.0309
18333W        W34407   4.318   0.646   1.077  0.2063  0.1535  0.0389
18334W        W34408  17.173   1.318   5.524  0.0585 -0.2905  0.1783
18335W        W34409   2.105   7.193  13.496  0.1750 -0.1416  0.0917
18336W        W34410   8.549   6.917  12.284  0.3709 -0.2651 -0.3751
18337W        W34411   1.025   0.431   2.898  0.0381  0.0682  0.0246
18338W        W34412  16.261  10.618   0.733  0.1073 -0.3127 -0.2302
18339W        W34413   5.951   9.874  13.231  0.0524  0.0244  0.2672
18340W        W34414   2.374   2.113   2.083 -0.2549  0.2826  0.0316
18341W        W34415   4.858   7.116   3.319 -0.3090 -0.2067 -0.1173
18342W        W34416  17.119  16.964  12.412 -0.1261  0.0932  0.0998
18343W        W34417  16.693   4.016  12.462  0.1843 -0.3357  0.2142
18344W        W34418  14.879  12.058  15.166  0.3948  0.1201  0.0134
18345W        W34419   5.842   6.980   3.080 -0.0672 -0.1288 -0.2453
18346W        W34420   6.327   7.350   1.293  0.2934  0.0361  0.0931
18347W        W34421  12.670  12.101   3.749  0.0688  0.0473  0.4885
18348W        W34422  14.392  14.389  15.750  0.1726 -0.0888  0.1872
18349W        W34423  14.163   6.586   3.816 -0.0377 -0.0605  0.4428
18350W        W34424  14.552  15.760  13.542 -0.0154 -0.1090  0.0773
18351W        W34425  13.849  12.433  14.128  0.2453 -0.0134  0.2616
18352W        W34426   9.027   6.906   4.135 -0.1117  0.0076  0.0182
18353W        W34427  16.972  11.036   5.483 -0.1354  0.3760  0.0710
18354W        W34428  17.024   6.267   3.563 -0.4557 -0.3842 -0.1552
18355W        W34429  13.087   0.992   2.044 -0.0758  0.0227  0.0394
18356W        W34430   0.737   5.846   5.667 -0.2003 -0.3186 -0.2167
18357W        W34431  10.808   9.121  14.932  0.3676  0.0102 -0.2185
18358W        W34432   6.943   2.600   2.827 -0.3445  0.1515 -0.2647
18359W        W34433   0.391  13.144   4.616 -0.0230  0.1425  0.0185
18360W        W34434  11.151   6.817  12.418  0.1578 -0.1380 -0.0533
18361W        W34435   7.652  17.582  14.597 -0.3296  0.3155 -0.0832
18362W        W34436  18.114   3.154   5.079 -0.2614 -0.1079 -0.1331
18363W        W34437  17.692  15.795  12.389  0.2036  0.0721 -0.2540
18364W        W34438  11.777   1.983   1.574  0.4847 -0.2527 -0.0941
18365W        W34439   2.357  18.250  15.798 -0.0174  0.0524  0.0326
18366W        W34440  13.458   2.624  13.339  0.1562  0.1225 -0.0071
18367W        W34441   3.672  16.706   1.067 -0.2762 -0.2934  0.0696
18368W        W34442  16.673   4.680   1.608  0.1377 -0.1303 -0.1648
18369W        W34443   0.824   8.244   1.263  0.1775  0.4306  0.0407
18370W        W34444   2.482   2.495  12.214  0.1097  0.1438 -0.2532
18371W        W34445   9.151   1.480  13.416  0.1245 -0.2409 -0.2065
18372W        W34446  17.789  11.167   1.130 -0.0138  0.2323  0.0438
18373W        W34447   2.596  15.875   1.298 -0.0924 -0.0357 -0.0052
18374W        W34448   1.991   5.426  14.274 -0.0937  0.1221 -0.0512
18375W        W34449  11.160  16.742  14.520 -0.0228  0.0135 -0.1003
18376W        W34450  16.713   9.512  13.264  0.0946 -0.1320 -0.0689
18377W        W34451  12.615   8.564  16.162 -0.2478 -0.0350  0.0128
18378W        W34452  17.916   2.205   2.823  0.1458  0.0634  0.2688
18379W        W34453  10.416  11.221  16.127  0.2171  0.0099 -0.0104
18380W        W34454   8.816  15.542   5.046  0.0863  0.1862 -0.2296
18381W        W34455   8.949  17.471   0.815  0.0044 -0.0109  0.2406
18382W        W34456   5.481   9.924   4.567 -0.0764 -0.2296 -0.1434
18383W        W34457  10.053   5.834  11.855  0.3670  0.0521  0.0785
18384W        W34458   1.966  15.993   1.165  0.0338  0.1971 -0.0669
18385W        W34459  14.151  16.970  11.855  0.0771 -0.0388 -0.1096
18386W        W34460   9.016   7.078  12.249 -0.2355  0.2415  0.0898
18387W        W34461   7.463  12.656   5.186  0.1322 -0.3783  0.4562
18388W        W34462   9.583  11.436   0.650 -0.0865  0.1606 -0.0600
18389W        W34463   6.611   7.720  15.970 -0.1079  0.0983  0.0635
18390W        W34464   5.616  13.122   5.039  0.1295  0.0573  0.0913
18391W        W34465   8.579  14.384  13.688 -0.2113 -0.1682 -0.2575
18392W        W34466  14.758  12.737  13.889 -0.1004 -0.0180  0.5205
18393W        W34467   5.472  14.999  15.279  0.0089 -0.2008 -0.2697
18394W        W34468   8.749  14.712   3.578 -0.1840 -0.1603  0.1897
18395W        W34469   7.199   3.793   4.646 -0.3577  0.0391  0.3493
18396W        W34470  17.475   2.872   4.897  0.0990  0.2922 -0.4321
18397W        W34471   2.387  12.385   2.338 -0.0237  0.1095  0.3364
18398W        W34472  12.541  16.294  12.955 -0.0290  0.1285  0.1058
18399W        W34473   8.102  16.506   5.033 -0.1266 -0.0656 -0.1614
18400W        W34474  15.269  12.816   1.063  0.2336  0.0699 -0.0002
18401W        W34475  12.595   9.091   4.466  0.2244  0.2399 -0.0258
18402W        W34476  12.062   9.297  13.672 -0.2923  0.2775  0.1090
18403W        W34477   8.676   2.863   0.301  0.2160 -0.2112 -0.2940
18404W        W34478   7.559  10.255   4.846 -0.0236  0.1127 -0.2167
18405W        W34479   9.994   8.710   3.644  0.0097 -0.4049  0.2138
18406W        W34480   0.552   5.203   4.082 -0.0292 -0.2792 -0.0373
18407W        W34481  13.255  11.892   0.704 -0.1262  0.3437 -0.3245
18408W        W34482  15.052  16.004  13.596  0.0017  0.1245  0.4537
18409W        W34483   8.101  12.394  14.750  0.0554  0.0743 -0.0235
18410W        W34484   5.621  11.942  16.179  0.1070 -0.1294  0.0595
18411W        W34485   7.188  12.810  13.498  0.4599  0.0284 -0.0089
18412W        W34486   4.723  14.211  15.948  0.3564 -0.1520  0.3551
18413W        W34487   4.599   4.025  14.334  0.0646 -0.1841  0.0876
18414W        W34488  15.518   3.791   5.692  0.0509  0.0669  0.0574
18415W        W34489   5.335   6.676  10.131  0.1062  0.0580  0.4810
18416W        W34490  11.822   9.103  16.312  0.1266 -0.0073 -0.4835
18417W        W34491  15.603   5.040   2.357  0.0642  0.1431  0.1899
18418W        W34492   6.192   2.555   2.364 -0.0015  0.1201  0.0554
18419W        W34493  16.829  17.525  12.537 -0.1764 -0.2412  0.2495
18420W        W34494  10.729  12.107  16.464 -0.1752  0.1662  0.0696
18421W        W34495  17.895  14.150   1.847 -0.2205  0.0604  0.1946
18422W        W34496   1.985  11.456   0.674 -0.1500  0.1416 -0.1478
18423W        W34497   9.242   1.047   4.716  0.0778  0.0825 -0.4411
18424W        W34498   0.886   2.651   5.546  0.2744 -0.0244 -0.1847
18425W        W34499  14.939   6.085   0.841 -0.0273  0.0641 -0.3109
18426W        W34500  16.789   6.116   1.898 -0.0357  0.1416  0.1153
18427W        W34501  13.676   8.287   2.204  0.2574  0.0791  0.2677
18428W        W34502   6.450   3.702  12.729  0.0022  0.2764  0.2440
18429W        W34503  12.250   9.529   4.597  0.0413  0.1880 -0.1061
18430W        W34504   3.260  15.366  14.143 -0.2235 -0.0220  0.0872
18431W        W34505   0.500   7.573   3.487  0.0971 -0.0703 -0.2870
18432W        W34506   2.749   0.578  11.329  0.2761 -0.1769 -0.1258
18433W        W34507  14.871   6.582  14.223 -0.2246 -0.0667  0.1005
18434W        W34508  17.485   8.114  11.362  0.3024 -0.1651  0.0549
18435W        W34509   1.870   2.211   2.118 -0.1845  0.0715  0.0314
18436W        W34510   8.168   6.650  15.265 -0.0668 -0.0843  0.0677
18437W        W34511  14.674  13.255  13.644 -0.0933 -0.1230 -0.4090
18438W        W34512   1.738   3.195   4.540 -0.1528  0.2631 -0.0419
18439W        W34513  11.156   0.012   6.568  0.0637  0.0089 -0.1679
18440W        W34514   6.646   4.247   6.257 -0.2643  0.1454 -0.0594
18441W        W34515   5.507   3.499   6.309  0.1583 -0.1849 -0.0380
18442W        W34516   9.701   8.527  13.338  0.2007 -0.0661 -0.3950
18443W        W34517  10.152   5.192  15.139 -0.0099  0.0431  0.1726
18444W        W34518   7.655  18.106   1.936  0.1547 -0.0942 -0.0544
18445W        W34519  12.726  12.135  16.143 -0.2689  0.1215 -0.3099
18446W        W34520   2.630   2.701  13.632 -0.0438  0.0126  0.0288
18447W        W34521   4.451  11.282  11.228  0.2946  0.0472  0.1252
18448W        W34522   4.762   6.796  12.150 -0.1347  0.0376 -0.1893
18449W        W34523   4.833   2.594  12.903  0.1025  0.1166  0.2361
18450W        W34524   9.148   9.278   2.635 -0.0800 -0.0081  0.2664
18451W        W34525  14.259   0.307  14.712 -0.1129  0.0047  0.0943
18452W        W34526  17.469  13.144   0.891 -0.3731  0.1733  0.0184
18453W        W34527   4.999  15.700  16.468  0.0037 -0.2002 -0.2784
18454W        W34528  14.416   6.041   1.864  0.1133 -0.1317  0.1898
18455W        W34529  13.053   4.727   0.029  0.3942  0.0407 -0.1138
18456W        W34530   2.973   5.050   4.053  0.0881 -0.2004 -0.1324
18457W        W34531   6.146   6.044   2.923  0.4281 -0.0266 -0.0449
18458W        W34532  14.140   9.277  14.080 -0.0270 -0.3911  0.2730
18459W        W34533   3.824   0.322   2.406 -0.4045 -0.0917  0.0731
18460W        W34534   6.788   3.373   2.169 -0.3047 -0.0410 -0.2046
18461W        W34535  10.413   8.408   0.786  0.0381  0.3606  0.0153
18462W        W34536  17.283   2.018   0.315  0.1454 -0.2188  0.4095
18463W        W34537  10.123   3.048  15.197 -0.2109  0.1888 -0.2418
18464W        W34538  17.293  10.741  11.098 -0.0945  0.0018  0.2132
18465W        W34539   1.943   7.570  13.812 -0.1926  0.0714  0.0710
18466W        W34540   9.732  15.774  15.310 -0.0113  0.2562 -0.0071
18467W        W34541   2.619   8.359  14.370  0.3783 -0.2479  0.1013
18468W        W34542  12.968   2.794  12.170  0.3172 -0.1021 -0.2571
18469W        W34543   1.817   2.751  12.028  0.0556  0.1704 -0.1745
18470W        W34544   3.879  10.188  16.200  0.0230 -0.4095  0.1250
18471W        W34545  13.593   9.098   2.624  0.1404 -0.2093 -0.1755
18472W        W34546   7.965   7.627  13.975 -0.1893  0.0128 -0.0627
18473W        W34547  12.781   5.492  12.713 -0.2970 -0.0537 -0.0417
18474W        W34548  11.527   9.027   3.768  0.1018 -0.1488  0.3991
18475W        W34549   8.495   5.096   0.285  0.1361  0.3582  0.2697
18476W        W34550   4.172  17.801  12.718 -0.0495 -0.1869  0.2813
18477W        W34551  14.870   8.907  16.457  0.0572  0.0792 -0.0367
18478W        W34552  13.889   6.975   3.736  0.1540 -0.1374  0.0270
18479W        W34553   2.791   4.260   1.501  0.2724  0.1288  0.0803
18480W        W34554  11.559  13.596   5.015  0.0060  0.2243 -0.0167
18481W        W34555   1.283  12.057  16.165  0.1691 -0.1409  0.0744
18482W        W34556  14.297   9.526  15.127 -0.0410 -0.2091 -0.2937
18483W        W34557  15.993   5.945  13.215  0.1283 -0.1583 -0.0081
18484W        W34558  15.449  12.535   3.711  0.0014  0.1577 -0.0260
18485W        W34559  14.017   0.934  13.404  0.0639 -0.1602  0.0537
18486W        W34560   2.967  10.426   3.121  0.1185 -0.0008 -0.1223
18487W        W34561   5.132  18.116   0.988 -0.1493  0.1848 -0.0149
18488W        W34562   5.945   8.394  16.360 -0.0135  0.1028  0.0214
18489W        W34563   1.664  14.791  13.629 -0.0079 -0.1419  0.0138
18490W        W34564  11.787  16.240   5.607 -0.1586  0.0361 -0.0415
18491W        W34565  16.744  18.013  13.424 -0.1584  0.0610 -0.1332
18492W        W34566  11.173   9.889  16.130 -0.1965 -0.1177  0.0537
18493W        W34567   1.571   0.205   2.452  0.0763 -0.0862 -0.0017
18494W        W34568   2.968   3.065   4.089  0.0049  0.2350 -0.0320
18495W        W34569   6.107   5.925   1.287 -0.0138  0.0873  0.0727
18496W        W34570  17.406   0.874   1.059  0.0771 -0.0320  0.1379
18497W        W34571   7.568   6.303   1.226  0.2065  0.0164  0.0660
18498W        W34572   5.904   2.873  13.492 -0.2364  0.0696  0.0880
18499W        W34573   5.811  14.535  12.755  0.1094  0.0154  0.3218
18500W        W34574   4.486  17.886  13.650 -0.0165  0.0678  0.0918
18501W        W34575  10.803   4.637   3.412  0.2041  0.1986 -0.1658
18502W        W34576   4.838  12.135   4.310  0.0873 -0.2976 -0.1960
18503W        W34577   6.838   9.602   0.653  0.4248 -0.1771 -0.0766
18504W        W34578   5.435  15.739  12.954  0.1506 -0.0468 -0.1750
18505W        W34579   1.626   3.970   5.778 -0.3402 -0.1169 -0.2504
18506W        W34580   4.059  15.886  11.545 -0.0900  0.1343  0.0880
18507W        W34581   3.662   2.875   3.187 -0.2866 -0.3876 -0.1930
18508W        W34582  10.570  13.761   2.673  0.1960  0.0959  0.0684
18509W        W34583   3.801  15.226   3.199 -0.1001  0.2515  0.0479
18510W        W34584   6.012  17.121   2.640 -0.3509  0.2076 -0.0341
18511W        W34585  10.779   8.569   1.305  0.1314  0.1289  0.1150
18512W        W34586  14.427   4.566   2.277 -0.2272 -0.0181 -0.0417
18513W        W34587   8.848  13.911  15.834  0.1348  0.0611 -0.4403
18514W        W34588   0.237   4.789   5.457  0.2543 -0.0503  0.0813
18515W        W34589  13.987   1.456  14.360  0.0241 -0.0370 -0.1689
18516W        W34590  14.523   9.954  16.319  0.0802 -0.0487  0.2452
18517W        W34591   1.169   1.141  15.202 -0.2441 -0.3490 -0.1208
18518W        W34592   7.966  18.112  12.235 -0.0838  0.0851 -0.1137
18519W        W34593   6.814   4.734   1.164 -0.0336 -0.1760 -0.2435
18520W        W34594   8.965  14.027  13.656 -0.0657 -0.0383 -0.1953
18521W        W34595   2.693   2.783  15.015  0.3077  0.0212 -0.1408
18522W        W34596   0.669  17.557   5.311 -0.0596 -0.1623  0.1408
18523W        W34597  10.343  11.724  16.003 -0.0810  0.0255 -0.2981
18524W        W34598   9.819  10.804   2.885  0.2100 -0.0456  0.2110
18525W        W34599   7.172  12.737   0.120 -0.0428 -0.4360 -0.0232
18526W        W34600  10.769   6.090  14.196 -0.4523 -0.0399  0.1491
18527W        W34601  15.855   4.471   0.765 -0.0682 -0.1126  0.3029
18528W        W34602   3.465   3.607  13.388 -0.0371 -0.0101  0.3430
18529W        W34603  16.701   4.962   0.363  0.0719 -0.2591 -0.1855
18530W        W34604   7.579   9.694   3.013 -0.1356  0.3883  0.1247
18531W        W34605   7.297   6.284  12.519  0.1305  0.1264  0.1620
18532W        W34606   7.725   2.202   0.068 -0.1889 -0.2768 -0.0051
18533W        W34607   6.049   7.982   4.701  0.3575  0.1279  0.1811
18534W        W34608   3.766   8.499   4.944 -0.0158 -0.4662 -0.1541
18535W        W34609   0.156  11.957   2.592  0.0753 -0.2874 -0.0865
18536W        W34610  12.909  11.820   4.038 -0.3919  0.3231 -0.0598
18537W        W34611   5.156  14.153  12.234 -0.0477 -0.1807  0.0668
18538W        W34612  15.679  13.008   3.996 -0.0597  0.1472 -0.0914
18539W        W34613   3.855   7.336   2.857 -0.3004 -0.2427  0.1414
18540W        W34614   5.142  11.946   2.481  0.0658  0.2364  0.0660
18541W        W34615  15.593  17.273  14.296 -0.0016 -0.2355 -0.2077
18542W        W34616  12.956   4.557   2.332  0.0979 -0.1356  0.0230
18543W        W34617   4.588   0.321  12.282  0.0975  0.2072 -0.1059
18544W        W34618   1.351   7.896   3.929 -0.2964  0.3927  0.3231
18545W        W34619   1.601  10.633  14.374 -0.0070  0.1312  0.4272
18546W        W34620   0.693  11.050   1.922  0.0296  0.2049 -0.0070
18547W        W34621   5.067   2.582   3.197  0.0689  0.0803 -0.0347
18548W        W34622  13.432   8.980  16.123  0.0281 -0.1764 -0.3203
18549W        W34623  11.798   6.818  11.240 -0.1555  0.0043  0.0012
18550W        W34624   5.713  16.819  12.852 -0.1533 -0.1767  0.1083
18551W        W34625   8.172  16.308  13.411 -0.0375 -0.0503 -0.3550
18552W        W34626   3.836   8.128   2.105  0.1252 -0.1618  0.2490
18553W        W34627   1.457   7.820  11.238  0.3210  0.0238 -0.3430
18554W        W34628   5.617   5.225  13.901  0.0033 -0.2608  0.3002
18555W        W34629   3.599   9.188  14.190  0.3284  0.0392 -0.1689
18556W        W34630   6.607   0.817   5.091 -0.1030  0.1700 -0.2740
18557W        W34631  12.551  18.003   0.955  0.7036 -0.3163  0.1152
18558W        W34632   3.211   3.866   5.428  0.3603 -0.0045 -0.0535
18559W        W34633  12.922  12.792   4.531 -0.0103 -0.1463 -0.1671
18560W        W34634  16.089  13.671   4.910  0.0563 -0.1572  0.1322
18561W        W34635   1.649   0.101  15.084  0.0106  0.0390  0.1363
18562W        W34636   1.166   5.166  12.142 -0.1111  0.1756  0.0052
18563W        W34637   1.840  13.386   0.238 -0.3408  0.1169  0.0359
18564W        W34638   4.800  16.143   0.069 -0.0424  0.0501  0.0633
18565W        W34639   0.200   4.510  13.820 -0.0006 -0.1225 -0.0128
18566W        W34640  16.244  15.952   5.747  0.0199  0.1191 -0.1686
18567W        W34641   5.316  12.044  10.448 -0.0592  0.0848  0.2902
18568W        W34642  17.590   1.980   6.585  0.1988 -0.0178 -0.1011
18569W        W34643  16.806   5.412  13.874  0.1440 -0.0103  0.1815
18570W        W34644  10.979  12.532  16.233 -0.1929  0.0036  0.0992
18571W        W34645  17.630  10.231  16.431 -0.0472 -0.0122  0.0419
18572W        W34646   0.939   2.291  15.686  0.3184 -0.1597  0.0356
18573W        W34647   3.125   3.297   1.633  0.0101 -0.3539 -0.2545
18574W        W34648  15.057  18.115   3.505 -0.0135 -0.1059 -0.0892
18575W        W34649   7.068  17.273  13.858  0.3530  0.2398 -0.1831
18576W        W34650  11.355  14.444   2.842 -0.1251  0.1931  0.2653
18577W        W34651  16.091   6.110   3.713 -0.2775 -0.3614  0.1257
18578W        W34652   9.228   8.879   2.875  0.1072 -0.1061 -0.1324
18579W        W34653  15.882   7.894  12.256  0.1604  0.1180 -0.1911
18580W        W34654  17.238  17.571   2.653  0.1424 -0.0798 -0.0518
18581W        W34655  14.360  16.515   3.563 -0.1058  0.1562 -0.0116
18582W        W34656   0.166  16.440   5.079  0.0023  0.3427 -0.1185
18583W        W34657  13.498   1.709   0.919  0.1225  0.1142 -0.2207
18584W        W34658   0.745   6.869   1.438  0.1697 -0.0194  0.1389
18585W        W34659   7.133  10.120   4.571 -0.0779 -0.0970 -0.2952
18586W        W34660   1.596   9.382  15.880  0.2380 -0.0455 -0.1127
18587W        W34661  10.698   2.102  16.069  0.3852 -0.2165 -0.1348
18588W        W34662   6.975   2.926   4.688  0.0055  0.0094  0.2013
18589W        W34663  16.919   7.110  13.805 -0.1556 -0.1120  0.0989
18590W        W34664  10.534   1.896  12.215 -0.1687  0.0246  0.1449
18591W        W34665   7.630  14.577   1.480  0.0332  0.0009  0.2109
18592W        W34666   1.218  13.104   4.178  0.0257 -0.0147  0.1627
18593W        W34667  15.269  11.917  14.799 -0.0454  0.1060  0.0927
18594W        W34668   3.572  11.395   3.540  0.0722 -0.1129  0.0000
18595W        W34669   5.730  14.751  11.912  0.0173 -0.3288  0.0828
18596W        W34670   1.490  12.339   0.472 -0.0819  0.0146 -0.1785
18597W        W34671   8.563  11.033  14.815  0.0007  0.0525 -0.2606
18598W        W34672  14.559   7.655   3.778  0.0243  0.1427  0.0608
18599W        W34673   6.383  17.331  13.780  0.0388 -0.3049  0.2339
18600W        W34674  13.277  15.349   0.921 -0.0254 -0.2556 -0.1705
18601W        W34675  10.095   8.387  10.288 -0.1265 -0.0011  0.2175
18602W        W34676  11.854  10.429  13.552 -0.2209  0.4350 -0.1063
18603W        W34677   6.339  11.984  12.586  0.1643 -0.1746  0.3521
18604W        W34678   1.887   5.096   0.583  0.1725 -0.2193 -0.2416
18605W        W34679   4.248   8.784  11.807  0.0796 -0.1136 -0.1128
18606W        W34680  10.148   4.806   0.182 -0.0174 -0.0766 -0.0690
18607W        W34681   3.532   0.502  14.343 -0.0761 -0.3003  0.3476
18608W        W34682   7.514   0.417  15.052  0.3413  0.0326 -0.2235
18609W        W34683  13.514  16.166   1.507  0.1497 -0.2616  0.2735
18610W        W34684  13.086  11.918   2.968 -0.1452 -0.2213  0.2558
18611W        W34685  12.953   5.480  12.259 -0.0250  0.0514 -0.0611
18612W        W34686  13.392  16.628  14.009 -0.1622  0.3890  0.1329
18613W        W34687  12.707  17.359   3.266 -0.0603  0.0118  0.2033
18614W        W34688   0.671   0.442  16.007 -0.2757  0.0042 -0.3869
18615W        W34689   9.450  15.964   5.462  0.0024 -0.2991 -0.0581
18616W        W34690   6.558   2.701   0.913  0.0129  0.1882 -0.3300
18617W        W34691  17.998  17.130  13.621 -0.2003 -0.3561 -0.2056
18618W        W34692   5.097   1.986   1.962  0.1133 -0.0338 -0.0253
18619W        W34693   7.925   5.443  13.423 -0.0191  0.1943 -0.3397
18620W        W34694   9.297  11.340   1.097 -0.1507  0.0485 -0.1174
18621W        W34695   7.272  17.154   4.040 -0.2602  0.1187 -0.1949
18622W        W34696   8.323  12.148   5.916 -0.0189 -0.1357  0.0451
18623W        W34697   3.413  17.896   3.097  0.1707 -0.0096 -0.3009
18624W        W34698   3.730   6.309   1.046  0.2321 -0.1147  0.1781
18625W        W34699   3.259  16.010   2.614 -0.0304  0.0462 -0.1789
18626W        W34700  17.715   8.985  12.315  0.2607  0.4608  0.0472
18627W        W34701  17.324  17.545  12.666 -0.1181 -0.1194 -0.1843
18628W        W34702   7.945  17.472   2.959  0.1465 -0.1324  0.0117
18629W        W34703   7.992  16.372   1.253  0.2743 -0.4061 -0.0711
18630W        W34704   3.057   1.911   0.659  0.1564 -0.0123 -0.0833
18631W        W34705  11.926   5.239  16.473 -0.0543  0.2821  0.3228
18632W        W34706   5.704   8.205   5.872  0.2798  0.0456  0.1445
18633W        W34707   0.480   4.750  13.337  0.1094 -0.1937  0.0347
18634W        W34708   8.430  13.845   0.819  0.2045 -0.1094 -0.0743
18635W        W34709   2.068   6.606   1.337 -0.1909 -0.0262 -0.5969
18636W        W34710  14.711   9.392   1.275 -0.1372  0.0905  0.2113
18637W        W34711  10.137   5.027   0.710  0.0132  0.0684 -0.2287
18638W        W34712  12.051   4.027   4.978  0.2725  0.0540 -0.4004
18639W        W34713   9.660   7.640  14.545 -0.0514 -0.1063  0.1669
18640W        W34714  12.659   6.733  12.490  0.3129  0.1820  0.0252
18641W        W34715  16.677   1.955   4.498  0.0025 -0.1536  0.2406
18642W        W34716   8.607   4.331   3.733  0.1182 -0.0825 -0.0784
18643W        W34717   6.459   2.658   3.751  0.3460 -0.3901 -0.4039
18644W        W34718   6.177  10.065  15.306  0.1419 -0.1229  0.1053
18645W        W34719  11.025  12.260   1.537 -0.1118  0.0809  0.0605
18646W        W34720   0.733   1.271   2.394 -0.0630  0.0832 -0.0121
18647W        W34721  10.514  11.610   3.700  0.0083  0.3247  0.2066
18648W        W34722  16.491  16.543   0.568  0.1689  0.0793  0.2003
18649W        W34723   8.100  10.149   3.507 -0.1571  0.0760 -0.2252
18650W        W34724   0.957  16.688  12.433 -0.2449  0.2289  0.0205
18651W        W34725  16.535   9.572   1.634  0.1146 -0.0517  0.1520
18652W        W34726  10.491  10.584  16.017 -0.1549  0.0124  0.4077
18653W        W34727  16.257  15.443  14.234 -0.0765 -0.3429 -0.2463
18654W        W34728   6.479  15.152  13.050  0.0326  0.1942 -0.0581
18655W        W34729   6.816   3.892  14.899  0.0383  0.1195 -0.0627
18656W        W34730  11.404   9.381  11.905 -0.1619  0.0060  0.0216
18657W        W34731  10.471  17.787   4.509 -0.0045  0.1846 -0.1572
18658W        W34732  16.592   0.658   5.764  0.0378  0.1997 -0.0234
18659W        W34733   5.403   7.861   1.592 -0.2054 -0.0734  0.2478
18660W        W34734  14.936  17.736   3.805 -0.1100 -0.0067  0.1321
18661W        W34735  13.791   8.332  14.774 -0.1609  0.3751 -0.5214
18662W        W34736  12.533   2.375  11.324  0.0599 -0.3088 -0.2035
18663W        W34737  10.667   8.030  12.654  0.1760  0.2277 -0.1255
18664W        W34738  16.305  16.056  15.502 -0.1344  0.0238  0.3154
18665W        W34739  12.477   8.775   5.227 -0.1589  0.1081 -0.1921
18666W        W34740   7.974   8.379  15.255  0.3548 -0.0778  0.0797
18667W        W34741   4.737   9.222   1.911  0.0765  0.1554  0.3006
18668W        W34742  17.414  16.584  11.571  0.1105 -0.2232  0.1701
18669W        W34743   4.115   4.110  13.523  0.0649 -0.0178 -0.1260
18670W        W34744   7.820   5.176  15.319  0.0482  0.1265 -0.1371
18671W        W34745   5.445  13.294  11.737 -0.0409  0.1062  0.2718
18672W        W34746   2.023  15.265   3.777 -0.2713  0.1189  0.1330
18673W        W34747  17.172  11.629   0.303 -0.2952 -0.4924  0.0802
18674W        W34748   1.526  14.491   0.724  0.2854 -0.3934  0.2207
18675W        W34749  16.073  13.173   4.839  0.1975  0.2578 -0.1842
18676W        W34750  11.899   3.216  16.404 -0.0608  0.0364 -0.0653
18677W        W34751  11.530  15.760   1.792 -0.1857  0.0004  0.0882
18678W        W34752   2.897   1.413   3.737 -0.1408  0.2354 -0.0756
18679W        W34753   1.783  13.916   4.871  0.1088  0.0988 -0.3707
18680W        W34754   3.252   5.917   1.213 -0.0217  0.2591  0.0479
18681W        W34755  16.338   3.649  12.701  0.1219  0.0697  0.3248
18682W        W34756  15.864  10.594   3.641 -0.4298  0.1596  0.0884
18683W        W34757  15.608  13.764   5.062  0.2781  0.1667  0.2608
18684W        W34758  17.271  16.176   0.070 -0.1624  0.1227  0.2753
18685W        W34759   2.313  14.086   0.802  0.2312 -0.2248 -0.1225
18686W        W34760  11.635  18.016  12.629  0.0655 -0.1111  0.2502
18687W        W34761   2.190   7.713  16.063 -0.0639 -0.1597  0.2923
18688W        W34762  12.574   2.439   1.480  0.1622  0.1578 -0.1609
18689W        W34763   3.363   1.829   1.983 -0.2016  0.3537  0.0160
18690W        W34764  14.304  14.899  13.271  0.0507  0.0875  0.2142
18691W        W34765  11.066  15.764   0.331 -0.0783 -0.0860  0.1333
18692W        W34766   2.188   3.545   2.289 -0.2950  0.3330  0.1374
18693W        W34767   0.727  11.281  12.775 -0.0104  0.2925 -0.2453
18694W        W34768  16.542  11.617  12.379  0.0429  0.1557  0.0611
18695W        W34769   3.201   6.184  15.939 -0.0670  0.3821  0.0976
18696W        W34770   4.005   2.984   2.588  0.0231 -0.0923  0.1617
18697W        W34771  16.504   6.499  12.196  0.4162  0.0708  0.0186
18698W        W34772   3.794   5.715  13.018  0.1271 -0.1925 -0.0868
18699W        W34773   2.404  12.750  12.928  0.3160  0.0103 -0.0324
18700W        W34774  13.778  17.386  14.104 -0.0198 -0.1616  0.0965
18701W        W34775  18.036  15.317   3.198 -0.0251  0.3532 -0.1872
18702W        W34776  14.239   9.557   1.264  0.1388 -0.1601 -0.2221
18703W        W34777  14.115  16.892   2.645 -0.0466 -0.1234  0.0529
18704W        W34778  15.291   3.591   3.833  0.2774  0.0228  0.1250
18705W        W34779  16.025   5.413  12.755 -0.0174 -0.0515 -0.0450
18706W        W34780   1.359   4.818   1.385 -0.2008 -0.3216  0.2298
18707W        W34781   5.328  12.890  14.627  0.0748  0.0613 -0.0168
18708W        W34782  18.147  10.673  13.297  0.0347  0.0166 -0.0518
18709W        W34783   7.654  15.170  16.370 -0.0136  0.0405  0.1823
18710W        W34784  15.348   4.178   1.326 -0.2661 -0.0554 -0.1303
18711W        W34785  13.173   2.790   2.635 -0.0132  0.1168 -0.1034
18712W        W34786  16.462   4.868   5.021 -0.2018 -0.0184 -0.1076
18713W        W34787   4.558  12.607  14.241 -0.0649  0.1357  0.1158
18714W        W34788   7.992   0.444   0.749  0.1943 -0.1836 -0.3537
18715W        W34789   4.470   1.915   4.440  0.5596 -0.2204 -0.1881
18716W        W34790  15.251  17.087   0.971 -0.0740  0.0161 -0.2083
18717W        W34791   8.294  15.842  12.786  0.1124  0.0401 -0.2301
18718W        W34792   2.886  17.680  13.841  0.4519 -0.1427 -0.4182
18719W        W34793   1.238   6.559   3.976 -0.0752  0.0910  0.2177
18720W        W34794  15.120  12.703  11.972  0.0540  0.0401 -0.1720
18721W        W34795   6.434  10.539   0.013  0.1793 -0.1665 -0.0361
18722W        W34796   2.249  14.434   6.205 -0.0572  0.1785  0.0671
18723W        W34797   8.145   1.749  14.918 -0.0548  0.2998 -0.1294
18724W        W34798   1.189   1.540   0.485 -0.2548  0.0631  0.4472
18725W        W34799  14.491   7.340   1.411 -0.0972 -0.0517  0.2060
18726W        W34800   6.556   8.288  16.001  0.0901 -0.0586  0.0054
18727W        W34801  10.884   8.674   0.015  0.0098  0.0294  0.2444
18728W        W34802   3.122   8.787  15.860  0.0131  0.0844 -0.0093
18729W        W34803   4.245  13.797   4.448  0.3199 -0.0641  0.3143
18730W        W34804   3.233   9.945   1.223  0.0893  0.0585 -0.0846
18731W        W34805   2.084  17.429  15.477  0.2506  0.1110  0.0599
18732W        W34806   1.348  10.814   3.979  0.0897 -0.0361 -0.0280
18733W        W34807  16.982   7.267   1.340  0.1648 -0.2320  0.1023
18734W        W34808  15.136   0.161  13.981 -0.2461 -0.0103 -0.3754
18735W        W34809  10.348   6.385  13.033  0.0055 -0.1763  0.1804
18736W        W34810  11.774   7.869   3.677  0.1577  0.1281 -0.0718
18737W        W34811  13.230   4.134   3.968 -0.0486  0.2146 -0.1300
18738W        W34812   4.542   9.568  14.402 -0.2397 -0.2243 -0.2833
18739W        W34813   8.941  16.678  13.029  0.0578 -0.2308  0.0554
18740W        W34814   9.523   6.130  15.304 -0.0935 -0.1245  0.3088
18741W        W34815  13.569   4.013  13.888  0.1412  0.1023  0.1530
18742W        W34816   7.520  15.673   2.199 -0.0561 -0.1759 -0.2658
18743W        W34817  14.464  12.532   5.230  0.1836  0.0837 -0.0278
18744W        W34818  15.668  11.316  11.796 -0.1197  0.1028  0.3002
18745W        W34819   9.077  15.125   5.676  0.1829  0.0369 -0.2835
18746W        W34820   3.972   9.910  11.092 -0.0875 -0.0960  0.0023
18747W        W34821  15.080   8.132   4.187  0.0216 -0.0103 -0.0488
18748W        W34822  15.131  15.963   4.791  0.0126 -0.0912 -0.0131
18749W        W34823  18.095  14.296   3.288 -0.2447  0.3254 -0.1744
18750W        W34824   1.326  16.803  15.527  0.0327  0.0078 -0.1386
18751W        W34825   8.265   5.658  13.118 -0.2890 -0.0583 -0.2056
18752W        W34826   0.774   7.389  10.772  0.0744  0.2838  0.1551
18753W        W34827  16.240  17.450   3.590  0.2276 -0.1698 -0.0299
18754W        W34828   9.812  10.927   5.159 -0.1611  0.1586 -0.1610
18755W        W34829  16.878  13.764   1.620 -0.2463  0.2655  0.1862
18756W        W34830  17.292  10.385   3.280 -0.4126  0.0771 -0.1468
18757W        W34831   0.673   3.996  15.245  0.0030  0.0811  0.1414
18758W        W34832   3.239   0.354  15.872  0.4439  0.0911 -0.0513
18759W        W34833  17.906  13.309   5.942 -0.2466  0.3191  0.0121
18760W        W34834  13.984   7.735   5.616 -0.0409 -0.2385 -0.1934
18761W        W34835  16.586  10.979   2.018 -0.1586  0.0049 -0.2430
18762W        W34836  12.327  10.334   0.530 -0.0109 -0.1723 -0.0929
18763W        W34837   3.430  18.188   1.118  0.0494 -0.2617  0.0155
18764W        W34838  15.627   3.388   5.090  0.1563  0.1834 -0.0125
18765W        W34839  12.792  15.494  13.715 -0.1964 -0.2354 -0.2668
18766W        W34840   4.664  15.751   2.268  0.2939  0.0278  0.1097
18767W        W34841  13.969   4.369  16.111 -0.1851 -0.1342  0.1530
18768W        W34842  15.492   0.835  15.078 -0.1934  0.1013  0.0004
18769W        W34843  15.646   4.397  12.019  0.3396 -0.5075 -0.0355
18770W        W34844  11.566   9.078  15.292  0.8000  0.1969  0.0817
18771W        W34845   3.999   7.817   2.880 -0.0861  0.4781  0.4403
18772W        W34846   1.097  10.434   4.231  0.0695  0.0273  0.2775
18773W        W34847  16.509  10.622   4.947  0.0941  0.0672 -0.0774
18774W        W34848   4.397  14.317   6.252  0.4737 -0.0007  0.0485
18775W        W34849  14.094  13.594   3.279 -0.1105  0.1158  0.1562
18776W        W34850   1.414   0.962   1.881 -0.1768 -0.1683  0.0664
18777W        W34851   3.142   1.373   1.196  0.1056  0.0123  0.2724
18778W        W34852  12.982  13.046   1.940  0.1708  0.2726 -0.2777
18779W        W34853   0.216   1.328  15.258  0.2860 -0.0023 -0.0699
18780W        W34854   4.404   5.292   4.174 -0.5028  0.2846  0.0457
18781W        W34855  15.963   7.021   5.157 -0.1540  0.0347 -0.3325
18782W        W34856   5.416  15.487   0.883 -0.1220  0.1373  0.3004
18783W        W34857  10.407   1.673   4.506  0.0425  0.0550  0.0619
18784W        W34858   0.513  11.484  13.666 -0.1827  0.2005  0.0003
18785W        W34859   8.110  14.866   0.671  0.2112  0.0191  0.1874
18786W        W34860  12.535  16.973  13.870  0.2408 -0.1380  0.1582
18787W        W34861  14.549  16.499   5.266  0.2010  0.2963  0.0699
18788W        W34862   7.666   5.956  13.406 -0.0205 -0.3577 -0.1916
18789W        W34863   3.189  11.381   3.114  0.1770 -0.1855 -0.0639
18790W        W34864  14.806  14.195  15.570  0.2087 -0.0147  0.2257
18791W        W34865   3.448   8.719   1.469  0.0212 -0.0961  0.0466
18792W        W34866   7.593  14.053   0.693  0.0153 -0.1096  0.2960
18793W        W34867   2.218  12.375  11.013  0.0602 -0.2444 -0.0144
18794W        W34868   3.901   8.955  14.904  0.1432  0.2101 -0.0721
18795W        W34869  11.257   0.971   3.138  0.1121  0.1900  0.2361
18796W        W34870   2.645  18.033   5.220 -0.0635  0.0991 -0.2000
18797W        W34871  15.387  10.115  13.326 -0.0360 -0.6290 -0.1008
18798W        W34872   0.462   3.207   3.281  0.0908 -0.2079 -0.0015
18799W        W34873   4.830  12.671   2.477  0.0334  0.0821 -0.2165
18800W        W34874  17.485   3.829  11.987  0.0828  0.0381 -0.0894
18801W        W34875   4.283   2.122  11.088  0.0247  0.0746  0.0548
18802W        W34876   7.913   1.779  15.513 -0.1101  0.2328  0.2182
18803W        W34877   5.168  15.633   3.523 -0.3269  0.1868  0.0973
18804W        W34878  15.281   3.094  13.089  0.1849 -0.1601 -0.0729
18805W        W34879   9.779   9.995   2.802  0.0760  0.2231  0.1606
18806W        W34880   3.935  12.700   2.336  0.0790 -0.2427 -0.2514
18807W        W34881   6.107   6.783   0.085  0.2465 -0.0185  0.1259
18808W        W34882   4.296  10.940   0.520  0.1614 -0.0428 -0.0394
18809W        W34883   5.117   4.854   3.056  0.0976 -0.0400  0.0272
18810W        W34884  13.064   6.047   1.561 -0.0335 -0.1178 -0.0208
18811W        W34885  10.903  14.523  14.388  0.1571  0.1918  0.1412
18812W        W34886   1.622  14.727   0.246 -0.2406  0.3344  0.0290
18813W        W34887  12.267   1.361   3.619 -0.2520 -0.4978 -0.2886
18814W        W34888  13.307  16.577  11.116  0.3364 -0.1107 -0.1703
18815W        W34889   6.166   4.172   3.089  0.0509  0.1606  0.0631
18816W        W34890  13.524   3.666   6.047  0.0316 -0.3575 -0.0613
18817W        W34891  10.101  13.829  14.411 -0.1737  0.0375  0.1470
18818W        W34892  17.810   0.184   0.074 -0.1826 -0.0410 -0.0114
18819W        W34893   9.489  15.891   3.971  0.1431  0.1268  0.0138
18820W        W34894   4.352   1.425  13.909 -0.0906  0.3922 -0.2231
18821W        W34895  10.000  16.085  14.762  0.1844 -0.3575  0.1026
18822W        W34896  15.155  10.074   4.205 -0.2741 -0.2015 -0.1566
18823W        W34897  13.103  14.254  13.815 -0.0400  0.2499  0.1671
18824W        W34898   4.136  12.310   5.625  0.1301  0.2011 -0.4507
18825W        W34899   4.784   4.603   3.309  0.1398 -0.2276 -0.0213
18826W        W34900   4.938   2.088   3.138 -0.1994  0.3436  0.0064
18827W        W34901   7.879  14.879  14.180  0.6099 -0.1349 -0.0666
18828W        W34902  10.117  15.292  14.430 -0.1090 -0.1821  0.0348
18829W        W34903  14.462  13.654  12.801  0.2346  0.0437 -0.1514
18830W        W34904   6.401   3.233   0.798 -0.2838  0.2043 -0.0686
18831W        W34905  13.160   7.771  16.090 -0.4185  0.0175  0.1387
18832W        W34906  16.357   3.182  13.905  0.2245  0.1721 -0.1951
18833W        W34907   2.720   7.618   0.887  0.0153  0.1597 -0.2105
18834W        W34908   6.434   1.028  15.541  0.6776 -0.0329 -0.3873
18835W        W34909   5.829   9.642   4.737 -0.2109 -0.0377 -0.0155
18836W        W34910  15.733  15.295  14.316 -0.0804  0.2548  0.2439
18837W        W34911  11.308  14.906   4.688  0.6543 -0.0230 -0.0764
18838W        W34912   0.071  15.047   0.043  0.0925 -0.2749  0.3214
18839W        W34913  11.982  12.482   5.376  0.1152 -0.1774  0.0131
18840W        W34914  11.194  11.813  13.615  0.1547  0.0222  0.2713
18841W        W34915  10.650  11.485   1.869 -0.0773  0.0377 -0.1508
18842W        W34916  17.901  15.220  16.214 -0.1951 -0.0062 -0.1978
18843W        W34917   5.790  11.138   4.996 -0.1279  0.1800 -0.2334
18844W        W34918   0.999  13.255   0.394  0.0171  0.1020  0.0614
18845W        W34919   8.887   9.455  13.786 -0.0076 -0.2176  0.0621
18846W        W34920  12.135   0.674   2.964  0.3868  0.0420  0.1025
18847W        W34921  11.662   9.433   1.227 -0.3426  0.1768  0.2023
18848W        W34922   8.445  11.711   5.044 -0.1729 -0.1645 -0.0091
18849W        W34923   3.179   0.839  14.294  0.0601  0.0608  0.0166
18850W        W34924  14.444  16.075   3.778  0.0741  0.3533 -0.0422
18851W        W34925   8.752  14.465   2.509  0.0384  0.0518  0.1311
18852W        W34926  10.356  10.042   2.764 -0.1561 -0.2188  0.2847
18853W        W34927  17.936   3.188  15.088 -0.1920  0.1136  0.1466
18854W        W34928   9.367   3.191   4.291 -0.1107 -0.0553  0.0184
18855W        W34929  10.264   2.735   2.512 -0.3049 -0.1496 -0.0452
18856W        W34930   7.294   7.554   1.355  0.0339  0.1585 -0.2569
18857W        W34931   2.793  17.456  12.037  0.1464  0.0771 -0.1666
18858W        W34932  14.128   1.023   0.238 -0.0030  0.3802  0.1974
18859W        W34933  14.388   1.454   4.734 -0.2081 -0.1160 -0.1300
18860W        W34934  10.299   2.245  12.975 -0.2817  0.1041  0.0713
18861W        W34935   5.681  11.454   5.744  0.0475  0.2637 -0.3945
18862W        W34936   7.623  14.266  16.013  0.0752  0.2009  0.0097
18863W        W34937  10.873   8.696   5.125 -0.0400  0.0661  0.1919
18864W        W34938   5.466  15.850  14.366 -0.0382 -0.1866 -0.0896
18865W        W34939   8.148  12.789   4.230 -0.1170 -0.0777 -0.2153
18866W        W34940  11.656   3.528   1.854 -0.0826  0.0131  0.4182
18867W        W34941   0.266  15.586  14.525  0.0465  0.1940 -0.0646
18868W        W34942   4.132   8.766   4.277  0.3815  0.3266  0.1728
18869W        W34943  10.740  10.935   4.929  0.1969  0.0211 -0.0577
18870W        W34944   7.974  15.367  14.221 -0.2687 -0.3609  0.0197
18871W        W34945  14.327  15.433  16.086 -0.2127 -0.2045  0.1578
18872W        W34946   2.681   3.794   2.479  0.0211  0.0311  0.4261
18873W        W34947  14.345  15.227  12.934  0.1127  0.0502 -0.1797
18874W        W34948   4.028  18.177  14.800  0.2018  0.3070 -0.0613
18875W        W34949  17.744  10.125   4.811  0.2068 -0.1950  0.1871
18876W        W34950  11.537  15.934  15.865  0.0613  0.0490  0.1848
18877W        W34951   7.209   8.789   4.049 -0.0855 -0.2067 -0.1635
18878W        W34952   9.451   6.581  14.057  0.0714 -0.1131 -0.0771
18879W        W34953   2.258   8.325  12.493  0.4541  0.1534 -0.0036
18880W        W34954  17.593   0.888  15.667  0.1954  0.2895  0.2190
18881W        W34955   3.932  16.838  14.293  0.3234 -0.2865 -0.2106
18882W        W34956   3.200  14.256  14.268  0.1004 -0.0979  0.0329
18883W        W34957  17.975  10.618   2.003 -0.1588  0.0369  0.4245
18884W        W34958  12.033  14.099  13.466 -0.0650  0.0245 -0.1654
18885W        W34959  15.113   3.513  16.468 -0.1270  0.0002 -0.4821
18886W        W34960   8.377  17.547  15.627  0.4519  0.1926 -0.0395
18887W        W34961   6.082  10.858   4.594 -0.0424 -0.3919 -0.0993
18888W        W34962   0.512  14.050  13.221 -0.0555 -0.0483 -0.4716
18889W        W34963   7.831  16.606   5.518 -0.0013 -0.1527  0.0249
18890W        W34964   5.999   3.128  14.704 -0.0355  0.1942 -0.4144
18891W        W34965   1.923  12.600  15.686  0.0054 -0.0366 -0.0730
18892W        W34966  13.638  18.144   3.657 -0.2112 -0.0262 -0.0622
18893W        W34967   6.296  17.764  14.881 -0.2075  0.1001  0.0457
18894W        W34968   1.094   6.663   4.486 -0.1231 -0.3455 -0.3700
18895W        W34969   8.375   3.283   0.409 -0.1949  0.2974  0.0644
18896W        W34970   3.348   4.109   4.376 -0.3090 -0.0468  0.2086
18897W        W34971  15.401  15.230  15.106  0.0241 -0.1806 -0.1890
18898W        W34972  17.302  18.170   3.990 -0.1622 -0.1117 -0.2247
18899W        W34973  13.691  11.220   2.383 -0.2329  0.0694 -0.1842
18900W        W34974  15.545   1.550   0.235 -0.2759  0.0043 -0.0907
18901W        W34975   7.247  13.592   1.369  0.0352 -0.0357 -0.0904
18902W        W34976   3.104   5.045   0.723 -0.1500 -0.1093 -0.0357
18903W        W34977   4.719  13.828   3.704 -0.1543 -0.0024 -0.1766
18904W        W34978   1.233   5.937   1.048  0.0267  0.4629  0.0627
18905W        W34979   2.699   8.333  11.065 -0.1110  0.3182 -0.2318
18906W        W34980  16.741  16.015  12.185  0.1340  0.0418 -0.0676
18907W        W34981   7.007   8.749   0.950 -0.1652 -0.0378  0.0520
18908W        W34982   8.425   7.405  11.262 -0.1058 -0.1945 -0.1718
18909W        W34983   1.347   5.549   0.683 -0.0940  0.0087 -0.2831
18910W        W34984   5.769   1.331   1.704 -0.1467 -0.2613  0.0894
18911W        W34985   9.361   0.450  12.436 -0.1906 -0.0243 -0.1638
18912W        W34986   8.322   7.557   5.431 -0.1789  0.3220 -0.1459
18913W        W34987   4.768   1.474  16.292  0.1870 -0.0867  0.1208
18914W        W34988   3.265   3.742  14.602  0.2324 -0.0098  0.0382
18915W        W34989   7.951   8.054   0.787  0.0101  0.1510  0.1217
18916W        W34990   5.852   0.222   2.021 -0.5003  0.0919  0.1187
18917W        W34991  14.028  15.904   0.316  0.0369  0.2001  0.1776
18918W        W34992  10.336  14.732   3.029  0.3459  0.0486  0.0730
18919W        W34993  14.826   1.682   1.206  0.0828  0.0018 -0.0351
18920W        W34994   0.707  13.041   1.657 -0.1476 -0.1549  0.0554
18921W        W34995   6.992   0.856  14.071  0.2410 -0.1070  0.2217
18922W        W34996  13.203  11.322   2.355  0.0666  0.2202  0.0563
18923W        W34997   2.705   0.433   4.197  0.0037  0.4460 -0.2255
18924W        W34998   6.832  12.710  14.637 -0.0624  0.0206  0.0327
18925W        W34999   0.717  12.925  12.205 -0.0486  0.5745  0.0232
18926W        W35000   2.929  12.427   4.496 -0.2199  0.2621 -0.3108
18927W        W35001  15.945  11.338  12.239  0.2486  0.0407  0.1157
18928W        W35002   3.206   6.559  11.733  0.0463 -0.2417  0.0144
18929W        W35003   4.481   2.754   1.676  0.4384  0.2161 -0.2270
18930W        W35004   6.688  12.982  11.413 -0.2204  0.2456  0.0722
18931W        W35005   4.015   1.856  14.680 -0.1527 -0.3673  0.1742
18932W        W35006   7.035  15.791  15.065  0.1406  0.1153 -0.0889
18933W        W35007  17.938  13.070  13.965 -0.0016  0.3006 -0.0766
18934W        W35008  10.867   0.377  13.304  0.0681 -0.0816  0.1516
18935W        W35009  17.265  10.098   2.041  0.1889  0.0833 -0.0607
18936W        W35010   1.842   2.055  13.994  0.0468 -0.0981  0.1426
18937W        W35011   1.996  12.760  14.271 -0.1242  0.0846 -0.1063
18938W        W35012   6.866   9.933   2.071  0.1600  0.3082 -0.0307
18939W        W35013  15.025  16.914   0.502  0.0318 -0.0503  0.0683
18940W        W35014  17.314  12.153   1.881 -0.1982  0.1825 -0.2907
18941W        W35015  13.422  10.980   0.133  0.0925 -0.1775  0.0938
18942W        W35016  16.564   3.076   1.201  0.4374  0.1008  0.2127
18943W        W35017   6.573  14.117  12.650  0.1458  0.0366 -0.0207
18944W        W35018   8.826   2.838   2.226  0.0904 -0.4954  0.0322
18945W        W35019  14.533  15.841   1.130 -0.1618  0.1033 -0.0377
18946W        W35020  12.038  13.222  12.265 -0.0380  0.1166 -0.1608
18947W        W35021   0.223  15.659   2.435  0.1068 -0.2536 -0.2470
18948W        W35022  15.579  12.250  16.100 -0.0499  0.3580 -0.2285
18949W        W35023  13.542  13.529   1.096  0.1447 -0.1104 -0.0488
18950W        W35024   6.336  18.103  13.434 -0.1779  0.0748  0.0374
18951W        W35025   2.441   7.436  15.709 -0.0724 -0.2464  0.0701
18952W        W35026   5.323   5.184  11.747 -0.1921 -0.0279  0.1707
18953W        W35027  13.992   2.731   3.727 -0.1618  0.1828 -0.1204
18954W        W35028   6.572  17.825  12.250 -0.1068  0.2081 -0.1980
18955W        W35029  16.435  17.295  12.722 -0.2494 -0.1377  0.0598
18956W        W35030   1.355   5.809   2.720  0.0148 -0.3214 -0.0841
18957W        W35031  10.634   4.896   6.423 -0.0341 -0.4045 -0.2168
18958W        W35032   8.080   6.206  13.195 -0.1862  0.0111  0.1405
18959W        W35033   8.051   0.403  12.299  0.0315  0.1054 -0.0389
18960W        W35034   8.825  16.991   1.531  0.0192 -0.0265  0.0381
18961W        W35035   5.057   1.914  16.254 -0.0260 -0.1393 -0.0517
18962W        W35036  11.289   7.258  11.558  0.0559  0.0254 -0.0304
18963W        W35037   1.627  17.993   0.756 -0.1855  0.1485  0.2818
18964W        W35038   1.975   1.572   3.723 -0.2898  0.1026 -0.0249
18965W        W35039   8.276  10.521  15.404  0.0001  0.0083  0.1609
18966W        W35040  15.571   8.183   1.833 -0.0631 -0.0111  0.1398
18967W        W35041   2.870  15.788   3.245 -0.2284  0.2016  0.1734
18968W        W35042   8.862   5.577   5.013  0.3009  0.0150 -0.1225
18969W        W35043  15.205   2.495   5.246 -0.0700 -0.0123  0.0774
18970W        W35044  10.075  14.574  15.665 -0.0207 -0.0880 -0.0998
18971W        W35045   2.416  17.388   4.460  0.0745 -0.1164 -0.1812
18972W        W35046   8.451   1.134   0.062  0.0925 -0.0768 -0.0591
18973W        W35047  16.491  12.177  14.805  0.1554  0.0092 -0.2974
18974W        W35048   3.014  10.047   5.145 -0.2065 -0.3030  0.0864
18975W        W35049   0.302  15.075   3.297 -0.2412 -0.2579 -0.3841
18976W        W35050  15.072  12.917   2.880  0.1617  0.2146 -0.3386
18977W        W35051   1.794   8.127  10.784  0.0359 -0.1984 -0.3911
18978W        W35052  17.214   4.761   1.375 -0.2505  0.2062  0.0275
18979W        W35053  17.717   9.506   0.714 -0.0546  0.0225  0.1406
18980W        W35054   6.042  12.157   4.178 -0.5163 -0.0957 -0.0380
18981W        W35055  16.722  10.500  14.790 -0.0983 -0.0929  0.0219
18982W        W35056  15.423   5.143   0.349 -0.1871 -0.1090 -0.3100
18983W        W35057  13.528  16.909  14.404 -0.0585 -0.1644 -0.3217
18984W        W35058   3.950  14.472  11.910 -0.3319 -0.2129  0.0779
18985W        W35059  12.234  14.181  13.000  0.0825 -0.2913  0.3784
18986W        W35060  10.166  15.084  15.689 -0.0536  0.1790  0.1076
18987W        W35061   0.228  12.679  11.636 -0.2581 -0.0856 -0.1650
18988W        W35062  10.725  13.710  15.538 -0.0446  0.2196 -0.0960
18989W        W35063   1.734  15.620   5.913 -0.4010  0.1294 -0.0989
18990W        W35064   4.308  15.802   0.768  0.0167 -0.0728  0.0973
18991W        W35065  15.584   4.570   3.958 -0.0768 -0.1553  0.1494
18992W        W35066  10.447  13.938  12.692 -0.1316 -0.1603 -0.2490
18993W        W35067  17.928   8.366   1.238  0.0410  0.6512 -0.3568
18994W        W35068   4.546  16.361  14.537  0.2198  0.0253  0.0036
18995W        W35069  12.354  12.515  14.949  0.1174 -0.0308 -0.2265
18996W        W35070   2.626   8.734  11.903 -0.1065  0.1231 -0.0186
18997W        W35071   8.815  17.246  14.189  0.4040 -0.1581  0.0839
18998W        W35072   3.049  14.433   0.413 -0.2234 -0.0397  0.0264
18999W        W35073   4.572  13.759   2.804 -0.1205 -0.0599 -0.0435
19000W        W35074   7.511   8.401   2.358  0.4527  0.0695  0.1581
19001W        W35075  13.163   5.409   0.617  0.0738  0.3705 -0.0004
19002W        W35076   8.189  11.976  16.220 -0.0283  0.0567  0.1814
19003W        W35077   4.016   5.011   0.767 -0.2240 -0.1791 -0.1002
19004W        W35078  13.392   1.599  13.340 -0.3933  0.1913  0.2304
19005W        W35079   6.887   1.429   3.599  0.1797  0.3070 -0.0691
19006W        W35080   4.654   9.746   1.958 -0.1924  0.0296 -0.0201
19007W        W35081   7.698  14.189   4.099 -0.0648 -0.4024 -0.0615
19008W        W35082   0.752   3.580  14.974  0.1344  0.1611  0.1250
19009W        W35083  14.587  12.841   5.803  0.3247  0.0246 -0.1696
19010W        W35084   8.205   6.962   2.249  0.2036  0.2900  0.3103
19011W        W35085  12.540   5.725   5.099  0.2549  0.3572 -0.0168
19012W        W35086   3.917   1.179  16.419  0.0217 -0.3144  0.0167
19013W        W35087  17.372  17.864  14.486  0.0044  0.0329  0.1410
19014W        W35088  11.364   1.427   3.230  0.0014 -0.0688  0.1300
19015W        W35089  15.220  12.113  13.417  0.1490 -0.1370  0.4102
19016W        W35090   1.448   4.638   3.089 -0.0515  0.0647 -0.0360
19017W        W35091   1.945  10.329  11.847  0.0879 -0.1580 -0.1316
19018W        W35092   5.907   5.456   4.261 -0.0526 -0.1841  0.3151
19019W        W35093  10.387   7.526  16.243 -0.1966  0.2023 -0.1303
19020W        W35094   4.347   9.091  15.186 -0.2077  0.0510  0.2047
19021W        W35095  12.559   5.089   2.828 -0.1972 -0.1870 -0.2439
19022W        W35096  13.470  11.994   1.852 -0.0028 -0.2493  0.1477
19023W        W35097  12.974  17.018  11.687 -0.0284  0.1007 -0.1427
19024W        W35098   9.220   7.256  12.750 -0.2185 -0.4245  0.0354
19025W        W35099   0.062   7.698  14.721  0.1510  0.0356  0.1166
19026W        W35100   1.968   3.292  11.851  0.0611  0.0879 -0.1148
19027W        W35101   2.574   0.083   1.315  0.0546 -0.2569  0.0715
19028W        W35102   7.282  12.274   5.430  0.2601 -0.0021 -0.0087
19029W        W35103  11.415  13.610   2.509  0.0568  0.1780  0.3048
19030W        W35104  12.496  10.003   5.442 -0.0611 -0.3498  0.0702
19031W        W35105   2.233   9.347  15.303 -0.0928 -0.2107 -0.2149
19032W        W35106   3.921  10.478   4.903 -0.0484  0.0295 -0.0531
19033W        W35107  13.382  15.969   5.234  0.0156 -0.0414 -0.2641
19034W        W35108   2.214   7.106   1.398 -0.0047 -0.3619 -0.0971
19035W        W35109   0.109   0.393   4.611 -0.0942  0.0118 -0.0902
19036W        W35110   3.194   5.028  14.847  0.0456 -0.0347 -0.0859
19037W        W35111   0.105   5.000  14.810 -0.2770  0.1760  0.0058
19038W        W35112   9.783   0.984  16.026  0.0718 -0.2160 -0.3184
19039W        W35113   4.287  11.298   3.764  0.1026  0.2048  0.2122
19040W        W35114   4.677   9.078   3.157 -0.1830  0.1961  0.3954
19041W        W35115  12.866  13.210   4.901  0.1324  0.3114 -0.3658
19042W        W35116  13.800   1.091   0.754 -0.1233  0.1815 -0.3444
19043W        W35117   2.419  14.800  15.453  0.1007 -0.2969 -0.1247
19044W        W35118   4.247   0.709   5.129 -0.0355 -0.1489 -0.1035
19045W        W35119  14.270   5.626   4.950 -0.0487 -0.2169  0.1416
19046W        W35120   4.536   3.541   3.964 -0.1283  0.1666 -0.1836
19047W        W35121   5.845  11.640  13.090  0.2342 -0.1868  0.0704
19048W        W35122   1.486  14.550   3.248 -0.1753 -0.0718 -0.0514
19049W        W35123  11.547   5.328  15.647 -0.1586 -0.1321  0.2420
19050W        W35124  17.789  17.394  12.626 -0.0588  0.0821  0.0648
19051W        W35125  17.296   8.002  11.893 -0.0144  0.3182  0.3147
19052W        W35126   5.991  14.168   2.887 -0.0447  0.0075  0.0526
19053W        W35127   4.375  14.621  15.833  0.4562 -0.1010 -0.0048
19054W        W35128   3.636   3.872  13.795  0.1227  0.2416  0.3460
19055W        W35129  11.141  13.670  12.116  0.0353 -0.0676 -0.2009
19056W        W35130  15.704  17.511   5.091  0.1679  0.1020  0.0460
19057W        W35131  15.307   0.025   0.159  0.0204  0.2168 -0.2482
19058W        W35132  12.090   7.517   5.455  0.0943  0.0672 -0.1663
19059W        W35133  10.626  11.179   2.300  0.1299  0.1226  0.0900
19060W        W35134  10.275   4.210  15.780 -0.2988 -0.2904  0.3430
19061W        W35135  16.225  16.835  16.165 -0.0637  0.0525 -0.3820
19062W        W35136   2.862   9.002   3.141  0.0009 -0.3943 -0.3137
19063W        W35137  15.645  16.634  15.338 -0.1947 -0.4358 -0.0373
19064W        W35138  14.147  15.040   3.709  0.4233 -0.0476  0.0690
19065W        W35139  16.359  11.074   0.248 -0.0414 -0.0336  0.1282
19066W        W35140   3.634   9.838  15.938 -0.0959 -0.0048  0.1465
19067W        W35141   8.602   2.248   5.885 -0.2080 -0.1163  0.3417
19068W        W35142  13.376  17.491  14.797 -0.1352 -0.2993  0.0565
19069W        W35143  14.963  18.175   5.967  0.1398  0.0158  0.0900
19070W        W35144   1.277  11.275  14.114 -0.1729  0.0539 -0.0503
19071W        W35145   4.485   6.108   4.041 -0.0300  0.2600  0.1070
19072W        W35146  17.283   2.098   3.684 -0.3595  0.1421 -0.2020
19073W        W35147   7.223  18.200   1.347 -0.1855  0.3128  0.2031
19074W        W35148   7.043   9.497  11.165  0.1794  0.0877  0.1014
19075W        W35149  16.137   1.256  12.719  0.1096  0.2490  0.2532
19076W        W35150  12.350   1.230  12.790  0.0220 -0.0344  0.0137
19077W        W35151  11.701   9.905  15.781  0.3315  0.4122 -0.4331
19078W        W35152  11.929   0.444   0.176 -0.2506 -0.0858  0.0627
19079W        W35153   6.110   1.811  12.347  0.2740 -0.1414  0.3964
19080W        W35154  12.073   2.631  12.588 -0.2457 -0.1081  0.0534
19081W        W35155  11.250   0.425   3.947 -0.1000 -0.3089 -0.0605
19082W        W35156   3.005   6.844   4.436 -0.3197  0.0653 -0.0300
19083W        W35157   4.181  10.468   9.721  0.2311 -0.1670  0.2333
19084W        W35158  16.001  13.216  16.271 -0.2311 -0.1986  0.1097
19085W        W35159   1.484   4.668   2.591 -0.2654 -0.1644  0.3676
19086W        W35160  12.099   3.213   1.121  0.1403 -0.1115 -0.0020
19087W        W35161   5.776  17.850   5.437  0.0548  0.0652  0.5339
19088W        W35162  16.011  17.886  14.899  0.1250  0.0297  0.3495
19089W        W35163   3.617  12.957   5.066  0.1160  0.0085  0.2669
19090W        W35164  14.269  15.416   2.535  0.0362 -0.2277 -0.3578
19091W        W35165   3.864   0.011   0.777  0.0393  0.1584 -0.2156
19092W        W35166  11.118   8.085  12.251  0.3191 -0.0305  0.1618
19093W        W35167   1.983  12.087  15.725  0.2354  0.2148  0.0457
19094W        W35168   4.172  16.410  15.197  0.0186 -0.0606  0.0138
19095W        W35169   7.035   4.311  13.469  0.0356 -0.0359 -0.0859
19096W        W35170   8.217   7.344  13.342  0.1157  0.1603 -0.2733
19097W        W35171  14.028  13.741  15.111  0.0625 -0.3115 -0.0675
19098W        W35172   7.060  16.536  14.969 -0.2006 -0.1070 -0.1601
19099W        W35173   6.503   0.162   2.288 -0.2358  0.0005  0.0487
19100W        W35174  10.783  17.078  14.386 -0.1732 -0.1499 -0.0337
19101W        W35175   9.838   4.619  12.601 -0.0179 -0.0573 -0.3623
19102W        W35176   3.954  11.296   0.282  0.2301 -0.1004 -0.2581
19103W        W35177  17.292  10.728  12.072  0.1953  0.3618 -0.0301
19104W        W35178   4.097  16.228  12.374  0.1309  0.0628  0.1390
19105W        W35179   7.721   7.892   3.558 -0.1662  0.1490  0.0539
19106W        W35180   2.117  14.753   3.036  0.1997  0.0607 -0.0602
19107W        W35181  10.854  10.912  16.220  0.2446  0.1240 -0.0150
19108W        W35182  12.107   2.657   4.185  0.3011  0.1263  0.4620
19109W        W35183   1.504   1.750  14.263 -0.1125  0.0566 -0.0923
19110W        W35184   0.386   2.532   1.826  0.0170  0.2289 -0.1890
19111W        W35185   9.692  12.562   3.864 -0.1014  0.0007 -0.0656
19112W        W35186   5.125  14.251   5.059  0.3315 -0.1963  0.0047
19113W        W35187  12.266   8.777   4.169  0.2927  0.0455  0.2170
19114W        W35188  10.868  12.265   5.038  0.0720 -0.2407 -0.1743
19115W        W35189   0.667  14.348  13.819 -0.1296 -0.0446 -0.2534
19116W        W35190   5.988  14.454  15.740  0.1461 -0.1133  0.2083
19117W        W35191  10.781   1.941   4.611 -0.3977 -0.0540  0.4084
19118W        W35192  17.464   4.447  10.944  0.3017 -0.1158  0.2163
19119W        W35193   9.866   3.191   1.986 -0.1826 -0.2594 -0.1385
19120W        W35194  11.077   5.075   0.281  0.0659  0.1218  0.0439
19121W        W35195  10.494   1.781   5.053 -0.3991 -0.2101  0.1884
19122W        W35196   7.568   9.620  11.994 -0.1397 -0.1694  0.1827
19123W        W35197   4.310   9.946  16.229  0.0950 -0.3251 -0.0950
19124W        W35198  17.129   0.896  12.665 -0.2328  0.1704  0.1159
19125W        W35199  14.286   2.233   3.953 -0.3060  0.0012  0.1809
19126W        W35200  10.367  12.705   1.900  0.0209 -0.0476  0.2037
19127W        W35201   2.043  11.413  13.635  0.0945 -0.0947  0.1721
19128W        W35202  10.784  12.977   2.195  0.0770 -0.0697 -0.0327
19129W        W35203   4.997   9.507  11.330 -0.1005  0.0929  0.1120
19130W        W35204   8.532   3.016  11.599  0.1155 -0.4110 -0.2111
19131W        W35205   5.423   6.592   1.606  0.0779 -0.0179  0.1482
19132W        W35206   3.761   4.637  14.676 -0.2004 -0.1104 -0.1983
19133W        W35207  17.227   9.738  10.183 -0.0375  0.1128 -0.3993
19134W        W35208   5.413  11.114   2.375 -0.1024 -0.1044  0.0300
19135W        W35209   9.077  13.550  16.119  0.1891 -0.1765 -0.0431
19136W        W35210  11.126   7.467  16.437  0.2235  0.0101  0.1142
19137W        W35211   4.522  13.230  11.647  0.2630  0.0714 -0.1081
19138W        W35212   4.049   4.539   5.365  0.2746  0.2890  0.0046
19139W        W35213  12.051  12.406   2.194  0.0974 -0.1623  0.2710
19140W        W35214   4.251  15.908  13.335  0.3905 -0.0285 -0.1020
19141W        W35215   2.853  11.732   2.152  0.1010  0.1044  0.2156
19142W        W35216   4.716  11.555   1.654 -0.0089 -0.0363 -0.1029
19143W        W35217   1.688  18.158   5.159 -0.0071 -0.0401  0.2301
19144W        W35218  10.805   4.820   3.930 -0.2938  0.3848 -0.1217
19145W        W35219   8.395  12.167   1.394 -0.0241 -0.1286  0.0790
19146W        W35220   3.777   0.339   1.131  0.0191  0.1312  0.2882
19147W        W35221  11.608  13.122   0.057 -0.1528 -0.0075 -0.2410
19148W        W35222  17.927   4.193   1.868  0.3597 -0.0436  0.3648
19149W        W35223   0.854   3.651  15.999  0.1374  0.0449  0.1407
19150W        W35224  14.963  14.301  13.388 -0.2321 -0.3628 -0.3061
19151W        W35225  16.602  13.161  16.183 -0.1819  0.0747  0.0068
19152W        W35226   9.258   9.496   0.981 -0.2203 -0.0694  0.1609
19153W        W35227   3.773   1.399  11.829 -0.1332 -0.2895 -0.0275
19154W        W35228   7.538  12.836   1.943 -0.3684 -0.1912 -0.0654
19155W        W35229   7.605  18.104  16.403 -0.0299  0.3386  0.0585
19156W        W35230   9.036   2.796  12.894 -0.0221 -0.1829 -0.2286
19157W        W35231  17.618  12.723   3.090  0.1327 -0.1044 -0.3347
19158W        W35232  15.306  16.499   1.060 -0.3767  0.0718 -0.3005
19159W        W35233   0.039  11.936   1.182  0.2204 -0.2600  0.2110
19160W        W35234   0.986   3.011  12.025 -0.1357  0.0111  0.0245
19161W        W35235   6.181  14.931  16.361  0.1229  0.1549 -0.1549
19162W        W35236   3.087  13.138   3.854  0.4201 -0.0403 -0.2322
19163W        W35237   4.608  15.283   5.748 -0.0205  0.6043 -0.0580
19164W        W35238   6.699   3.944   5.840  0.1907 -0.5289 -0.3075
19165W        W35239  14.332   1.426   1.934 -0.0341 -0.1629  0.1618
19166W        W35240  15.213  12.386   5.598  0.0512 -0.1469  0.0429
19167W        W35241  15.993   0.154   4.190 -0.2286  0.0964  0.0450
19168W        W35242   1.681  10.195   4.051 -0.2537  0.0699  0.1945
19169W        W35243   4.239  12.419   1.226 -0.2193 -0.2893  0.1738
19170W        W35244  12.693   6.693   6.588  0.1946 -0.4216  0.0848
19171W        W35245   8.163  11.257   1.243  0.0844  0.1052  0.1355
19172W        W35246   3.420  12.415   0.919  0.0978  0.1827  0.1536
19173W        W35247  11.186  11.194   4.107  0.0086  0.0234  0.3011
19174W        W35248  10.508  18.197  15.623 -0.0567 -0.2426  0.1400
19175W        W35249  10.648   5.227  14.233  0.2231 -0.1296 -0.1598
19176W        W35250   7.145   9.431  14.902 -0.1206 -0.3024  0.3166
19177W        W35251   0.749   5.281   0.734 -0.1030 -0.1746  0.1706
19178W        W35252   0.661   6.641  12.794  0.0745  0.1908 -0.0986
19179W        W35253   9.970  17.203  15.663  0.2052 -0.1353 -0.0170
19180W        W35254  10.979  15.355  14.491  0.0373 -0.0719  0.0151
19181W        W35255  14.198  14.103  12.717  0.1114  0.1721  0.0582
19182W        W35256  13.203  12.234   2.634 -0.1177 -0.3555  0.1851
19183W        W35257   2.109   3.300   1.228 -0.0453 -0.0841 -0.0699
19184W        W35258  14.066   3.934   3.570 -0.0211  0.1700 -0.1898
19185W        W35259  13.488   9.690   3.335  0.1188  0.3434 -0.0127
19186W        W35260  15.784  11.375   1.474 -0.0318  0.3642  0.2160
19187W        W35261   4.982   0.060   5.249 -0.0134  0.1255  0.0523
19188W        W35262   9.237  11.998   1.884  0.4518  0.1687  0.1891
19189W        W35263   8.651  11.657   4.020  0.0179  0.1470 -0.2618
19190W        W35264  14.408   5.932   0.949 -0.0722 -0.1306 -0.1270
19191W        W35265   2.267  11.063   3.221  0.3361 -0.2165 -0.1759
19192W        W35266  10.012  13.282  13.294  0.0292 -0.2669 -0.1974
19193W        W35267   8.556   3.456   1.457 -0.2306  0.3503  0.1178
19194W        W35268  13.744   1.845  15.867  0.0639  0.2869  0.0340
19195W        W35269  12.964  11.542  15.269  0.1103 -0.1820 -0.0601
19196W        W35270   2.063   8.146  14.398  0.0625  0.0376 -0.0173
19197W        W35271  12.064   8.297  12.872 -0.2233 -0.4496 -0.0588
19198W        W35272  13.329   1.573   3.243  0.1229  0.0650 -0.0852
19199W        W35273  16.577   1.845   4.963 -0.0236 -0.2544 -0.3201
19200W        W35274  10.782  17.080  13.796  0.1156 -0.0483 -0.0666
19201W        W35275  15.131   4.694   4.191  0.0822 -0.1614 -0.1629
19202W        W35276   6.571   2.243   3.249  0.1993 -0.1934  0.4974
19203W        W35277   7.289   9.642   5.484 -0.2754  0.0380  0.1526
19204W        W35278   0.791   1.263   1.839  0.1278 -0.1326 -0.0391
19205W        W35279   8.597   6.658   2.344  0.1212 -0.3548 -0.0736
19206W        W35280   4.581   9.724  13.663 -0.2717 -0.0161  0.2169
19207W        W35281  11.789   3.252  15.909 -0.3653  0.0401  0.0315
19208W        W35282   3.175   7.777   0.637  0.0563 -0.2786 -0.1487
19209W        W35283   5.215   9.097  16.157 -0.1575 -0.1152 -0.0767
19210W        W35284   0.992  10.737  13.467 -0.3989 -0.0865  0.1925
19211W        W35285  15.396   8.960   1.065 -0.0536  0.0641  0.2741
19212W        W35286  11.183   8.671  16.042 -0.2021 -0.0291  0.3089
19213W        W35287   2.862  13.783   0.916  0.2418  0.0100 -0.0591
19214W        W35288   5.998   1.348  14.411  0.0463  0.0168 -0.2722
19215W        W35289   1.218   6.966   1.603  0.0022  0.2160  0.3993
19216W        W35290   6.581  12.089   4.853  0.0703 -0.2022 -0.1313
19217W        W35291  17.128   4.078  13.200 -0.1380 -0.0399 -0.3898
19218W        W35292   6.608   4.552   4.281  0.1339 -0.0692 -0.3253
19219W        W35293  14.157   8.309  14.357 -0.0980 -0.0522 -0.0929
19220W        W35294   1.734   0.546  12.872 -0.1624 -0.1201 -0.0830
19221W        W35295   5.870   6.094   3.414  0.0763  0.0706  0.0740
19222W        W35296  10.632   7.681  14.581 -0.0828 -0.1252  0.0420
19223W        W35297   0.140   8.790  13.290 -0.2251  0.0589  0.0774
19224W        W35298   6.617  14.789  15.131  0.1926 -0.0692  0.1929
19225W        W35299  14.887  10.092   6.187  0.1406  0.0074 -0.1469
19226W        W35300   0.556  10.461   3.472  0.1825 -0.3829 -0.2737
19227W        W35301   1.732  10.869   3.614 -0.2971  0.1924 -0.3912
19228W        W35302  16.124   3.031  13.429 -0.2855  0.1105 -0.2226
19229W        W35303  10.640   5.358  15.145  0.0476 -0.1710 -0.2740
19230W        W35304   5.068   3.941  14.198 -0.0977 -0.1220 -0.1922
19231W        W35305   0.644   1.414  16.061 -0.1056  0.0907 -0.0084
19232W        W35306   0.162   9.644  12.120  0.0524  0.0226 -0.1459
19233W        W35307  14.564   8.270   3.268 -0.5337 -0.1177  0.1442
19234W        W35308   1.505   8.338  16.329 -0.0208 -0.1445 -0.0966
19235W        W35309  16.881   3.340  16.403  0.1683  0.1968 -0.3323
19236W        W35310   6.716  11.204   6.066  0.1871  0.3679 -0.3004
19237W        W35311  12.483  11.354   0.177 -0.0600 -0.1560  0.0585
19238W        W35312  12.022  16.905  13.750 -0.0939  0.0556  0.1081
19239W        W35313   3.037  15.498  15.450 -0.0122  0.0814  0.1416
19240W        W35314  13.503   8.208   0.494 -0.2148  0.1184 -0.2050
19241W        W35315  17.092  15.310  11.761  0.2527 -0.1331 -0.1570
19242W        W35316  12.725   2.337   3.467 -0.3230 -0.1279 -0.3803
19243W        W35317   5.592   7.057   5.218 -0.0219  0.1034 -0.1778
19244W        W35318   0.446   1.404   0.052 -0.0773 -0.1762 -0.0140
19245W        W35319   9.469  11.202  13.891  0.1652 -0.1658 -0.0463
19246W        W35320  11.734  13.682  13.581  0.0214 -0.0492  0.1834
19247W        W35321   3.400  11.812   2.787 -0.0986 -0.0023  0.0906
19248W        W35322  17.476  14.595   3.741  0.3204  0.1380  0.1259
19249W        W35323   0.030  17.000   0.807  0.1513 -0.0746 -0.0609
19250W        W35324   4.340   7.967  16.031  0.0142 -0.1582 -0.2320
19251W        W35325  11.190   9.100  14.069 -0.0185  0.4465  0.0503
19252W        W35326   7.490   8.962   0.568  0.1488 -0.0846 -0.2462
19253W        W35327  15.003   0.454   4.278  0.1274 -0.0582 -0.1222
19254W        W35328  15.999   0.995   2.065  0.0874 -0.1701  0.0352
19255W        W35329   7.632   9.288  16.177  0.1321 -0.2090  0.1336
19256W        W35330  11.230   9.025   4.718 -0.1829 -0.1291  0.1902
19257W        W35331   1.212   3.089   3.728  0.1288 -0.1616  0.1625
19258W        W35332   2.212  17.499   0.323 -0.1366  0.3901 -0.0699
19259W        W35333  10.884  14.853   6.217 -0.0803 -0.2494 -0.0521
19260W        W35334   1.184   6.223   0.649 -0.2089 -0.0452  0.1766
19261W        W35335  11.348   1.675  12.393 -0.0994  0.0456 -0.2175
19262W        W35336  12.663   8.826  14.240 -0.0219  0.0176 -0.2316
19263W        W35337  10.253   4.572   0.647  0.3642 -0.0752  0.0511
19264W        W35338   8.350   2.554   1.192 -0.3796  0.2240 -0.0573
19265W        W35339  12.298   7.040  13.906  0.2253 -0.1983  0.2253
19266W        W35340  17.899   0.144  16.064 -0.5578 -0.0009 -0.2262
19267W        W35341   7.827  11.359  14.537  0.2101 -0.0626  0.2049
19268W        W35342  17.318   8.955   1.616 -0.1496 -0.2687  0.2036
19269W        W35343  10.787   0.209   0.567 -0.2579 -0.2254  0.1804
19270W        W35344   3.716  14.695   5.277 -0.2701 -0.0071 -0.3475
19271W        W35345  16.848  16.567  12.325  0.1436 -0.3213  0.3120
19272W        W35346   0.940   4.894  15.600 -0.0782 -0.0051 -0.0221
19273W        W35347   1.232   6.181   4.242  0.3305  0.0026  0.0538
19274W        W35348   0.049  10.370  14.246  0.3871  0.0843  0.2396
19275W        W35349   6.133  14.708  14.636 -0.1872 -0.0099 -0.2453
19276W        W35350  11.100  10.020  15.079 -0.0347 -0.1769  0.0247
19277W        W35351  16.051   0.408   4.956  0.1815 -0.0818 -0.2672
19278W        W35352  10.303   2.621   3.541  0.0971 -0.0437 -0.2652
19279W        W35353  17.770  17.167  15.042 -0.5440 -0.1181  0.2496
19280W        W35354  13.629   7.630   2.624 -0.0436 -0.1209  0.2547
19281W        W35355  14.344   3.757   4.049  0.0862  0.0174  0.2076
19282W        W35356   9.775   6.335   0.347 -0.1853 -0.0794 -0.1121
19283W        W35357   0.376  17.597   2.612  0.0099 -0.4919  0.5245
19284W        W35358  17.159  14.906  12.905  0.0773  0.0284  0.3137
19285W        W35359  15.635   0.780   4.161  0.1191  0.1000  0.2909
19286W        W35360   2.009   5.264  16.370  0.0435  0.1340  0.4396
19287W        W35361   0.296  12.755   1.417 -0.0803  0.0083 -0.0828
19288W        W35362   6.277  11.085   0.132  0.0667 -0.4100  0.1856
19289W        W35363   1.217  13.515  13.770 -0.0997 -0.0874 -0.2650
19290W        W35364  13.972   0.893   3.187 -0.0142 -0.0054  0.0794
19291W        W35365  14.709   1.405   1.567 -0.2055 -0.0822 -0.1816
19292W        W35366  13.164   0.801   4.350  0.1178 -0.0709 -0.1747
19293W        W35367   0.091  11.604  11.119  0.3213  0.1897 -0.2698
19294W        W35368  13.289   4.967   5.495 -0.0861  0.4911 -0.1097
19295W        W35369   4.083  13.115   3.039  0.2224 -0.0232 -0.1539
19296W        W35370  10.263   8.717   3.077  0.1445 -0.1138 -0.1320
19297W        W35371  12.985  15.997   2.637  0.2177 -0.1395  0.2619
19298W        W35372   9.742  12.072   4.026 -0.2349 -0.0778  0.0131
19299W        W35373   0.736  14.140   1.374 -0.0081  0.1055 -0.1963
19300W        W35374  13.246  13.728  12.876  0.0365  0.2395  0.0417
19301W        W35375  13.994  11.353  13.967 -0.1552  0.1171  0.0247
19302W        W35376   6.972   0.196   4.548  0.0791  0.2688  0.1240
19303W        W35377   9.315  16.987   5.664  0.0865  0.1706 -0.2864
19304W        W35378   8.298   5.553  11.071 -0.1353 -0.0897 -0.0222
19305W        W35379  11.951  13.252  13.394 -0.0376  0.2054 -0.0102
19306W        W35380   5.998   0.316   2.509  0.1426  0.0872 -0.2209
19307W        W35381   7.826  10.348  15.577 -0.0652  0.2031 -0.0050
19308W        W35382   5.206   3.615   4.397 -0.1375  0.2392  0.0998
19309W        W35383   1.102  14.929  11.210  0.1520 -0.1491 -0.0981
19310W        W35384   1.858   7.123   3.381  0.1147 -0.0685 -0.2446
19311W        W35385  16.923   5.062  12.108 -0.0017  0.0124 -0.0593
19312W        W35386  11.842  13.786   3.279 -0.0654 -0.3345 -0.1084
19313W        W35387  13.529  14.404   2.216 -0.1566  0.0154  0.2157
19314W        W35388  15.033   4.320   5.142  0.0114  0.2919 -0.0405
19315W        W35389  14.238  16.199  12.810 -0.0668  0.0125 -0.0495
19316W        W35390   0.584  11.923  15.488  0.0952  0.2395 -0.1353
19317W        W35391   0.047   6.109  11.615  0.1631  0.4601 -0.0140
19318W        W35392   5.884   4.647  13.891 -0.2650 -0.1841  0.0196
19319W        W35393   8.559  10.875   4.712  0.2966  0.0936 -0.0595
19320W        W35394   2.027   6.357   2.632 -0.0597 -0.2042 -0.1389
19321W        W35395  14.153   5.497   5.589  0.1192  0.1105 -0.0906
19322W        W35396  14.189  15.602   0.887  0.0096 -0.1308  0.1483
19323W        W35397  11.956  10.019   2.803 -0.3456  0.0732  0.3084
19324W        W35398  15.027   3.216   3.528  0.1237 -0.0904 -0.1032
19325W        W35399  17.660  17.447   2.888  0.0448  0.1036  0.0072
19326W        W35400  10.260  15.996   2.164 -0.3661  0.1004 -0.2665
19327W        W35401   9.417   5.955   3.712 -0.0734 -0.0585 -0.2014
19328W        W35402   8.858   9.821  15.704 -0.1114 -0.0045  0.1475
19329W        W35403  12.031  16.650   0.672 -0.0323 -0.1118  0.3124
19330W        W35404   8.915   8.838  12.351 -0.1790  0.0517  0.1166
19331W        W35405  15.800   4.744   3.556  0.4555 -0.0256  0.2740
19332W        W35406  12.523   0.294  14.608  0.0117 -0.0715  0.0029
19333W        W35407   9.120  16.558  14.468  0.2437 -0.0945  0.0748
19334W        W35408   3.615  14.446  14.561 -0.2792 -0.2464  0.0869
19335W        W35409  17.524   0.581   5.165 -0.1711 -0.1235 -0.0033
19336W        W35410  10.159   2.343  13.434  0.0605  0.2103  0.0565
19337W        W35411  11.995   2.132   4.169 -0.2345 -0.4384 -0.0066
19338W        W35412   5.703  15.814   1.216  0.1168 -0.0745 -0.0830
19339W        W35413   9.463   1.877   4.790  0.1013  0.1027 -0.0676
19340W        W35414  17.781  15.690   3.005  0.3217 -0.1740 -0.2143
19341W        W35415   5.910   7.319  13.570  0.1050 -0.3301 -0.0712
19342W        W35416  15.118  14.729  12.568 -0.2323 -0.1205 -0.1853
19343W        W35417   7.237  11.376   1.365 -0.0401  0.0016  0.0346
19344W        W35418  16.111   1.723  14.462  0.2228  0.1516  0.2256
19345W        W35419   7.221   5.194   5.963  0.1097 -0.1305  0.0795
19346W        W35420   8.745  14.795  13.909  0.1842  0.0128 -0.1565
19347W        W35421   0.954   1.289  15.661 -0.0463 -0.1709  0.1313
19348W        W35422   8.265  10.606  14.495 -0.1746  0.1855 -0.0807
19349W        W35423   7.392  13.786  15.944 -0.0527 -0.1897 -0.0244
19350W        W35424  11.307  13.342  10.592 -0.3861  0.1004  0.2265
19351W        W35425   1.653   7.068   1.391 -0.0125 -0.2492  0.2244
19352W        W35426  13.580  15.089  13.583  0.0469 -0.0064 -0.5458
19353W        W35427   2.439   5.542  13.880  0.1442 -0.1050  0.1408
19354W        W35428  11.483   8.583   4.696  0.1364  0.1201  0.1788
19355W        W35429   0.559   3.213   3.952 -0.0996  0.2802  0.1534
19356W        W35430   5.105  10.757   1.277  0.1212  0.3311  0.0551
19357W        W35431   6.462  11.148  13.896  0.0075 -0.1914  0.0273
19358W        W35432  12.331  12.001   2.386 -0.2173 -0.3322 -0.2059
19359W        W35433   1.604  13.515  10.711 -0.1080 -0.0579  0.1280
19360W        W35434  18.050  16.626   0.064 -0.2967 -0.1722  0.1556
19361W        W35435   9.098  15.134  14.845  0.0612  0.0285  0.4900
19362W        W35436   6.118   0.379  14.890 -0.1785 -0.1289 -0.0901
19363W        W35437  12.970  12.488   3.130  0.1420 -0.3356  0.3966
19364W        W35438   3.590  15.188   3.796  0.3817 -0.1008 -0.1403
19365W        W35439   7.041  14.207   2.898  0.0754  0.2489  0.1024
19366W        W35440  16.226  15.892  11.812  0.1542 -0.0472  0.0187
19367W        W35441   7.137  13.834  12.169  0.0185  0.3254 -0.0349
19368W        W35442   4.037  12.588   3.938 -0.3236 -0.0708  0.0583
19369W        W35443  15.053  16.999  15.146 -0.0729  0.0554  0.0210
19370W        W35444   2.125   8.750  11.706  0.1961  0.2468 -0.0267
19371W        W35445   5.165  16.255  14.558  0.0325  0.0681 -0.0360
19372W        W35446   8.834   8.059  11.251  0.1628 -0.1958 -0.0212
19373W        W35447  10.205   9.829  15.302 -0.2002 -0.0067 -0.0134
19374W        W35448   5.007   1.852   1.336 -0.0242  0.2533 -0.2604
19375W        W35449   3.734  15.810  16.301  0.1089 -0.3550  0.1692
19376W        W35450  11.653   9.044  12.154 -0.1332 -0.1116  0.2922
19377W        W35451  16.843   0.885  15.473 -0.2271  0.0618  0.2817
19378W        W35452  16.661  10.275   4.544 -0.2487 -0.2518 -0.2178
19379W        W35453  12.671  13.615   4.673  0.0287 -0.3126 -0.0525
19380W        W35454  15.794  16.732  11.527 -0.0378 -0.1945 -0.0533
19381W        W35455   1.134   1.023  10.636  0.2775  0.1270 -0.0410
19382W        W35456   0.318  17.036  11.672  0.0815  0.0795  0.0534
19383W        W35457   5.001  11.913   3.034  0.1968  0.0230 -0.1041
19384W        W35458  11.827  11.540  15.951  0.0071 -0.0069 -0.1188
19385W        W35459  12.002   2.477   0.845  0.0303 -0.1251  0.0490
19386W        W35460   0.713  15.206  13.845 -0.1518 -0.2610  0.1508
19387W        W35461   9.928   8.502  16.258 -0.2916 -0.1104  0.1423
19388W        W35462   5.601   6.103   1.847 -0.2241  0.1670 -0.1948
19389W        W35463  10.542  14.836   3.487 -0.0562  0.0304 -0.0826
19390W        W35464   2.369   1.481  13.219 -0.0375 -0.1994  0.1367
19391W        W35465  11.798  15.953  15.384  0.1514  0.0144 -0.2048
19392W        W35466   7.050  15.161   0.903 -0.2524  0.1794 -0.2651
19393W        W35467   9.912   5.555  14.783  0.3206  0.3072 -0.0240
19394W        W35468   2.701  11.016   5.385 -0.0657 -0.0229  0.4361
19395W        W35469   9.625  14.744  11.688 -0.1193 -0.0376 -0.1167
19396W        W35470  11.377   8.375   4.248  0.4270  0.1033 -0.2341
19397W        W35471   5.262  16.873  12.047 -0.2395 -0.2681  0.2244
19398W        W35472  14.455  12.888  15.363  0.3145  0.0959  0.0502
19399W        W35473   0.649   4.433   2.413  0.1881 -0.1524  0.1759
19400W        W35474   5.288   9.628  13.200 -0.0872 -0.0112  0.0558
19401W        W35475  18.088  17.913   0.837 -0.0551  0.1433  0.0578
19402W        W35476  17.257  15.473  13.638  0.1891 -0.1517 -0.0432
19403W        W35477   9.234   5.110   5.405  0.0242 -0.2394  0.1942
19404W        W35478  17.293  13.280   4.306 -0.1374  0.1427 -0.5956
19405W        W35479   9.066   0.722   4.221  0.0416 -0.3597 -0.4520
19406W        W35480   2.033  10.918   4.392  0.1261  0.1203 -0.5414
19407W        W35481  10.348  12.141   2.858 -0.0360  0.0223 -0.2473
19408W        W35482  13.938   9.289   4.291  0.3734 -0.2910  0.0325
19409W        W35483  16.511   0.174   2.422 -0.1439 -0.0133  0.2046
19410W        W35484  16.944   1.163   1.903 -0.0176 -0.3264 -0.3069
19411W        W35485  14.045   5.170   4.811 -0.0381 -0.0239 -0.4697
19412W        W35486  12.847   9.837   3.798  0.0098  0.1579 -0.0343
19413W        W35487  17.538   4.910   0.937  0.5082  0.0841 -0.0961
19414W        W35488  17.652   5.544   5.110  0.2526 -0.1087  0.4503
19415W        W35489  16.095   9.850   1.472  0.2309  0.0506  0.3457
19416W        W35490  10.523  15.074   0.253 -0.1227 -0.0716 -0.2078
19417W        W35491   8.754   1.150  13.506  0.1238 -0.0057  0.0089
19418W        W35492   2.508   1.015   5.516 -0.0413  0.3242 -0.2564
19419W        W35493  12.892   6.021  14.512 -0.0179  0.1060 -0.1299
19420W        W35494   1.044   7.582  15.725  0.0374  0.0692  0.3602
19421W        W35495   1.808  16.904  13.768 -0.1314 -0.3624 -0.2133
19422W        W35496   1.623   3.161   1.241 -0.4048 -0.0295 -0.1300
19423W        W35497   7.528   2.434   0.883  0.2357  0.0608 -0.0794
19424W        W35498  18.021   2.659   0.025 -0.1606  0.3360 -0.1334
19425W        W35499   5.663   2.782   4.050 -0.0159 -0.1080 -0.0083
19426W        W35500   0.746   9.564   9.860 -0.2075 -0.1502 -0.1748
19427W        W35501  12.601  15.447   0.596  0.0677 -0.1499  0.1479
19428W        W35502   2.332  16.936   4.153 -0.1163  0.1036  0.0814
19429W        W35503  10.153   6.235  16.480  0.0906 -0.0095  0.0839
19430W        W35504   3.484   9.804   0.298 -0.1035  0.0676  0.2649
19431W        W35505  10.421  16.874  15.637 -0.2201 -0.1109  0.1040
19432W        W35506  11.984  17.819  15.163 -0.0719  0.1131 -0.1079
19433W        W35507   7.202   4.970  13.636 -0.1154  0.4289 -0.0237
19434W        W35508   4.023  10.055  11.689  0.3365 -0.0946  0.0491
19435W        W35509  17.653  17.815   1.909 -0.3229  0.4407  0.4758
19436W        W35510   0.661   8.528   0.733  0.1064  0.0608  0.0852
19437W        W35511   0.875   0.991   4.831  0.1061 -0.1592 -0.0759
19438W        W35512   6.912   0.768   0.887  0.1242  0.2086 -0.0877
19439W        W35513  10.459   7.488  11.929 -0.2862 -0.3861 -0.1119
19440W        W35514  15.792  11.937   5.106  0.4024  0.2778  0.2532
19441W        W35515  10.830   7.531   3.625  0.2812 -0.1075 -0.1056
19442W        W35516   8.043  10.646   3.101 -0.2843 -0.2284  0.3266
19443W        W35517   4.353  17.540   4.819  0.4090 -0.1546  0.1739
19444W        W35518  16.599   3.171  15.555 -0.1142 -0.1697 -0.1199
19445W        W35519   0.008   4.411  11.134  0.0779  0.1244 -0.3670
19446W        W35520   0.043   7.000  16.498  0.1400  0.1918 -0.0779
19447W        W35521   0.108  17.951  14.222  0.0748  0.0285  0.1017
19448W        W35522   9.278   4.981   2.779  0.2231 -0.0682  0.1213
19449W        W35523  16.225  17.600   0.368  0.1958 -0.2996  0.1388
19450W        W35524  14.287  15.923   5.046  0.0760 -0.0549  0.4262
19451W        W35525   6.052  16.732  14.824  0.2824  0.2290  0.0723
19452W        W35526   7.101  13.164   1.690 -0.0688 -0.1361  0.2632
19453W        W35527  14.592  17.385   3.887 -0.1934  0.2078 -0.1480
19454W        W35528  10.202   4.955  16.142 -0.0065  0.2354 -0.0039
19455W        W35529  14.043   1.548   1.578  0.0609 -0.0610 -0.0268
19456W        W35530  11.459   5.428  16.263  0.4134 -0.0127  0.1005
19457W        W35531  17.842   7.641  15.956 -0.2632  0.1161  0.0610
19458W        W35532   2.101   9.573  15.821  0.0104  0.0852  0.0050
19459W        W35533   3.080   8.853   5.609 -0.0020 -0.0257 -0.2760
19460W        W35534   3.147   2.533   3.265 -0.0423  0.0844 -0.0590
19461W        W35535   2.133   5.918   4.458  0.4806 -0.1344  0.0163
19462W        W35536  13.737   2.937  12.648  0.1732 -0.2038  0.2501
19463W        W35537  15.620  10.142   0.819  0.1038  0.4362  0.0470
19464W        W35538   4.113  15.006  16.077 -0.1650 -0.2195  0.2170
19465W        W35539   3.971   6.114  12.774 -0.1771  0.1574 -0.0290
19466W        W35540   2.433   5.377  15.591  0.4744  0.2099  0.1557
19467W        W35541  17.894  16.990   3.873  0.2511  0.1405  0.2663
19468W        W35542   4.599  10.869  11.562  0.0627  0.1049  0.1650
19469W        W35543   0.508  10.914  13.509  0.2833 -0.0302  0.0821
19470W        W35544   7.557  14.090   1.200  0.1352 -0.1527 -0.0414
19471W        W35545   6.506   8.773   0.740 -0.0346  0.1790  0.2984
19472W        W35546  15.029   1.103   1.794  0.0688 -0.1043 -0.0464
19473W        W35547   6.485   0.502  14.639 -0.1789  0.0167 -0.1875
19474W        W35548   0.129   2.769   4.522 -0.0800 -0.2536  0.1727
19475W        W35549  11.044  11.644  12.691 -0.2789 -0.3052 -0.1074
19476W        W35550  10.137   0.376   1.976  0.0154 -0.0391  0.0189
19477W        W35551  17.831  17.793  13.451 -0.0295  0.1326 -0.0908
19478W        W35552  11.388  17.698  12.117  0.0010  0.0993  0.1491
19479W        W35553  10.338  12.479  14.016 -0.1980  0.1705 -0.0821
19480W        W35554  15.361  12.187   4.996 -0.1840 -0.1855 -0.1775
19481W        W35555  17.891  15.936  13.099  0.0907 -0.0099 -0.0474
19482W        W35556  15.197  13.336   2.440 -0.1319 -0.2142  0.1149
19483W        W35557   3.934   9.635   0.831 -0.1234  0.0676  0.0919
19484W        W35558   1.882   5.526   4.743  0.1860  0.2267  0.2858
19485W        W35559  17.787  12.046  11.781 -0.0745 -0.1648  0.1084
19486W        W35560   1.792   0.740   1.171 -0.0223  0.1545  0.0616
19487W        W35561  14.590   3.940   4.766  0.2321 -0.2101  0.0256
19488W        W35562  16.638  11.573   0.434 -0.4446  0.2854 -0.1960
19489W        W35563   2.765   1.180   5.002  0.1189 -0.3994  0.1264
19490W        W35564  17.834   2.911   2.281  0.2764  0.4360  0.0867
19491W        W35565   2.032   1.915  14.986 -0.1452  0.0997 -0.1549
19492W        W35566  10.812   9.012  16.167  0.0276 -0.1353 -0.0656
19493W        W35567   8.211   8.398   1.573 -0.2449  0.4136  0.0660
19494W        W35568  13.681   7.719   1.234 -0.1156  0.0140 -0.0206
19495W        W35569   6.948   7.335  14.540 -0.0099  0.2138 -0.1652
19496W        W35570   7.093   9.818   2.948  0.0794  0.0656  0.0477
19497W        W35571   2.682  12.997  15.531 -0.2661 -0.0796  0.1771
19498W        W35572   4.024  11.313  12.082 -0.0053 -0.4010  0.4080
19499W        W35573  10.106  15.927  13.080 -0.1792  0.0147  0.1046
19500W        W35574  15.103   5.908  16.455 -0.1235 -0.1831 -0.2594
19501W        W35575   1.727  11.582   1.067 -0.0036  0.4006  0.1681
19502W        W35576   2.789  13.964  11.915 -0.0281 -0.0344  0.0683
19503W        W35577   8.206  13.479   2.842  0.0687 -0.2135  0.0494
19504W        W35578   1.326   2.009  16.172  0.0375  0.3724  0.3644
19505W        W35579  16.687   5.774   0.660  0.1256  0.0926  0.1763
19506W        W35580   7.147  14.008   1.736 -0.3177 -0.2647  0.0953
19507W        W35581   9.287  10.011   3.783 -0.0052 -0.0046 -0.1001
19508W        W35582   4.133  16.046   1.572 -0.0497 -0.0135  0.0030
19509W        W35583   6.648   2.078  11.708 -0.1541 -0.0759 -0.2307
19510W        W35584   5.913  17.722   3.782 -0.2101  0.2189  0.1279
19511W        W35585   4.180   6.307  15.820 -0.1040  0.5104  0.0511
19512W        W35586  14.867   9.911  14.477  0.2010 -0.0921 -0.1901
19513W        W35587  14.779  13.685  13.167  0.0117 -0.0357  0.1590
19514W        W35588  17.613   0.357   3.865 -0.0850  0.1510  0.1143
19515W        W35589  13.427  12.638   5.386 -0.0647  0.2069 -0.3281
19516W        W35590  15.625  15.405  12.752 -0.0760 -0.1287  0.1191
19517W        W35591   0.826   3.594   4.159 -0.0659 -0.1238 -0.2993
19518W        W35592   6.192   8.912  14.148 -0.3174  0.0450  0.0657
19519W        W35593  15.126   4.126  12.773 -0.0291 -0.2020 -0.3195
19520W        W35594  12.878  17.167  13.524  0.2662  0.0090  0.1961
19521W        W35595  15.540  13.692   1.196  0.2211  0.1297 -0.4146
19522W        W35596   0.743   5.410  15.807 -0.0410  0.2377 -0.1847
19523W        W35597   0.359  17.844   0.809 -0.1571  0.2944  0.1597
19524W        W35598  15.724  17.602  11.516 -0.3755 -0.3165  0.2441
19525W        W35599  15.225   4.510  13.617  0.1850  0.0092 -0.0564
19526W        W35600   6.783  14.695  11.696  0.2135 -0.1584  0.1044
19527W        W35601   7.240  17.090   6.616 -0.3241 -0.0528 -0.2000
19528W        W35602  16.452   6.990   3.762 -0.0367  0.2908 -0.1200
19529W        W35603   7.541  13.731  14.808  0.1772  0.3714 -0.0745
19530W        W35604  16.920  16.000  15.363  0.1581  0.2725 -0.2018
19531W        W35605  18.005  11.588  13.096 -0.1112  0.3411  0.0364
19532W        W35606   8.537  17.782  16.199 -0.2091  0.1470 -0.1834
19533W        W35607  13.576   5.764   1.439  0.0992  0.0809  0.1210
19534W        W35608   0.112   7.686   1.446  0.3673 -0.0968  0.1124
19535W        W35609   8.046  13.562   1.406 -0.0909  0.1619 -0.0850
19536W        W35610   9.080  10.766  14.880 -0.0357  0.1654  0.1086
19537W        W35611   6.942  16.598  12.333 -0.2595  0.1759 -0.3767
19538W        W35612   3.469   9.055   3.757 -0.2647 -0.2013  0.0176
19539W        W35613  15.234  15.038  14.553 -0.3331 -0.0594 -0.2023
19540W        W35614  16.138  16.965  12.526  0.4082  0.3213 -0.2119
19541W        W35615   5.522   4.272  13.343 -0.1855 -0.1621 -0.1558
19542W        W35616  16.887   1.898   2.121  0.2394  0.0118  0.2108
19543W        W35617   6.535   5.320   2.072  0.3342 -0.1598 -0.2948
19544W        W35618   9.476  10.457  14.788 -0.0592 -0.2178  0.0118
19545W        W35619  18.122   4.904   2.478  0.2510  0.2314 -0.0718
19546W        W35620   2.934   0.220   0.006  0.1016  0.2893  0.0343
19547W        W35621   1.996   2.345  15.580 -0.2961  0.2124  0.0888
19548W        W35622   7.516   5.793   0.499  0.0872 -0.3700 -0.0795
19549W        W35623  14.380  11.412  12.069 -0.3852 -0.1383 -0.0351
19550W        W35624  13.053   3.070   1.657  0.0050  0.1214 -0.0408
19551W        W35625   4.877   6.052  11.889 -0.2370 -0.1359  0.1568
19552W        W35626   1.952  18.049   3.280 -0.0556 -0.1524  0.1026
19553W        W35627  10.479   7.013   4.990  0.0141  0.0077  0.1332
19554W        W35628   8.747  13.800  15.342  0.0536  0.1601  0.0710
19555W        W35629   1.862  10.813  11.834 -0.1185 -0.0047 -0.0623
19556W        W35630   0.825  17.739  14.426  0.1127  0.0515  0.0679
19557W        W35631   3.450   8.855  12.587  0.2106  0.1011  0.3860
19558W        W35632  15.255   1.621  16.336  0.1254  0.1904 -0.1353
19559W        W35633   9.680  13.988  11.967  0.0748  0.2231  0.1086
19560W        W35634  14.313  10.582   2.602 -0.0968  0.0584 -0.3507
19561W        W35635  17.291   6.384  11.624 -0.1481  0.1521  0.3275
19562W        W35636   3.156  16.200  14.370  0.0355 -0.1223  0.1978
19563W        W35637   5.674   8.243  13.835 -0.2372  0.1098 -0.2264
19564W        W35638  12.489  10.015   1.463 -0.3084  0.0896  0.1351
19565W        W35639  13.658  16.831  15.981  0.3942 -0.0252 -0.0646
19566W        W35640  15.629   1.238   1.787 -0.1366  0.3887  0.1345
19567W        W35641   7.001   8.403  15.281  0.0263 -0.3322 -0.0308
19568W        W35642   0.329   3.401  13.949 -0.0152 -0.2960  0.1189
19569W        W35643  13.482  11.849  14.034 -0.3608 -0.1919 -0.0771
19570W        W35644  17.662   1.338   2.910  0.0630  0.0099 -0.0789
19571W        W35645  14.358   7.756  14.526  0.2427 -0.1480  0.3951
19572W        W35646   5.898   9.216   1.475 -0.3148 -0.2481  0.1987
19573W        W35647   3.996   3.612   5.877  0.2514  0.0855  0.3753
19574W        W35648   7.718   4.699  15.514  0.0317  0.0601 -0.2844
19575W        W35649  15.150   6.851  15.385  0.0361  0.2255 -0.3933
19576W        W35650  15.786  14.420   3.725  0.1021  0.0019  0.1796
19577W        W35651   0.074   3.811  15.634 -0.0162  0.2572  0.2011
19578W        W35652  11.910   1.086   3.812  0.2693  0.3169 -0.4159
19579W        W35653  12.430   5.337  15.905 -0.0650  0.0964 -0.1799
19580W        W35654   7.141  10.302  12.460  0.4406  0.2806 -0.2584
19581W        W35655   3.740  12.311  16.394 -0.2225  0.0033 -0.0086
19582W        W35656  16.969   0.428   4.354  0.1605  0.3389  0.3891
19583W        W35657  10.845  14.295  12.627  0.1118 -0.0798 -0.1513
19584W        W35658   0.010   2.975   5.483  0.4281 -0.1382 -0.1922
19585W        W35659  15.172   7.976  13.025 -0.1762 -0.1483  0.3935
19586W        W35660   5.410   2.366  16.435 -0.1136  0.1585 -0.0637
19587W        W35661   8.911   1.727  11.759  0.0398 -0.3048 -0.3532
19588W        W35662   9.063   3.860   1.916 -0.1061 -0.1498  0.1872
19589W        W35663  14.437  15.047  12.415 -0.3624  0.2955 -0.0686
19590W        W35664   1.058   8.282   5.094  0.2086 -0.1165  0.1646
19591W        W35665   8.353   1.987  12.970  0.1646 -0.1784 -0.2069
19592W        W35666  13.259   0.383   6.220  0.1984  0.1075 -0.2954
19593W        W35667  15.701   2.865  12.906  0.2168 -0.2171 -0.1336
19594W        W35668  17.462  11.240   5.363  0.0273  0.3098  0.1423
19595W        W35669  17.762  11.994   1.543  0.1248 -0.0741 -0.1707
19596W        W35670   0.052  10.077   5.043  0.3873 -0.1265  0.2318
19597W        W35671   6.091  11.905   4.616 -0.0459  0.0339  0.1214
19598W        W35672  11.673   5.476   1.468 -0.3883 -0.0333 -0.0186
19599W        W35673   4.129   2.795   3.039 -0.0047 -0.2139  0.0988
19600W        W35674  15.657   1.270   1.242 -0.0660  0.1153 -0.0301
19601W        W35675   1.351   0.348   5.322 -0.0726  0.1034 -0.0619
19602W        W35676   0.202   9.932   4.190  0.2227  0.3371 -0.1243
19603W        W35677   6.333  15.427   1.438  0.1118 -0.1778 -0.1145
19604W        W35678   6.354   6.073   4.661  0.1229 -0.1346 -0.1131
19605W        W35679   5.001   6.893  15.918  0.0210  0.2008  0.0894
19606W        W35680   2.999  13.482  11.725 -0.0932 -0.0753  0.1395
19607W        W35681   3.206  15.258   1.704  0.1857 -0.3740  0.0669
19608W        W35682   2.545   2.014   1.434 -0.1992  0.1486 -0.1306
19609W        W35683   9.222  15.613   1.965 -0.0026 -0.1644 -0.2489
19610W        W35684  14.981   3.621  13.039 -0.0195 -0.1695 -0.3068
19611W        W35685   3.713   5.565   0.360  0.1538 -0.2081  0.2723
19612W        W35686   5.874   5.524   5.278  0.2591 -0.2118 -0.0828
19613W        W35687   0.301   1.045  14.190 -0.2862  0.0374 -0.1162
19614W        W35688   1.564   1.285   1.051  0.4771 -0.1483  0.0287
19615W        W35689   8.065   9.331   2.833 -0.0539 -0.4808 -0.0589
19616W        W35690   2.908  15.924  12.916  0.1059  0.0053  0.0656
19617W        W35691   9.028   5.574   2.154  0.1120  0.1186 -0.0490
19618W        W35692   3.419   6.666  16.157 -0.0341  0.2022  0.0679
19619W        W35693   2.398  12.486   2.776  0.3383 -0.1240 -0.1098
19620W        W35694   9.027  10.924  13.613 -0.2347 -0.2425 -0.2411
19621W        W35695   7.819  15.285  11.526  0.0883  0.3598 -0.1357
19622W        W35696  12.719   1.780  14.891  0.0795  0.0735  0.1062
19623W        W35697   9.883   7.938  15.234  0.2103  0.0414  0.3995
19624W        W35698  17.273   5.423   2.497  0.1989 -0.0026  0.2406
19625W        W35699  13.310  14.608   5.816  0.1057  0.1294  0.0649
19626W        W35700   0.043   2.288  13.959  0.2447  0.2160 -0.1517
19627W        W35701  17.407  10.792   5.241  0.2215 -0.3095 -0.2209
19628W        W35702  16.021  14.753   4.751  0.2110 -0.1279 -0.1023
19629W        W35703  16.745   5.717   1.604  0.0814 -0.2225 -0.1171
19630W        W35704  13.434  11.303  13.380 -0.0537 -0.0178  0.1180
19631W        W35705   6.391   3.152   1.778 -0.3253  0.0445  0.1836
19632W        W35706  13.765  15.122  16.111 -0.2867  0.3103 -0.4277
19633W        W35707  13.095   3.788   2.531 -0.1999  0.0218  0.2640
19634W        W35708   4.294  17.623   5.848  0.1916 -0.1135  0.1426
19635W        W35709  15.097   7.585  15.096 -0.1598 -0.2951  0.2284
19636W        W35710  14.445  14.802  14.905 -0.0694  0.1369 -0.1405
19637W        W35711   7.691  15.071   1.609  0.0080  0.1933 -0.0565
19638W        W35712   1.360  13.278  13.319 -0.0552  0.1200  0.2448
19639W        W35713   5.022   6.079   9.929  0.1258 -0.1339 -0.1819
19640W        W35714  13.919  12.820  15.765  0.2276  0.1840 -0.2209
19641W        W35715   3.311  15.853  11.997 -0.0390  0.2524  0.1722
19642W        W35716   4.870  15.285   0.269  0.2409  0.3524 -0.1484
19643W        W35717  12.283   5.105   1.706  0.0319 -0.2500 -0.1624
19644W        W35718  18.139   0.850  14.711  0.2886 -0.0262  0.2170
19645W        W35719   8.121   6.354  13.768 -0.3427  0.1222  0.0670
19646W        W35720  12.122   1.419   1.615  0.3235 -0.2432  0.1220
19647W        W35721   0.163   8.814   5.255 -0.0054  0.1232  0.0709
19648W        W35722  10.888  15.402  13.198  0.1018  0.1903  0.3336
19649W        W35723   9.057  13.913   4.713  0.0326  0.2699 -0.0132
19650W        W35724  10.081  14.782  12.271 -0.0256 -0.2627  0.0904
19651W        W35725   1.439   5.927   2.112  0.0061  0.2110  0.1054
19652W        W35726   8.061   0.723   3.893 -0.1792 -0.2340  0.0492
19653W        W35727   1.694   0.543   1.735 -0.1651 -0.0386 -0.0408
19654W        W35728  13.421   7.687  14.295 -0.2046 -0.0535 -0.0335
19655W        W35729   1.068  14.518   1.319  0.1279 -0.1898 -0.0392
19656W        W35730  18.182   7.829  15.290 -0.1246  0.1168  0.1446
19657W        W35731   6.505  12.015   3.778 -0.1891  0.0953  0.1231
19658W        W35732  16.657   2.522   3.256 -0.2558 -0.0773  0.0226
19659W        W35733  15.455  12.678   0.545  0.1257 -0.0195  0.0277
19660W        W35734   6.475  10.346  15.917  0.1105  0.3196 -0.0086
19661W        W35735   3.834   3.519  14.833 -0.3730  0.0081  0.0855
19662W        W35736  15.956   6.309   4.799  0.0590  0.0616  0.6742
19663W        W35737   5.125  16.194   4.411 -0.2969  0.1391  0.1306
19664W        W35738   6.447  13.998   5.601  0.1557  0.1434 -0.1000
19665W        W35739   9.232   4.837   5.007 -0.2013  0.1829  0.1727
19666W        W35740  12.709   1.841  13.956  0.2155 -0.3264 -0.1022
19667W        W35741  13.568   8.100   2.945  0.1844 -0.0705 -0.1748
19668W        W35742   3.066  14.958  13.196 -0.2882  0.0985 -0.0393
19669W        W35743   7.598   4.890   1.329  0.1135  0.1551 -0.1155
19670W        W35744   7.350  17.305  14.972 -0.1441  0.3448 -0.1242
19671W        W35745   5.829  17.690   0.333  0.0394  0.2259 -0.2372
19672W        W35746   6.335  13.758  14.226 -0.0627 -0.3903  0.0902
19673W        W35747  17.473   3.398  15.113 -0.1500 -0.2077 -0.1178
19674W        W35748  10.601   3.748  10.722 -0.1544 -0.0259  0.1897
19675W        W35749   3.866   5.392  12.596 -0.2079 -0.0808  0.2225
19676W        W35750  10.637   9.297   0.699 -0.3663  0.2424  0.2608
19677W        W35751  15.193  12.406  14.545 -0.1448  0.1830  0.1049
19678W        W35752   8.708   7.301  11.925 -0.2470  0.0656 -0.1774
19679W        W35753   6.596   2.191   6.639 -0.0592 -0.0647 -0.2203
19680W        W35754   2.054  10.094   3.146 -0.3074  0.1014  0.1296
19681W        W35755   2.445  13.473  14.498 -0.3008 -0.1070 -0.5146
19682W        W35756   4.147   0.050   1.757  0.1276  0.1271  0.2061
19683W        W35757   5.964  14.810   4.019 -0.0886 -0.0175 -0.1202
19684W        W35758   6.737   4.882  11.733 -0.2836 -0.2347 -0.0011
19685W        W35759   9.392   0.992  12.685  0.1608 -0.2414 -0.1584
19686W        W35760  17.863   1.658   1.172  0.0693  0.1473  0.0335
19687W        W35761   6.689  12.141   2.814 -0.0019 -0.1449  0.2131
19688W        W35762  11.091   7.363   6.113  0.0782 -0.2386 -0.0236
19689W        W35763   1.838   4.397  13.414 -0.1014 -0.1194  0.1023
19690W        W35764  10.633   8.355   3.054 -0.2587 -0.3489  0.0403
19691W        W35765  15.948  16.723  13.872  0.0734 -0.0219  0.0678
19692W        W35766  10.056   0.439  14.699  0.2174  0.1291  0.1629
19693W        W35767  13.220   8.305  11.801 -0.0531 -0.0432  0.1810
19694W        W35768   4.993  15.579  15.236 -0.2804 -0.0969 -0.0223
19695W        W35769   4.641  17.082  13.932  0.0140  0.0704 -0.3434
19696W        W35770   8.000   4.370   0.460  0.0995 -0.2995 -0.0355
19697W        W35771   3.188   8.684  11.814  0.1190  0.0448  0.0690
19698W        W35772   6.798   6.219  11.862  0.2153  0.1578 -0.0086
19699W        W35773   8.599   4.544   0.964 -0.1540 -0.0124  0.4813
19700W        W35774   9.105  10.973   2.137  0.1755 -0.3235  0.3158
19701W        W35775  16.662   4.046   1.303 -0.2482 -0.2776  0.0082
19702W        W35776  16.466   5.086  13.420  0.0595 -0.0610  0.0319
19703W        W35777  12.998  11.527  14.702  0.0070 -0.0591  0.0592
19704W        W35778  11.278   3.319  15.834  0.4762 -0.2317  0.1350
19705W        W35779   9.287   7.113   1.188  0.0567  0.2301  0.2991
19706W        W35780  13.727   3.119   3.374 -0.1746  0.0029  0.2779
19707W        W35781   8.162   3.830   3.118 -0.3222  0.1248  0.3500
19708W        W35782  16.008  13.622  13.781 -0.1650 -0.1528 -0.5463
19709W        W35783  12.059  16.950  15.397 -0.2101 -0.2187 -0.1136
19710W        W35784  17.132  14.623  11.198 -0.2303  0.0861 -0.0357
19711W        W35785   2.718  13.235   1.991  0.0716  0.2515 -0.2605
19712W        W35786  17.439   7.010  12.339  0.1022  0.0999  0.0178
19713W        W35787   7.316  12.186  16.491  0.2969 -0.0246  0.4082
19714W        W35788  15.175  12.732  12.556  0.0542  0.2279 -0.1294
19715W        W35789  17.086  11.964  12.687  0.2409 -0.2112  0.2082
19716W        W35790  13.199  13.513  14.607 -0.0417  0.0073  0.1668
19717W        W35791   2.732  10.439   2.693 -0.2328  0.2230 -0.1520
19718W        W35792  15.312   5.216  13.565 -0.0627  0.1508  0.0030
19719W        W35793  12.805   2.946  15.825  0.2992  0.5154 -0.1019
19720W        W35794   2.977   2.288  15.044  0.0284 -0.3172 -0.2721
19721W        W35795   9.854   8.349   2.438 -0.0990  0.2411 -0.2970
19722W        W35796   4.783   0.202  14.845  0.0096  0.3055  0.1640
19723W        W35797   0.172  18.071   4.439  0.1170 -0.0952  0.0245
19724W        W35798   7.153   5.179  11.849  0.3687  0.4088  0.1738
19725W        W35799  11.464   3.248  15.387 -0.2696  0.1720  0.1237
19726W        W35800  10.527   6.247  16.088 -0.1380 -0.3930  0.0522
19727W        W35801  15.574  16.492   0.186 -0.2164 -0.0374  0.2026
19728W        W35802  10.404  15.848  13.954  0.1554  0.1360  0.2737
19729W        W35803   0.120   0.105   3.909 -0.0548 -0.1270  0.1045
19730W        W35804   2.321  15.933   0.032  0.2004  0.1522  0.2619
19731W        W35805  17.922  13.624   1.992  0.4532  0.2037  0.0596
19732W        W35806  12.593   6.687  15.665 -0.1233 -0.4909 -0.4157
19733W        W35807   7.270   9.558   4.580 -0.1605 -0.0068  0.0894
19734W        W35808   5.317  14.676  13.638 -0.1541  0.4455 -0.1736
19735W        W35809   5.465   6.219  13.308  0.2519  0.1330 -0.0701
19736W        W35810   5.380   1.558   0.984  0.1232 -0.2570 -0.2041
19737W        W35811   9.277  12.276   2.492  0.2095  0.1532 -0.3036
19738W        W35812   2.823  13.665   4.234 -0.0038  0.0983  0.0674
19739W        W35813  13.792  14.646   5.212  0.0358  0.0713  0.1839
19740W        W35814   3.685  14.997  11.962  0.0059  0.0115  0.0915
19741W        W35815  13.601   1.745  14.236 -0.2503  0.0877 -0.2038
19742W        W35816  12.671  14.183   1.733 -0.0823 -0.0430  0.3337
19743W        W35817  12.901   7.245   0.783 -0.1778  0.1000 -0.0845
19744W        W35818  17.567  17.523   3.732 -0.1355  0.0718 -0.1579
19745W        W35819   4.186   3.090  12.929 -0.1202 -0.3324 -0.4002
19746W        W35820   1.885   7.336   2.457  0.0882  0.1789  0.1298
19747W        W35821  17.641  11.943  12.654  0.2693  0.1785 -0.1179
19748W        W35822  14.909   7.790   2.388  0.1333 -0.3800 -0.1488
19749W        W35823   7.614  13.441   3.162  0.1432 -0.3843  0.1137
19750W        W35824  12.994   8.960   2.698  0.2352 -0.0142 -0.2269
19751W        W35825  12.829  13.548  13.200 -0.0026  0.0643  0.1647
19752W        W35826   1.647   6.052  13.828 -0.2673  0.0034  0.1007
19753W        W35827   2.007   0.662  13.679 -0.3036 -0.1368  0.0340
19754W        W35828  17.929   7.436   1.745  0.1689  0.0137 -0.1634
19755W        W35829  10.616  12.961   3.110  0.1222 -0.0642 -0.0534
19756W        W35830  12.637   8.967  15.654  0.1921 -0.2327  0.0659
19757W        W35831   1.103   0.830  14.820  0.1021  0.0348 -0.1270
19758W        W35832  10.992   1.170  15.011  0.0926  0.0080  0.1241
19759W        W35833   5.388  10.563   4.153 -0.0461  0.1282 -0.3054
19760W        W35834  11.276  16.843   3.936  0.0783  0.2086  0.1429
19761W        W35835  11.008  11.062   2.771 -0.0000  0.2927 -0.1580
19762W        W35836   2.382   9.220  16.162 -0.0500  0.2925  0.1635
19763W        W35837   3.526  15.768  12.527  0.1198 -0.0136  0.1495
19764W        W35838   0.434   0.474   5.734 -0.1394  0.2458 -0.0303
19765W        W35839   7.067   2.609   3.867 -0.0460  0.2002 -0.3390
19766W        W35840  10.534   6.900   0.775 -0.0271 -0.1578 -0.1607
19767W        W35841  16.752  13.691   0.370  0.0892  0.0396 -0.0051
19768W        W35842   0.744   6.867   3.106  0.0798 -0.1289 -0.0106
19769W        W35843   8.897   2.533   6.181  0.2187  0.0607  0.0201
19770W        W35844   7.007   7.100   0.721 -0.0252 -0.1921  0.1567
19771W        W35845   4.951   8.307   2.045 -0.0081  0.0970 -0.0400
19772W        W35846   8.090   8.908  11.059 -0.1543  0.1982 -0.1644
19773W        W35847   8.769   2.875   1.710  0.4357 -0.2013 -0.5167
19774W        W35848  11.166   2.302   5.611  0.0496  0.0686 -0.0205
19775W        W35849   0.508   2.928   5.345  0.1074 -0.1954  0.3181
19776W        W35850   4.539   8.649  11.372 -0.4687 -0.1378  0.0147
19777W        W35851  16.575   4.387   5.879 -0.2389  0.0143  0.2747
19778W        W35852   6.094  17.139  16.391 -0.0389 -0.0905 -0.0902
19779W        W35853  15.169   4.232   3.988 -0.0778 -0.1887  0.3387
19780W        W35854   7.384  17.440   3.664  0.0333  0.0759  0.2988
19781W        W35855  18.025  15.927   3.884 -0.1575 -0.0085 -0.1106
19782W        W35856  17.635  13.343   5.517  0.2072 -0.2225  0.0497
19783W        W35857   2.099   8.242   2.439  0.0753 -0.0133 -0.1551
19784W        W35858  15.897   9.845  14.908  0.0108 -0.1357 -0.3698
19785W        W35859  11.585  12.585   2.722 -0.1473  0.3479  0.0675
19786W        W35860  11.553   4.869  14.748 -0.1317 -0.1734  0.0726
19787W        W35861  16.906   3.626  13.315  0.0182  0.2971 -0.0721
19788W        W35862  16.618   8.285  14.757 -0.1530  0.0006  0.0476
19789W        W35863   4.383  18.077   6.112 -0.0625  0.2190 -0.1336
19790W        W35864   5.789  15.398   4.254  0.1896 -0.1941 -0.0845
19791W        W35865  16.539  14.852   6.058  0.0751  0.0523 -0.1852
19792W        W35866   1.677  17.810   5.482  0.1104  0.0198 -0.1015
19793W        W35867   0.454   7.480   5.277  0.3836  0.0298 -0.1269
19794W        W35868  11.236   1.769  13.659 -0.3571  0.0716 -0.0355
19795W        W35869   5.288  13.431  16.386  0.1323  0.0666 -0.2327
19796W        W35870   8.130   9.006   1.060 -0.1370  0.1401  0.1266
19797W        W35871   7.499   7.948  16.229  0.0039 -0.1560 -0.1743
19798W        W35872  10.781   3.786   1.287 -0.1322 -0.0965  0.1978
19799W        W35873   0.859   3.134   4.906 -0.0268 -0.0329  0.1914
19800W        W35874  13.680   6.526   2.690 -0.2579  0.3336  0.0913
19801W        W35875  12.003  12.522  12.988 -0.2005 -0.0628 -0.3110
19802W        W35876  18.154  10.889   0.961 -0.0834 -0.0966 -0.1382
19803W        W35877   3.218  13.809  13.272  0.1265  0.1579  0.0777
19804W        W35878   8.085   9.539   1.543  0.1285  0.0381  0.2821
19805W        W35879  17.402  15.983  15.756 -0.3356  0.1946 -0.2372
19806W        W35880  16.252   8.110   3.098  0.1585  0.0320  0.0059
19807W        W35881  15.572   3.664  16.352 -0.3216 -0.1117  0.2859
19808W        W35882   6.524  15.514   5.293  0.2378 -0.4394  0.0718
19809W        W35883   8.204   0.697  11.963  0.1917  0.2465  0.3373
19810W        W35884   1.070   1.993   4.422  0.0772  0.0735 -0.0725
19811W        W35885   1.995  10.846  13.001 -0.0497  0.1589 -0.1871
19812W        W35886   5.373   2.733   4.541  0.1046 -0.0972  0.3650
19813W        W35887  15.502  11.988  12.430 -0.0023  0.4231  0.1341
19814W        W35888   2.164   0.217   3.065 -0.4048 -0.0525 -0.1731
19815W        W35889  16.017  16.993  15.168  0.0848  0.1867  0.2554
19816W        W35890   7.663   2.608  12.461  0.1313 -0.2880 -0.1657
19817W        W35891   2.903   8.810  15.294  0.2028 -0.1131  0.4727
19818W        W35892   2.418   9.402   4.935 -0.1002 -0.0145  0.1204
19819W        W35893   0.335  17.576   3.202  0.2086 -0.2630 -0.0185
19820W        W35894  13.436  16.075   2.631 -0.3198  0.0428  0.1087
19821W        W35895   9.365   4.158  11.961 -0.1868 -0.2626  0.1475
19822W        W35896   7.974   4.914   2.299  0.1153 -0.1328  0.1075
19823W        W35897  17.273  14.896   3.332  0.1367  0.0540 -0.0105
19824W        W35898  16.042   2.968  11.462  0.0975 -0.0177  0.0046
19825W        W35899  10.082  15.944  13.602  0.3055 -0.2663  0.0687
19826W        W35900  10.615   6.102  11.684  0.3386 -0.0553 -0.2209
19827W        W35901  10.119   6.581  13.957  0.5767  0.1400  0.0085
19828W        W35902   0.708   7.058  13.773  0.0421  0.0268 -0.1203
19829W        W35903   0.103  16.086  15.191  0.1009 -0.2968  0.0332
19830W        W35904   1.990   7.737  13.285  0.1363  0.1416 -0.0919
19831W        W35905  11.625  15.057  11.213  0.2507  0.1169  0.1088
19832W        W35906  17.384   8.801   3.187 -0.2016  0.2495  0.1592
19833W        W35907  16.380  15.185  10.929  0.0573  0.0328 -0.3559
19834W        W35908   1.096   5.821   4.648 -0.0731  0.0237 -0.1153
19835W        W35909   9.584   3.148   1.522  0.1178  0.1703  0.0652
19836W        W35910  16.815  17.696  14.474  0.1661  0.0892 -0.3879
19837W        W35911  11.964  13.976   0.570 -0.0653 -0.2832 -0.3613
19838W        W35912   6.245   0.287  12.787 -0.0026 -0.0847  0.2619
19839W        W35913   3.332  12.476  15.635  0.0874 -0.0029 -0.2264
19840W        W35914   5.109   5.434   1.505 -0.1964 -0.3413 -0.3480
19841W        W35915  15.603   3.125  15.042 -0.0747  0.1728 -0.0614
19842W        W35916  13.651   0.296  12.415  0.1840  0.0761  0.2787
19843W        W35917   8.502  14.841   4.139  0.1094 -0.0813 -0.1842
19844W        W35918   9.525   3.927   2.161 -0.2405 -0.2199  0.2770
19845W        W35919   8.847  12.011  16.215 -0.2400 -0.0695  0.0688
19846W        W35920   1.455  10.802   0.315  0.2284  0.1187 -0.0219
19847W        W35921  12.891  13.405  15.425  0.1725  0.1340 -0.2169
19848W        W35922  10.785   2.454   2.542 -0.0009 -0.2578  0.1355
19849W        W35923   1.801  17.036  15.634  0.2722  0.2363  0.2071
19850W        W35924  16.393  11.969  16.034 -0.2048  0.0534  0.5005
19851W        W35925  17.644  12.092   5.416  0.2308 -0.0263 -0.3005
19852W        W35926  11.848  12.158   2.617 -0.2458  0.1882  0.3207
19853W        W35927   5.745   5.833   2.598  0.2198  0.0561 -0.0559
19854W        W35928  13.811   5.086  16.256  0.0085  0.0528  0.1033
19855W        W35929   3.564  13.319  15.089  0.0571  0.2206 -0.1612
19856W        W35930   0.950   5.154   3.817  0.0027 -0.3540 -0.0109
19857W        W35931   2.823  10.797   0.414  0.3234  0.1312 -0.2685
19858W        W35932   1.631  10.577   4.435  0.0614 -0.0751 -0.1116
19859W        W35933   4.052  14.222   4.441  0.1999  0.1566  0.3603
19860W        W35934  17.453   8.088   1.167 -0.2433 -0.3139 -0.2244
19861W        W35935   8.022  14.097  15.538  0.5626  0.1679  0.0838
19862W        W35936   5.508   0.857  15.930 -0.0143  0.1789  0.1917
19863W        W35937  17.191   1.358  13.861 -0.1165  0.2168 -0.5183
19864W        W35938   5.773  12.350   3.128 -0.0448  0.2638  0.1029
19865W        W35939   6.113   1.220   0.563  0.2893 -0.3101 -0.1758
19866W        W35940   5.836   8.002  15.670 -0.0633 -0.2936 -0.3607
19867W        W35941   0.483   8.112   1.683 -0.1034 -0.2515  0.0017
19868W        W35942   3.387  13.414   2.529  0.1957 -0.1461  0.3113
19869W        W35943   1.364   7.008  13.259  0.1118 -0.0643 -0.1885
19870W        W35944   1.260   7.033   0.100  0.0986 -0.0142 -0.0438
19871W        W35945   6.937   2.643   5.517 -0.1627 -0.1029 -0.0016
19872W        W35946  14.087  17.051  15.972  0.2779 -0.0902  0.1934
19873W        W35947   5.738  14.083   4.952 -0.3458 -0.1543 -0.0659
19874W        W35948  13.284   8.681   3.752  0.1604 -0.1405  0.0860
19875W        W35949   2.791   6.952   2.238  0.1458  0.2023  0.0017
19876W        W35950   4.278   8.943  16.054  0.3095 -0.1478  0.1949
19877W        W35951  17.975   7.944   1.579  0.0453  0.1529 -0.0635
19878W        W35952  12.008  15.759  15.843  0.3174  0.1075  0.3464
19879W        W35953  17.575   3.206   4.520 -0.2068  0.1222 -0.0234
19880W        W35954   3.497   0.971   3.127 -0.0812 -0.1870  0.0689
19881W        W35955  17.216   1.506  15.031  0.0616  0.0478 -0.3240
19882W        W35956  14.461   4.998   3.177 -0.1023 -0.0713 -0.0968
19883W        W35957  14.424  10.027   1.261  0.2105  0.1559 -0.0154
19884W        W35958   1.298  17.707  12.224  0.0061  0.3498 -0.1644
19885W        W35959  16.272   0.081   4.674 -0.1886  0.2323 -0.2329
19886W        W35960   6.089   9.417   3.486 -0.1447 -0.1023  0.0006
19887W        W35961  17.532   8.712  14.190  0.3206 -0.2765 -0.4637
19888W        W35962  15.429   0.176   3.624 -0.2050 -0.0231  0.2269
19889W        W35963  14.221  18.200   1.543 -0.2722  0.1457 -0.0034
19890W        W35964  17.714   5.535  14.515  0.2117 -0.2760 -0.0170
19891W        W35965  10.595  11.193   0.137 -0.1799  0.0136 -0.2039
19892W        W35966  14.171   1.738   3.945  0.3785  0.1340  0.2734
19893W        W35967   3.979   4.768   9.945  0.1401  0.3400  0.0884
19894W        W35968   5.060   1.315   3.273  0.2323  0.1344  0.0534
19895W        W35969  13.847  16.296  13.093  0.0151 -0.0343  0.1747
19896W        W35970  14.526   7.679  16.461  0.1800  0.0360 -0.1773
19897W        W35971   4.752   2.252  14.707 -0.3184 -0.1250 -0.0198
19898W        W35972   3.442   0.810  14.781  0.2327 -0.0990  0.3965
19899W        W35973  11.993   0.880  14.389  0.0748  0.0805  0.1966
19900W        W35974  12.896   8.485  13.194 -0.0104  0.1096  0.4143
19901W        W35975   1.631   6.143   0.078  0.2295 -0.1313 -0.1770
19902W        W35976  17.958   9.746   3.278  0.0534 -0.0764  0.1093
19903W        W35977  10.786   1.067  12.163 -0.2247  0.3756 -0.2166
19904W        W35978   6.098   0.444  14.313  0.3027  0.1012 -0.0637
19905W        W35979  16.633   9.982  13.724 -0.3324  0.0788 -0.0020
19906W        W35980   8.825  15.149   2.290  0.0758 -0.1131 -0.2258
19907W        W35981  13.053  16.710   5.539  0.0888  0.0937  0.1845
19908W        W35982   8.179  13.476   4.995  0.3121  0.1434 -0.0102
19909W        W35983  11.690  13.208  16.036 -0.0715 -0.4197 -0.0191
19910W        W35984   5.049   6.053  13.731  0.1364  0.1946 -0.3167
19911W        W35985   7.550   2.330   1.929  0.0163 -0.2799 -0.0634
19912W        W35986  11.103   0.181   4.344  0.0999  0.2117 -0.2436
19913W        W35987  18.062   8.458   0.373 -0.0982  0.1314 -0.0584
19914W        W35988  12.130   6.860  15.480 -0.0093 -0.2255  0.2258
19915W        W35989  17.143  15.926  10.955  0.2972  0.1839  0.1340
19916W        W35990   1.931   8.678   3.068  0.1610 -0.2425  0.1939
19917W        W35991  11.726  11.020  13.526  0.0998 -0.0895  0.0212
19918W        W35992  13.395  15.505   4.715  0.2477 -0.1902 -0.0736
19919W        W35993   5.513  13.003   4.073  0.2149  0.1503 -0.0951
19920W        W35994   8.370  13.768  11.726 -0.2616  0.2860 -0.1764
19921W        W35995  17.889  15.306  14.851 -0.0426  0.1383 -0.2105
19922W        W35996  15.502  16.125   5.048  0.3033  0.0921  0.2098
19923W        W35997  12.527   6.199   0.276 -0.0259  0.1311 -0.4305
19924W        W35998  15.472  17.204   2.322  0.3022  0.0047 -0.0352
19925W        W35999  11.791  13.256  15.135 -0.1641 -0.0405  0.0717
19926W        W36000   0.064  14.409   1.836 -0.1851 -0.0642 -0.1310
19927W        W36001   8.109   3.886  14.425 -0.0644  0.0482 -0.0344
19928W        W36002   3.938  10.382  14.415 -0.0543  0.1273 -0.1201
19929W        W36003   2.435   7.806  15.073  0.0452 -0.4390  0.2895
19930W        W36004  13.269  13.129   3.551  0.0991  0.0253  0.2239
19931W        W36005  10.990  12.871  14.488  0.0483 -0.3498  0.0478
19932W        W36006   7.844   9.215  11.798 -0.0550  0.3049 -0.2172
19933W        W36007  13.460   4.515   3.057 -0.1079 -0.4121  0.0853
19934W        W36008   0.740  12.889  14.472 -0.1461  0.1286 -0.0976
19935W        W36009   5.340   0.428  13.309  0.1073  0.0714 -0.0086
19936W        W36010   6.438  10.324  14.634 -0.0486 -0.4368  0.0623
19937W        W36011  13.336   9.544  15.338  0.1746  0.1072 -0.0141
19938W        W36012   7.373   9.086  11.746 -0.0517 -0.0217 -0.0508
19939W        W36013   0.626   6.906  13.275  0.0339  0.1254  0.1637
19940W        W36014   7.286   5.502  12.266  0.1941 -0.0521  0.2269
19941W        W36015  16.246  17.896   1.936  0.0709 -0.2539  0.1725
19942W        W36016  11.075   1.408   6.197 -0.0914  0.2342 -0.0541
19943W        W36017  10.022   9.606   0.045 -0.2942  0.4759  0.1113
19944W        W36018  13.152   8.795   5.109  0.1996  0.2674  0.0058
19945W        W36019   1.746   9.189   0.537 -0.3162  0.1307  0.0856
19946W        W36020   9.329  15.151   2.235  0.4115  0.1973 -0.1759
19947W        W36021   9.351   6.133   1.341  0.0629  0.0262  0.0237
19948W        W36022  14.869   0.456   5.829  0.0522  0.2267  0.1449
19949W        W36023  13.765   4.300   1.894 -0.0557  0.1364  0.0892
19950W        W36024   3.764  13.080  14.554 -0.0333 -0.1633  0.0814
19951W        W36025  16.620   5.830   5.092  0.2317  0.0369 -0.0486
19952W        W36026  15.959   2.633  14.987 -0.0685  0.0014  0.1241
19953W        W36027  16.875   6.845   2.292  0.2433  0.3054  0.3212
19954W        W36028  14.856  13.653  12.488  0.3180 -0.0905  0.1644
19955W        W36029   3.255  10.875  14.726  0.0397 -0.2461 -0.0103
19956W        W36030   1.924   5.826   3.034  0.3135 -0.3069 -0.2697
19957W        W36031  12.200   4.494  14.213  0.1804  0.0226  0.4133
19958W        W36032   3.917  13.597  15.258  0.2776 -0.2135  0.2046
19959W        W36033   3.040  15.595   1.235  0.0001  0.0593  0.2940
19960W        W36034  14.192  13.356   3.981 -0.1394  0.1126  0.0946
19961W        W36035  16.703   7.582   1.679  0.1202  0.2785  0.1651
19962W        W36036  13.010  16.415   0.845 -0.0100 -0.0312 -0.0472
19963W        W36037  13.527  10.742   1.125  0.1970 -0.1614  0.2709
19964W        W36038   5.735   5.499  12.825 -0.1062 -0.0899 -0.2183
19965W        W36039  17.135   3.888  12.567 -0.1885 -0.1017 -0.1008
19966W        W36040  11.384   4.403   5.609 -0.1332 -0.0746 -0.1878
19967W        W36041   1.168  11.530  12.510 -0.2451  0.2364 -0.3004
19968W        W36042  17.155   0.032  13.281  0.0433  0.1848 -0.1271
19969W        W36043  12.561   1.630  14.391  0.0712  0.0521  0.0605
19970W        W36044   9.234  17.284   4.909  0.1058  0.0142  0.2507
19971W        W36045  13.706   4.380  14.961  0.0005 -0.0226  0.0005
19972W        W36046  15.963   4.150   2.040  0.2579 -0.0586  0.0681
19973W        W36047  13.729  11.326  15.312  0.2113  0.1981  0.1044
19974W        W36048   6.290   5.859   3.393 -0.1197  0.0491  0.0255
19975W        W36049  11.739   2.848   5.142 -0.1497  0.1003  0.0799
19976W        W36050   5.912   4.516  10.406  0.1637  0.0908 -0.3458
19977W        W36051  16.082   6.943   1.933  0.0641  0.0817 -0.1029
19978W        W36052  10.066  17.970  14.375  0.1157  0.1380  0.0989
19979W        W36053   9.771   5.790   4.986 -0.0594  0.3619  0.0234
19980W        W36054   1.985  13.231  13.391 -0.2809  0.0367 -0.0207
19981W        W36055   4.210  16.222  12.930 -0.1849 -0.1503  0.1930
19982W        W36056   0.140   4.162  14.615 -0.2731 -0.4350  0.2325
19983W        W36057  17.624   8.943   2.366 -0.0176 -0.4443 -0.0922
19984W        W36058  10.416  10.755  11.850  0.0096  0.1270  0.3741
19985W        W36059  18.225   3.557  12.467  0.0059 -0.1662  0.1081
19986W        W36060  15.668  15.832  14.210 -0.1575 -0.3261 -0.0694
19987W        W36061  12.818  10.487  12.414  0.1334  0.1977 -0.2176
19988W        W36062   0.521  14.383  11.436 -0.0525  0.1747 -0.1420
19989W        W36063   9.984  15.619  14.824  0.0614  0.2161  0.1898
19990W        W36064  12.977  12.550  15.044 -0.0645  0.4930  0.1321
19991W        W36065  11.696  12.685   5.802  0.2465  0.0520 -0.1494
19992W        W36066   3.381   1.526   0.543  0.2252  0.1848 -0.1589
19993W        W36067  17.179   7.332  11.660  0.1659  0.0030 -0.2421
19994W        W36068   4.363   1.049   2.047 -0.0089  0.2591 -0.0495
19995W        W36069   3.811   4.502  13.709  0.0862  0.0686 -0.0224
19996W        W36070   8.202   0.097   3.687 -0.0810  0.3081  0.2167
19997W        W36071   0.817  14.245   4.871  0.0019  0.2356  0.2943
19998W        W36072   7.441   2.264   5.570  0.3102 -0.0462 -0.0691
19999W        W36073   9.531  12.819   3.493 -0.1277 -0.1673  0.1909
20000W        W36074   2.240  13.037  15.309  0.0122 -0.1241  0.1617
20001W        W36075   6.694  15.653   2.729  0.0563  0.1673 -0.1505
20002W        W36076  11.634  11.039   4.817 -0.1380  0.0868 -0.0220
20003W        W36077  16.525  13.953  16.484 -0.3154 -0.0071 -0.1241
20004W        W36078   4.507   7.650   1.581 -0.2388  0.0394 -0.0888
20005W        W36079   2.820   9.985  13.444  0.2110 -0.1925  0.0300
20006W        W36080  15.509   9.102  13.548 -0.2240  0.1055 -0.0663
20007W        W36081  17.311  15.954   2.323 -0.0192  0.4156  0.3271
20008W        W36082   4.783  14.232   0.389 -0.2039  0.0243 -0.1668
20009W        W36083  15.412  11.080  10.115 -0.0350 -0.3664 -0.2011
20010W        W36084   0.778  15.211  12.566 -0.2732 -0.0662 -0.2210
20011W        W36085  17.179  15.315  13.156  0.3474 -0.0541 -0.0622
20012W        W36086  11.481   1.310  13.779 -0.1863  0.0990  0.1489
20013W        W36087   6.772  11.100   5.009 -0.0079  0.0421  0.2230
20014W        W36088  11.052  15.398  14.995 -0.0099  0.0458 -0.2844
20015W        W36089   7.648   5.012   1.932  0.0898  0.2057 -0.1397
20016W        W36090  15.458   1.494  12.037  0.2290 -0.1972 -0.1152
20017W        W36091   7.730   2.669   5.379  0.1800  0.0707  0.2475
20018W        W36092   5.590  14.872   2.167  0.1325  0.2977 -0.3732
20019W        W36093   3.448  18.233  14.580  0.0580 -0.3196 -0.0064
20020W        W36094  11.008  18.088  16.286 -0.1503 -0.1155  0.1314
20021W        W36095   7.401  10.802  15.041 -0.3567  0.1435 -0.1296
20022W        W36096   5.119  12.505   0.166  0.0176 -0.1152  0.2485
20023W        W36097  14.608   8.153  11.604 -0.2910  0.3845  0.2504
20024W        W36098  16.357   8.016   4.337  0.2265 -0.1526 -0.0981
20025W        W36099   7.355  13.556  11.667 -0.1235 -0.8165  0.2942
20026W        W36100   8.911  10.004  11.329  0.0059 -0.0431 -0.1414
20027W        W36101  14.286   9.082  15.059  0.1390  0.0600 -0.2987
20028W        W36102   2.876  10.833   3.894 -0.4338 -0.0393  0.0637
20029W        W36103   0.963  17.046  13.020 -0.0472  0.4768 -0.0271
20030W        W36104  17.489   4.644   5.512 -0.2354  0.0234  0.0623
20031W        W36105   1.224   4.120  15.091  0.0292  0.0197  0.0186
20032W        W36106  10.662  17.412   0.412 -0.1711 -0.1497  0.0758
20033W        W36107   1.754   2.356   2.615 -0.3751 -0.0097 -0.0214
20034W        W36108  14.954   6.909  13.013  0.0141 -0.0453 -0.0914
20035W        W36109   2.604   9.015  15.614 -0.1493 -0.1141  0.1688
20036W        W36110  11.703  13.901   0.020  0.6048 -0.0996 -0.1022
20037W        W36111  16.537  13.818  11.506 -0.1683  0.0431 -0.0544
20038W        W36112  11.202   2.540   3.932  0.0530 -0.1622 -0.1457
20039W        W36113   5.804  10.636  14.505 -0.1042  0.1255 -0.3384
20040W        W36114   0.080  16.931  16.286  0.3753 -0.2041 -0.1144
20041W        W36115   6.822  10.887  16.473  0.2686 -0.1142 -0.4838
20042W        W36116  15.398   6.084  12.610 -0.4634 -0.0456 -0.2988
20043W        W36117  10.008  17.877  11.798 -0.2014 -0.0050 -0.1551
20044W        W36118  15.364  10.752  13.362 -0.2015 -0.0863  0.1192
20045W        W36119   1.969   3.466   3.402 -0.0645 -0.0695 -0.0654
20046W        W36120   3.436   6.249   2.056 -0.0598 -0.0184 -0.0365
20047W        W36121   4.854  14.468  11.867 -0.1942 -0.3483  0.1462
20048W        W36122   9.298   8.028  16.308 -0.2019  0.1731  0.0174
20049W        W36123   0.348   2.003   2.154  0.0436  0.3444 -0.0006
20050W        W36124   6.318   5.251   4.003  0.1431  0.0717  0.2782
20051W        W36125  16.055   5.064  12.406 -0.0616 -0.0807 -0.1776
20052W        W36126   6.646   7.775  11.464 -0.0545  0.0807 -0.0371
20053W        W36127   2.956   9.593   2.509  0.0562 -0.0318  0.1793
20054W        W36128  13.144  11.768  12.765  0.0121 -0.1247 -0.1075
20055W        W36129   8.204   5.036  16.328  0.0611 -0.1160  0.0569
20056W        W36130  10.987  12.997   6.703 -0.0404 -0.0840 -0.0117
20057W        W36131   8.497  17.664   4.429 -0.0719 -0.2091  0.1231
20058W        W36132   4.469   9.246   3.558 -0.1212  0.1745 -0.0773
20059W        W36133  12.436   5.187   5.020 -0.2031 -0.1005  0.0618
20060W        W36134   0.161   9.987   3.357 -0.1906 -0.2432  0.2192
20061W        W36135  14.988  11.348  15.765  0.1239  0.2143  0.0746
20062W        W36136   1.595  11.155   4.481  0.0068  0.1918 -0.0303
20063W        W36137  15.928  17.752  16.432 -0.1642  0.1763  0.2537
20064W        W36138  17.053  10.091   2.880  0.1776 -0.0573  0.1061
20065W        W36139  17.992  15.103   4.526 -0.1527 -0.0432 -0.0761
20066W        W36140   9.186  17.933  12.726  0.0471 -0.1234  0.0323
20067W        W36141  11.087   5.272   5.343  0.3640 -0.1525  0.0028
20068W        W36142   8.247   5.204   3.592 -0.2857 -0.1872  0.1155
20069W        W36143   1.823   6.568  14.667 -0.2404 -0.0613  0.3407
20070W        W36144  17.333   8.508   0.780 -0.1037 -0.0645  0.1267
20071W        W36145  11.136   3.103   2.377 -0.2165  0.2271 -0.0136
20072W        W36146   0.509   4.560  12.881 -0.0047  0.2331  0.1085
20073W        W36147   7.583  10.584   1.181 -0.3612  0.1347 -0.0151
20074W        W36148   4.109  12.054   4.874  0.0612 -0.0109  0.0760
20075W        W36149   7.906  14.432  15.129 -0.1341  0.0337  0.3396
20076W        W36150  13.241   4.034   5.790  0.1639 -0.2054 -0.2150
20077W        W36151   8.913  12.181  15.649 -0.2655 -0.0393 -0.3088
20078W        W36152  17.262   0.705  15.224 -0.0709 -0.0847  0.1204
20079W        W36153  13.582  14.833  13.988  0.2909  0.2164  0.1441
20080W        W36154  17.616   7.707   0.774 -0.1447 -0.0738  0.0786
20081W        W36155   0.456   2.214   3.756 -0.2613 -0.0261 -0.0416
20082W        W36156   8.972  10.931   5.065 -0.4182 -0.1308  0.0888
20083W        W36157   1.156   7.557   4.622  0.1662 -0.2394  0.0206
20084W        W36158   2.363  14.299   1.340  0.2144  0.0124  0.0685
20085W        W36159  12.531   7.012   3.784 -0.1010 -0.1853  0.2618
20086W        W36160   2.003   8.589   1.600 -0.1507  0.1512 -0.1093
20087W        W36161  10.288   2.165   4.208 -0.0854 -0.0009 -0.0256
20088W        W36162  17.841  12.727  11.199 -0.0699  0.2518 -0.2119
20089W        W36163   5.828  13.190   5.759  0.0052  0.1018 -0.3240
20090W        W36164   3.516   6.335  10.073  0.2198 -0.2656  0.1671
20091W        W36165  13.939  10.247   2.468  0.0484 -0.1368 -0.0995
20092W        W36166  13.913   2.493   4.855 -0.3244  0.0239 -0.1401
20093W        W36167  17.393   5.162   1.944  0.2401 -0.2966 -0.0770
20094W        W36168  13.512  12.408   3.119  0.2564  0.1368  0.2077
20095W        W36169   5.183   0.776   2.131  0.3486  0.1550 -0.1133
20096W        W36170   7.316   7.408  16.286 -0.4902  0.0934 -0.2121
20097W        W36171  14.174  10.365   1.910  0.0456  0.0437  0.1072
20098W        W36172  14.051  14.958  14.011 -0.1554 -0.1606  0.0167
20099W        W36173   2.547  12.212  13.656 -0.0859  0.2255  0.0100
20100W        W36174  10.892   3.300   3.603  0.0788 -0.0761 -0.0887
20101W        W36175   1.154  16.334  15.200  0.0255  0.1986 -0.1891
20102W        W36176  16.065   7.574   0.640  0.2023  0.1558 -0.0241
20103W        W36177   8.094   8.467  11.490 -0.1297  0.1049  0.2908
20104W        W36178  16.032  16.689   0.440 -0.0235  0.0076  0.0594
20105W        W36179  13.278   8.447   4.721  0.1404  0.0926  0.2736
20106W        W36180  17.841   0.460  15.601  0.0632  0.0442  0.2477
20107W        W36181   2.525  12.182   5.824  0.4274  0.0356 -0.2408
20108W        W36182   6.669   5.678   5.273 -0.0291  0.0706  0.3704
20109W        W36183   4.758  12.941  10.386 -0.4767 -0.2695  0.2961
20110W        W36184   3.944  13.658  14.480  0.0876  0.1579  0.0553
20111W        W36185   9.320   9.677   0.145 -0.0512 -0.0732 -0.0313
20112W        W36186   2.126  17.023  14.863  0.0090  0.4049  0.2016
20113W        W36187   5.897  10.416   3.999  0.1613 -0.0117 -0.0946
20114W        W36188   5.384  17.884   3.109 -0.0857 -0.1401  0.0615
20115W        W36189   7.271   7.727   0.259 -0.1520  0.1905  0.2345
20116W        W36190  14.005   3.201  13.791 -0.0053  0.3580  0.0753
20117W        W36191  18.187   9.293   3.428  0.1134 -0.0709 -0.1486
20118W        W36192   0.680   0.591  13.553  0.0264 -0.0155  0.1118
20119W        W36193  11.725   2.446   3.854  0.0267  0.2237 -0.2883
20120W        W36194   1.769   6.145   3.404  0.1157 -0.1857 -0.1131
20121W        W36195   9.975   7.842   2.286 -0.1598 -0.0340  0.1875
20122W        W36196  13.179  16.406   5.048 -0.0854 -0.1699 -0.4773
20123W        W36197  13.804   5.114   0.935 -0.1315 -0.2493 -0.1836
20124W        W36198   8.367  15.729   0.343  0.0222 -0.3370 -0.2234
20125W        W36199  11.771  14.344   1.584 -0.4084 -0.1501  0.1910
20126W        W36200  15.425   6.771   0.128 -0.0814 -0.0550  0.2030
20127W        W36201  18.226   8.834  11.266 -0.1561  0.1158  0.2538
20128W        W36202  14.473  12.640   4.159  0.0550  0.2307  0.1809
20129W        W36203  11.805  11.128   5.752  0.2806 -0.2794  0.1246
20130W        W36204  11.940  18.047   0.848  0.2547 -0.0881  0.1585
20131W        W36205  13.575  13.350   2.055 -0.1085 -0.2728 -0.0658
20132W        W36206  16.173  13.422  11.437 -0.3235  0.4035  0.1111
20133W        W36207   0.150   4.444   3.351 -0.3342  0.1259  0.0203
20134W        W36208  17.789   4.045   4.021  0.4015 -0.2228 -0.1570
20135W        W36209   9.313  11.915  16.480 -0.1940 -0.1540  0.1123
20136W        W36210   9.471  12.607  15.415 -0.0754  0.0794  0.1236
20137W        W36211   8.489  11.385  12.955  0.2856  0.0175  0.4192
20138W        W36212  12.558  15.661  14.811  0.0943  0.3293  0.0929
20139W        W36213  16.360  14.852  14.793  0.0704 -0.0558  0.3037
20140W        W36214   2.906  18.211  13.697  0.2666  0.0066  0.0635
20141W        W36215   0.126  16.440  16.013  0.0898  0.0707 -0.0493
20142W        W36216   3.483   9.484  16.342  0.0345 -0.1529 -0.0007
20143W        W36217  16.279   3.938  15.751  0.2608 -0.2630  0.0034
20144W        W36218   3.062  14.307  11.532  0.0507 -0.4850 -0.1493
20145W        W36219  11.123   0.072  13.576  0.1529 -0.1718  0.3541
20146W        W36220  10.668   5.220   5.587 -0.1987 -0.2036  0.1355
20147W        W36221  15.069  11.633  13.221  0.1973  0.1410 -0.1240
20148W        W36222  14.495  10.685  12.115 -0.3037  0.0624  0.0490
20149W        W36223   8.695  12.860   1.738  0.0085  0.0262  0.3589
20150W        W36224   3.583  10.585  16.314 -0.3602 -0.0167  0.2462
20151W        W36225  16.982  16.510   5.407  0.0293 -0.0374  0.0828
20152W        W36226   0.187  13.543   1.000  0.0302 -0.0384  0.0470
20153W        W36227   8.620  17.117  16.053  0.1047  0.0394 -0.0919
20154W        W36228  12.349  10.725   2.065 -0.0329  0.0956 -0.3831
20155W        W36229  13.265  17.992   4.524  0.0456 -0.1701 -0.0842
20156W        W36230   1.178   3.608  14.208 -0.0193 -0.0434  0.2593
20157W        W36231  13.945  12.864  13.813 -0.0822  0.0940  0.0095
20158W        W36232   2.941  17.535  11.512  0.3991  0.3145  0.0974
20159W        W36233  13.177  11.793   4.867  0.2484 -0.2751 -0.2862
20160W        W36234   0.658   6.817  15.075 -0.5164  0.1446 -0.0889
20161W        W36235   2.921  15.916   3.985 -0.1055 -0.0350  0.0285
20162W        W36236  15.715   1.725   1.462  0.1288 -0.0865  0.1787
20163W        W36237  17.164   9.553  15.928 -0.0680  0.0071  0.1871
20164W        W36238   8.475  11.156   0.856  0.0604 -0.0765 -0.0930
20165W        W36239   3.282  13.034  14.382  0.1719  0.1350  0.1596
20166W        W36240  12.335  18.160  11.948 -0.1062  0.0737  0.2151
20167W        W36241   6.583  10.109   0.810  0.2537 -0.1216  0.0205
20168W        W36242   3.527   8.789  15.577  0.3066 -0.1463  0.0874
20169W        W36243  10.396   4.187  14.289 -0.1575  0.2071 -0.0080
20170W        W36244  11.547  10.605  14.645 -0.2149 -0.3248  0.0259
20171W        W36245  17.912  14.552   2.723 -0.1810  0.0402 -0.0592
20172W        W36246   9.446   7.601   2.487 -0.0997 -0.0122  0.1187
20173W        W36247   1.967  16.943  13.086 -0.2516 -0.1478  0.2000
20174W        W36248   7.041   8.066   0.696 -0.4086  0.2895  0.1286
20175W        W36249   2.187  15.964   6.098  0.1635  0.0651  0.2054
20176W        W36250   2.359  14.477   3.869 -0.1052 -0.2687 -0.1135
20177W        W36251  11.202  10.600   0.879  0.2259  0.4101 -0.3481
20178W        W36252   6.331   2.246  12.487  0.1156  0.2335 -0.0204
20179W        W36253   9.680   1.839   0.462  0.0054  0.0016  0.0316
20180W        W36254   7.311  10.988   4.993 -0.1161  0.0508  0.0995
20181W        W36255  15.641   4.039  12.970 -0.0844  0.1106  0.3076
20182W        W36256   7.954   5.442  11.752  0.1291  0.1803  0.3935
20183W        W36257   1.526  13.972  16.258  0.0047  0.2006  0.2512
20184W        W36258  16.209   0.896  16.264  0.2713  0.1162  0.0997
20185W        W36259   6.975   4.902  12.688  0.1403 -0.5232 -0.1485
20186W        W36260   7.841  15.715   5.118  0.1568 -0.4778 -0.1075
20187W        W36261  16.198  11.717   1.300  0.2086 -0.0205 -0.0692
20188W        W36262   8.995   7.164  15.150 -0.0833 -0.1161  0.1118
20189W        W36263   7.892   5.492   3.264 -0.0858 -0.0492  0.3822
20190W        W36264  17.002   0.430   3.597  0.0907  0.0774  0.2252
20191W        W36265  15.008   1.890   4.242  0.1541  0.1062  0.1965
20192W        W36266  13.499   2.200   4.911 -0.0004  0.3536  0.2895
20193W        W36267   8.501  12.799   0.036 -0.0850 -0.0509  0.1321
20194W        W36268   9.398   8.837  11.451 -0.0648 -0.0426 -0.1504
20195W        W36269   2.079   2.344  11.767 -0.1096  0.2411  0.2252
20196W        W36270  13.928  10.929   1.348 -0.2638 -0.2706 -0.1540
20197W        W36271  10.876   5.617   1.192 -0.0360 -0.1970  0.2212
20198W        W36272  17.744  18.217  14.750 -0.3800  0.0176 -0.1869
20199W        W36273   8.318  11.623   1.515  0.1285 -0.1395  0.3476
20200W        W36274  15.047  16.492   4.940  0.0272 -0.1282  0.0970
20201W        W36275   7.663   6.383  11.305  0.0172  0.2271 -0.1564
20202W        W36276   7.507   4.721   2.326 -0.0535  0.0184  0.0069
20203W        W36277  10.404  15.415  13.330  0.0612  0.0233  0.0760
20204W        W36278   9.720   0.110  14.538  0.1405  0.0170 -0.0106
20205W        W36279  17.804   2.088   0.982 -0.2712  0.0493  0.3588
20206W        W36280   4.277   2.518   5.769 -0.1651  0.2239  0.0409
20207W        W36281   6.441  13.412  14.558 -0.2171 -0.2944  0.2632
20208W        W36282  10.427   0.212  15.056  0.1425 -0.1531  0.0505
20209W        W36283  11.190   2.212  13.996 -0.3294 -0.2093 -0.2190
20210W        W36284  11.697  17.237  12.251 -0.0810  0.0096  0.0632
20211W        W36285   3.756   4.021   3.691  0.1469 -0.1222 -0.0434
20212W        W36286  15.657   9.979   4.063 -0.0016 -0.0860 -0.1024
20213W        W36287   6.199  14.080  13.810 -0.0469  0.1835 -0.3158
20214W        W36288   1.189   9.120  11.873  0.0698  0.2743 -0.0060
20215W        W36289  10.089  18.060  16.285  0.2284 -0.4019 -0.1873
20216W        W36290  10.252   0.825   3.438 -0.0596  0.1363 -0.1235
20217W        W36291   8.018  13.508  12.436  0.0266  0.1322 -0.0767
20218W        W36292   9.007   5.945   5.349  0.1293 -0.3105  0.1019
20219W        W36293  16.314   0.447   2.851  0.1270  0.2279 -0.1359
20220W        W36294  12.131  11.637  13.743  0.2207 -0.2061  0.2279
20221W        W36295   0.057  17.970   3.538  0.4205  0.1251 -0.0215
20222W        W36296   0.060   5.389   0.463 -0.0989 -0.0502 -0.1345
20223W        W36297  12.995   5.550   2.573  0.0287 -0.2161  0.1981
20224W        W36298   6.370  11.902  15.455  0.0424 -0.2408  0.1089
20225W        W36299  13.625   6.222  11.898  0.1677 -0.1240  0.0071
20226W        W36300  10.108   6.105   0.688  0.2093 -0.1577  0.3732
20227W        W36301   7.259   6.628  12.955  0.1043  0.2499 -0.5928
20228W        W36302   3.692  10.623   1.700  0.1615  0.2826  0.0288
20229W        W36303  13.420  13.915  12.374  0.4300  0.1666 -0.1247
20230W        W36304   4.240   2.598  15.787 -0.0880  0.0248 -0.1551
20231W        W36305  17.680  10.302  13.005  0.0407  0.1688  0.2825
20232W        W36306   4.917  15.946  14.207 -0.5567 -0.1426 -0.1523
20233W        W36307  15.286   5.187  16.308  0.2932  0.0928  0.1338
20234W        W36308   9.763  17.032  12.903  0.2250  0.0413 -0.2117
20235W        W36309  16.594  18.009   0.206  0.0341  0.3417  0.0193
20236W        W36310   2.788   2.400  16.156 -0.4131 -0.0500  0.0447
20237W        W36311   2.582   9.705  11.748  0.0137  0.0891 -0.1360
20238W        W36312  16.872   9.184   1.671 -0.0171  0.2922 -0.1755
20239W        W36313   9.226  17.973  13.893  0.2567  0.2483 -0.1877
20240W        W36314  18.162   7.222  15.993  0.1298  0.1910  0.2340
20241W        W36315   5.214   4.117  13.676  0.0307  0.1020 -0.3511
20242W        W36316  16.296   4.584  14.180  0.2305 -0.0014  0.1794
20243W        W36317  15.861  11.841   3.275  0.0084 -0.1267  0.2677
20244W        W36318   6.000  18.151  14.204  0.1210 -0.1316 -0.0064
20245W        W36319   2.629  13.955   3.781 -0.2084  0.1370 -0.3054
20246W        W36320  14.150   2.775   5.360 -0.0406 -0.0715  0.2325
20247W        W36321  11.632   6.436   0.751  0.0800  0.3064 -0.1051
20248W        W36322   8.470   2.489   1.814  0.2192 -0.0243  0.2198
20249W        W36323  11.694   2.051   5.245  0.0379  0.3039  0.2176
20250W        W36324   7.398   5.653   3.261  0.1906 -0.0723 -0.0106
20251W        W36325   8.878   1.311   5.424 -0.2409 -0.4987  0.0545
20252W        W36326   5.088   1.564  13.010  0.3298  0.0444  0.1490
20253W        W36327  12.055  10.778   1.724  0.0663 -0.0917 -0.1320
20254W        W36328  10.598   9.614   2.752 -0.1790 -0.2585 -0.2269
20255W        W36329   4.619   8.465  11.935 -0.3668 -0.1417  0.0382
20256W        W36330  10.268   1.463  15.272  0.3461  0.3511  0.1742
20257W        W36331  16.026  17.116   2.384  0.0704 -0.0637 -0.0953
20258W        W36332   6.546   2.641  14.264  0.0710 -0.0419 -0.0184
20259W        W36333   1.644  10.494  13.642 -0.0145  0.0241  0.0214
20260W        W36334   4.988   0.022   3.365  0.1882 -0.3107 -0.0549
20261W        W36335  17.426  11.163   0.814 -0.1326  0.3317 -0.2623
20262W        W36336   7.936   4.276  13.532 -0.1703 -0.3207 -0.0146
20263W        W36337  14.328   4.749  15.395 -0.0102 -0.1575 -0.3532
20264W        W36338  14.242   6.876   1.084  0.0463  0.4860  0.2151
20265W        W36339   3.465  12.961  12.618  0.0560 -0.0921 -0.0129
20266W        W36340   6.123  13.559  13.832 -0.0544 -0.4603  0.1805
20267W        W36341   2.000   8.660   4.261  0.1436  0.0861 -0.0858
20268W        W36342   0.440   0.949   1.217 -0.1388 -0.2370 -0.2043
20269W        W36343   2.445   8.934   2.326  0.3614 -0.0102  0.1803
20270W        W36344  17.616   0.914   2.443 -0.3360  0.0550 -0.0342
20271W        W36345  17.335   3.392  12.032 -0.1128  0.1213  0.0055
20272W        W36346  16.619  15.251   1.981  0.3780 -0.0376 -0.2883
20273W        W36347  13.879   6.961  14.943 -0.0755 -0.0706  0.2024
20274W        W36348   6.200   1.557   2.410 -0.1566 -0.1327 -0.2714
20275W        W36349  17.224   9.576  13.091  0.4011  0.1123 -0.2420
20276W        W36350  16.411   8.939   3.087  0.1525 -0.2990  0.1586
20277W        W36351  15.901  10.143  16.237  0.2436  0.0182 -0.0010
20278W        W36352   4.133   1.079  11.241 -0.0327  0.2028  0.0809
20279W        W36353   9.299  12.238   0.985 -0.1751  0.0429 -0.4550
20280W        W36354   2.065   2.807   4.391  0.0122 -0.1592 -0.2049
20281W        W36355   9.457   8.308  14.432 -0.0562 -0.1033 -0.0004
20282W        W36356  12.622  13.214  14.037 -0.2608  0.2129 -0.0762
20283W        W36357   4.513   8.397  15.850 -0.1467  0.0989 -0.2729
20284W        W36358   4.665  12.037  11.783 -0.0592 -0.1291 -0.2623
20285W        W36359  15.308   5.575   4.722  0.1209 -0.3658  0.2463
20286W        W36360  11.663  10.505  14.057  0.2940  0.1421 -0.1267
20287W        W36361  12.714   7.483   1.281  0.2374  0.0118 -0.2147
20288W        W36362  16.450   1.528  14.088 -0.1304 -0.2001 -0.0028
20289W        W36363   2.735   8.070  15.463 -0.2074 -0.0088 -0.1606
20290W        W36364  11.499  10.540   4.954  0.3422  0.1082  0.1345
20291W        W36365   2.178   8.440   5.002 -0.2451  0.0551 -0.0500
20292W        W36366   6.954   2.422  13.047 -0.0075  0.1800 -0.0238
20293W        W36367  12.757   9.082  14.655  0.2036 -0.2250  0.3630
20294W        W36368  10.596   4.295   6.107 -0.2394 -0.0117  0.2030
20295W        W36369   2.938   3.005  16.187 -0.1419  0.0343 -0.5075
20296W        W36370   5.035   5.295  14.604 -0.0883  0.2301 -0.0445
20297W        W36371   8.410  14.890   0.113  0.3355 -0.0829 -0.3501
20298W        W36372  13.936  15.447  11.529 -0.0036  0.3455  0.2478
20299W        W36373  11.227   4.462   1.789 -0.1654 -0.1274 -0.1349
20300W        W36374  12.453   9.150   2.597  0.1323  0.1208 -0.0893
20301W        W36375  12.788  10.032  15.995 -0.0963  0.2371  0.0253
20302W        W36376   5.756   4.976  11.515  0.1035  0.3543  0.3186
20303W        W36377  17.869   3.593  12.808 -0.1262 -0.1280 -0.1650
20304W        W36378   1.543  16.334   3.361  0.2304 -0.0071  0.1581
20305W        W36379  10.404  17.993   1.235  0.0004 -0.0757 -0.1889
20306W        W36380  16.598  10.803  13.705  0.0213  0.1113 -0.2863
20307W        W36381   8.094   8.151  12.785 -0.0792  0.0770 -0.1225
20308W        W36382  10.292  15.938   4.932 -0.1819 -0.0446  0.3375
20309W        W36383   2.019  13.492   4.689  0.2109 -0.0878  0.2148
20310W        W36384   5.257   1.269  15.066  0.3205 -0.0947 -0.2439
20311W        W36385   3.463   6.173   3.827  0.0807  0.1592  0.2209
20312W        W36386   9.633   6.529   2.475  0.0976  0.1334  0.0812
20313W        W36387  12.110   5.946   5.279  0.1888  0.0037  0.1337
20314W        W36388   5.578   2.525  13.434 -0.0363  0.2129  0.2224
20315W        W36389  17.221  15.957  12.435  0.2566  0.1710  0.0483
20316W        W36390   7.381  11.355  12.745  0.0932 -0.0177  0.1098
20317W        W36391   0.388   2.034   5.614 -0.1263  0.0355 -0.0388
20318W        W36392  14.006  14.256  12.191 -0.1037 -0.0996 -0.0621
20319W        W36393  10.641  15.244   1.583  0.0626 -0.1415  0.1678
20320W        W36394  15.910  14.297  14.271  0.0829  0.3163  0.0557
20321W        W36395   1.228  15.208  15.555 -0.0052 -0.1786  0.1710
20322W        W36396  10.360   6.899  11.398 -0.0033 -0.0983 -0.0188
20323W        W36397   9.618  17.473   2.346  0.0856  0.2420  0.0025
20324W        W36398  12.126  13.529   2.236  0.5293 -0.0340 -0.1030
20325W        W36399   2.138   6.726   4.162  0.1292  0.0876  0.2846
20326W        W36400  14.630   5.744  13.959 -0.1586 -0.0473  0.2286
20327W        W36401  13.397   8.036   2.496  0.1713 -0.1761  0.2938
20328W        W36402   5.165   0.764  13.674 -0.0238  0.0089 -0.1027
20329W        W36403  12.238  16.826  12.410 -0.1506 -0.3839  0.0258
20330W        W36404   4.278   0.945  14.159 -0.1398 -0.1343 -0.0304
20331W        W36405   5.455   2.345   4.148  0.1359 -0.0522  0.0704
20332W        W36406  11.294  11.371   3.579 -0.2553 -0.2319  0.1453
20333W        W36407  12.394   0.218   2.908  0.1568  0.0658 -0.0910
20334W        W36408  14.945  13.405   2.914 -0.1886 -0.2261  0.0791
20335W        W36409   0.258  15.532   0.915  0.3146  0.1738  0.1308
20336W        W36410  12.980  14.029   3.427 -0.1636  0.3186  0.2344
20337W        W36411  12.637  14.419  14.991  0.1186  0.0067  0.1700
20338W        W36412   7.785  16.059   2.453  0.0407 -0.1729 -0.2873
20339W        W36413  13.206  11.119   5.768  0.1395 -0.2085  0.1423
20340W        W36414   5.859  14.340   2.435  0.5853  0.1079 -0.1273
20341W        W36415  10.587   9.401  11.293  0.3139 -0.1229 -0.1372
20342W        W36416   3.158  16.962  13.249  0.1591  0.0382  0.2731
20343W        W36417  17.957  13.038   4.497 -0.0079 -0.2601  0.2806
20344W        W36418   4.270  10.448  13.141 -0.1807 -0.1794  0.3716
20345W        W36419   8.369   6.638  11.816 -0.2189 -0.0562  0.2581
20346W        W36420   2.919   2.449  12.456  0.1316  0.2690  0.1246
20347W        W36421   6.769   2.610   5.023 -0.1210 -0.2890  0.0077
20348W        W36422   7.328  13.328  12.838  0.3190  0.1043 -0.0350
20349W        W36423  16.169   4.283   0.427 -0.1056  0.0437 -0.0886
20350W        W36424   7.454  16.343   3.264  0.0076 -0.0143 -0.0078
20351W        W36425   6.585  15.045  12.020 -0.0810 -0.0766 -0.1773
20352W        W36426   4.528   8.427  13.584  0.0262 -0.3288 -0.0166
20353W        W36427   6.653   7.232  11.524 -0.1785 -0.0055 -0.2053
20354W        W36428  10.929  14.474   1.090  0.0338  0.1273 -0.0111
20355W        W36429  14.389  17.864  15.548 -0.0032  0.0480  0.2780
20356W        W36430   6.065  16.816  13.728  0.0955 -0.1840 -0.2201
20357W        W36431  10.859   5.571   4.564 -0.0621 -0.0570 -0.2046
20358W        W36432  18.171   1.463  15.663  0.1321  0.0834 -0.0897
20359W        W36433  17.496   4.038  16.175  0.0091 -0.1694  0.0753
20360W        W36434  15.625   6.414   0.504 -0.1339  0.2549  0.0287
20361W        W36435   9.179  16.100  13.635 -0.1520 -0.1489  0.0237
20362W        W36436  11.281   4.913   5.724  0.0347 -0.0908 -0.2661
20363W        W36437  13.584   9.138   3.910 -0.1329  0.4888  0.0025
20364W        W36438  15.416  11.574   3.186  0.0020  0.0351  0.1217
20365W        W36439   1.447  16.647   4.698 -0.2199  0.4636 -0.2282
20366W        W36440  12.386   4.046   5.365  0.3695 -0.0424 -0.2283
20367W        W36441   0.506  15.778   4.222 -0.4432 -0.1000  0.2549
20368W        W36442  11.843   2.428  12.136 -0.1182 -0.1986  0.4396
20369W        W36443   1.292   7.973   0.160  0.3218 -0.0704  0.0086
20370W        W36444   4.884  13.147   0.850  0.0376  0.0650 -0.2893
20371W        W36445  14.668   7.523  14.204 -0.2972  0.0998  0.0540
20372W        W36446  10.967  13.436   5.620  0.0375 -0.0442  0.0996
20373W        W36447   9.037  15.200  11.009  0.0373  0.2732 -0.4653
20374W        W36448   9.381  10.496   4.100 -0.0310 -0.0934  0.1578
20375W        W36449   8.506  16.186  13.887  0.0063 -0.3123 -0.0303
20376W        W36450   5.525  16.476   1.771 -0.1017  0.1168 -0.2101
20377W        W36451  11.070   2.973  11.808  0.0601  0.1047 -0.4072
20378W        W36452  13.758   3.975  12.440  0.1085  0.2402  0.0659
20379W        W36453   0.827  11.941  16.294  0.1775  0.1835  0.0870
20380W        W36454  10.960   2.022   5.937  0.3054  0.0832 -0.2161
20381W        W36455   9.928  10.469  14.939  0.0203  0.0377  0.0221
20382W        W36456   0.210  10.572  13.760  0.2185 -0.2103  0.0960
20383W        W36457  11.973  10.282  16.027  0.0659 -0.1020 -0.2290
20384W        W36458  17.954   1.046  16.162 -0.2966  0.0261 -0.1727
20385W        W36459   2.070  12.163  14.734  0.2282  0.0383  0.0969
20386W        W36460  15.304  14.558  11.503 -0.0127 -0.2078 -0.2009
20387W        W36461   7.575   3.931  12.371  0.1758 -0.1069  0.0211
20388W        W36462  16.252   6.229  16.231 -0.0503  0.0169 -0.0143
20389W        W36463   2.133   0.346  12.647  0.4623  0.1119 -0.3599
20390W        W36464   9.802  17.855  15.333  0.0570 -0.1520 -0.3124
20391W        W36465  16.053   3.295  12.991 -0.0620 -0.0065 -0.2764
20392W        W36466  17.648   7.037  16.025  0.3973 -0.0949  0.2356
20393W        W36467   8.444   5.127   1.344 -0.2457 -0.0331 -0.0290
20394W        W36468  11.638   8.891   0.347  0.0479 -0.1943  0.1399
20395W        W36469   3.114   8.986  11.014  0.1684  0.1823 -0.3110
20396W        W36470   0.385  10.359  12.347 -0.0108  0.1030  0.1160
20397W        W36471  14.579   9.833   4.682 -0.1123 -0.1101 -0.1197
20398W        W36472   8.959   0.943  15.576  0.0078  0.0178  0.0726
20399W        W36473  12.385   9.253  11.569 -0.2596  0.1392  0.0146
20400W        W36474  14.134   2.991   4.839 -0.1193  0.0558 -0.2666
20401W        W36475  13.294   7.068   6.041 -0.1252 -0.0763  0.0562
20402W        W36476   4.531  17.615  14.116  0.0271 -0.0237  0.0519
20403W        W36477  10.608   8.735   0.427 -0.0611  0.1029  0.0432
20404W        W36478  14.531  11.847   0.021 -0.2499 -0.0524 -0.3777
20405W        W36479   9.275   5.106   3.860  0.2636  0.0539 -0.2206
20406W        W36480   4.343   2.784  16.292  0.0567  0.0582 -0.1282
20407W        W36481  10.303   4.470  16.234  0.1158  0.0669 -0.1171
20408W        W36482  16.496   2.629   1.006  0.1110 -0.2291  0.0024
20409W        W36483   5.316  13.267   3.687  0.1020  0.3002  0.0329
20410W        W36484   7.706   5.645  14.370 -0.0691  0.1250  0.1041
20411W        W36485   4.929   4.003  12.533 -0.1229  0.1647 -0.0989
20412W        W36486  18.023   2.684  15.450 -0.2522 -0.0344  0.1851
20413W        W36487   3.618  13.828   5.706  0.2091  0.2204 -0.1295
20414W        W36488   8.570   2.570  15.214 -0.1812 -0.1180  0.1673
20415W        W36489   4.185  13.306  14.073  0.3350 -0.0943 -0.2288
20416W        W36490  16.084   1.932   5.017  0.0240 -0.2152 -0.2449
20417W        W36491  17.544   6.780   3.032  0.0565 -0.0123 -0.0720
20418W        W36492   4.715   9.473  12.055  0.2302  0.1521  0.1733
20419W        W36493  13.640  10.423  15.899 -0.0621  0.0671  0.1329
20420W        W36494  11.709  12.277   3.622 -0.1845  0.4291  0.1825
20421W        W36495  14.843   0.689   2.088 -0.3937 -0.3329  0.1642
20422W        W36496   0.706   1.211  12.041  0.0676  0.0112 -0.1329
20423W        W36497   4.226   0.416  11.855  0.2535 -0.0216 -0.3545
20424W        W36498   8.532   8.994  14.887 -0.4072 -0.0939  0.0060
20425W        W36499  14.004  16.751  14.632  0.1902  0.1651  0.1795
20426W        W36500  12.202   8.945   3.021 -0.2248 -0.1435 -0.1218
20427W        W36501  15.341  13.702   3.219 -0.0476  0.1600  0.0291
20428W        W36502  10.722   3.730   5.065 -0.3643  0.0975 -0.3023
20429W        W36503  13.384   3.829  15.716  0.1663 -0.0564  0.1267
20430W        W36504  11.183   7.121   4.234 -0.0893  0.1693 -0.0217
20431W        W36505   1.470   6.617  16.401  0.2434  0.1305 -0.1387
20432W        W36506  10.072   9.244   3.420  0.3190  0.0090  0.1518
20433W        W36507   1.433  12.298   4.683 -0.1347 -0.4486  0.1429
20434W        W36508  11.621   2.933   5.664 -0.0135  0.0149  0.1334
20435W        W36509  10.597   6.391   0.828 -0.0745  0.2827  0.0188
20436W        W36510  15.619  13.898  11.654  0.1332  0.0084 -0.0572
20437W        W36511  18.031   2.389  13.115 -0.0256  0.1273  0.1744
20438W        W36512  15.620  12.644   5.840  0.2566  0.1052 -0.0915
20439W        W36513   4.937  15.732  12.140  0.2387 -0.3424 -0.1238
20440W        W36514   6.555  13.025   4.051  0.1217 -0.1643  0.0858
20441W        W36515   7.978   8.979   0.600 -0.0230  0.1739  0.0250
20442W        W36516  10.763   0.895   2.566  0.0143 -0.3075  0.1244
20443W        W36517   5.962   6.077  12.361 -0.1654  0.1664 -0.1860
20444W        W36518  10.845  13.312   4.324 -0.2983 -0.1343 -0.0776
20445W        W36519   0.544  12.469   5.367 -0.0732 -0.2548 -0.1146
20446W        W36520   2.800   8.365  15.015 -0.0535 -0.0150  0.0403
20447W        W36521   2.782   1.127  12.114  0.0390 -0.0208 -0.0633
20448W        W36522  15.253  14.257   3.693 -0.0227  0.1909  0.1027
20449W        W36523   0.760  17.432  12.052  0.0165 -0.1506 -0.3561
20450W        W36524   5.550  10.020   1.443  0.0637  0.1987 -0.0185
20451W        W36525   8.553   0.869  13.966 -0.2382  0.1448 -0.1357
20452W        W36526   9.875   5.325   4.879 -0.1046  0.2114 -0.1439
20453W        W36527   9.969  14.602  13.934 -0.1315 -0.1013  0.3256
20454W        W36528   3.730   2.845  15.842 -0.3259  0.1320  0.0611
20455W        W36529   0.015   7.724  13.917  0.0583  0.1289  0.1820
20456W        W36530   3.895  12.559   6.003 -0.2311 -0.1090 -0.0481
20457W        W36531  17.552  13.631   2.469  0.1551  0.2643 -0.0593
20458W        W36532  10.967   4.112   4.816 -0.3037  0.3374  0.0659
20459W        W36533   6.935  12.488   5.149 -0.1281  0.0753 -0.5045
20460W        W36534  12.330  16.042   5.531 -0.0567 -0.0933 -0.1366
20461W        W36535  15.916   8.812  15.853 -0.0144  0.0047  0.0038
20462W        W36536   8.204   3.057   5.122  0.3867  0.0832  0.0570
20463W        W36537   5.827  11.468   3.412 -0.0557 -0.3063  0.0873
20464W        W36538  18.015  17.072  11.447  0.2690 -0.0171 -0.0416
20465W        W36539  16.684   2.046  13.195 -0.0268  0.1274  0.3162
20466W        W36540   0.740   8.511  12.705  0.1767  0.2031  0.1929
20467W        W36541   5.771  14.415   3.462 -0.1020  0.0645  0.1819
20468W        W36542  15.918   8.134   4.520  0.0847  0.0147  0.5820
20469W        W36543  14.445  10.662   5.576  0.2422  0.0951 -0.1971
20470W        W36544   2.688  14.460  11.810  0.4669  0.0478 -0.1592
20471W        W36545  14.518   9.476  15.600  0.0173 -0.0925 -0.0934
20472W        W36546  16.184  14.013   3.558 -0.2199  0.0040 -0.0621
20473W        W36547  16.025   4.695   5.845  0.0390 -0.0068 -0.2067
20474W        W36548  11.039   7.347  10.617  0.0560  0.0577 -0.2482
20475W        W36549  16.168  16.167  12.927  0.2719  0.1270  0.0097
20476W        W36550  15.575   9.970   0.229  0.0301  0.0168 -0.0649
20477W        W36551  16.363   4.173  12.090  0.0648 -0.1316 -0.2192
20478W        W36552   1.811  17.267  10.812  0.0126  0.1038 -0.4267
20479W        W36553   4.809   5.234  11.970 -0.0983 -0.5970 -0.4177
20480W        W36554  11.212   3.020  13.621  0.0820 -0.2134 -0.0488
20481W        W36555   1.226   8.080   2.491 -0.3277 -0.0452 -0.0210
20482W        W36556   7.243   9.422  13.656 -0.4271  0.0410 -0.2361
20483W        W36557  17.222   4.669  15.006 -0.1543  0.3669 -0.0355
20484W        W36558  13.643  10.156   5.321 -0.0024 -0.2757  0.3135
20485W        W36559  14.763   0.019  12.922  0.2116 -0.2644 -0.1305
20486W        W36560   1.567  18.189  13.905  0.1258 -0.1749 -0.0543
20487W        W36561   2.073  15.850   2.131  0.2094 -0.2603  0.4420
20488W        W36562   9.730   1.521  13.708 -0.0423 -0.0446 -0.1345
20489W        W36563   5.791   9.254   2.472 -0.0959  0.0118 -0.2016
20490W        W36564  14.471  10.312  15.152  0.4010 -0.0587 -0.3168
20491W        W36565   1.639  16.678  13.361  0.1244  0.1601 -0.1252
20492W        W36566   6.797   4.078   0.460 -0.1933  0.1817 -0.3057
20493W        W36567   4.194   7.508  16.288  0.0841 -0.2162  0.0831
20494W        W36568  14.971   0.406   0.259  0.0934  0.0418 -0.0629
20495W        W36569   3.312   0.460  15.161 -0.1448 -0.0189  0.3762
20496W        W36570  15.807  15.946   5.465 -0.0206 -0.0874 -0.1795
20497W        W36571  15.315   8.614   4.404  0.1875 -0.2169  0.0875
20498W        W36572   3.639  11.833  15.031 -0.2529 -0.3117 -0.1275
20499W        W36573  15.591  14.607  11.911 -0.0269  0.2585 -0.2211
20500W        W36574   3.549  16.094  14.645 -0.0090  0.1236 -0.2006
20501W        W36575  13.543  14.989   1.091 -0.3893 -0.1788  0.1640
20502W        W36576  14.915   0.703   4.760 -0.0791 -0.1622 -0.0388
20503W        W36577  15.797   0.497  13.867  0.0461 -0.1251  0.0903
20504W        W36578   0.726   8.807   2.779  0.3605 -0.0525  0.1570
20505W        W36579  12.809  15.552   1.024  0.2718 -0.3358 -0.1634
20506W        W36580  16.472  16.348  11.963 -0.1807  0.3121  0.1240
20507W        W36581  16.669  17.977  16.169 -0.2997 -0.1521  0.0371
20508W        W36582  10.693  18.032   0.176 -0.1133  0.0128  0.0504
20509W        W36583  13.808  14.644   6.277 -0.2531 -0.2944  0.0429
20510W        W36584  14.246   5.431  11.863  0.0318 -0.0819  0.6147
20511W        W36585   1.709   4.049   0.848 -0.1258  0.1191 -0.1942
20512W        W36586   5.058  11.415   3.128  0.0049 -0.0913 -0.0553
20513W        W36587  16.706  12.168   4.298 -0.3712 -0.1511  0.1783
20514W        W36588   5.058   4.186  14.639 -0.1735  0.0292  0.1171
20515W        W36589   4.022  11.595   5.133 -0.0352 -0.2007  0.2203
20516W        W36590   7.714   5.768  13.883 -0.1226  0.1660 -0.2383
20517W        W36591   2.601   8.511   2.495  0.0857 -0.1512  0.2040
20518W        W36592  13.510  13.997  15.282  0.3071 -0.1598 -0.1135
20519W        W36593  11.330   5.759   4.560 -0.1187 -0.2660 -0.3803
20520W        W36594   2.726   0.244  16.017 -0.3427 -0.2774 -0.0980
20521W        W36595  17.195  13.575  13.979 -0.0642 -0.0915 -0.0852
20522W        W36596  13.312   1.738  12.783  0.3156 -0.0960 -0.1366
20523W        W36597   7.183  11.314   2.371  0.1871 -0.0985  0.2599
20524W        W36598   7.626   4.112   3.793 -0.0863  0.2216  0.0763
20525W        W36599   0.918  15.531  16.440  0.2143 -0.2961  0.2635
20526W        W36600  15.614  17.098  12.891 -0.1212 -0.2353 -0.0253
20527W        W36601  10.671  10.014  15.387 -0.0612 -0.4197 -0.0093
20528W        W36602   0.932  17.626  11.214 -0.0761 -0.1796 -0.4057
20529W        W36603   9.655  13.795  12.807  0.0286 -0.0606  0.0454
20530W        W36604   9.082  15.198   3.116 -0.2964  0.4665  0.1405
20531W        W36605  17.493  13.804   3.919 -0.1441 -0.0221 -0.3471
20532W        W36606  16.128  13.743   1.051 -0.0644  0.1598 -0.1257
20533W        W36607  15.197   1.900  14.969  0.1052  0.0239 -0.3530
20534W        W36608   9.634  13.979   4.232  0.3786 -0.0152 -0.0637
20535W        W36609  14.357   4.305   3.707  0.4061  0.0423 -0.2669
20536W        W36610   4.531   8.101   3.689 -0.0616  0.4616 -0.2824
20537W        W36611   5.614   9.205  15.251  0.1516  0.1052 -0.1398
20538W        W36612   4.652   3.828   3.529 -0.1160 -0.1846  0.3035
20539W        W36613   7.166  13.716  15.200  0.1975 -0.3161  0.2637
20540W        W36614   9.056   4.460  14.154 -0.0185 -0.3800 -0.2053
20541W        W36615   2.721  15.951  14.618 -0.1218  0.2256 -0.2220
20542W        W36616   6.921   9.440  12.478  0.0310  0.2371  0.1089
20543W        W36617  14.358  12.574   4.729  0.2722  0.2069  0.0141
20544W        W36618  11.787  15.576   3.463 -0.0363 -0.1562  0.0929
20545W        W36619  17.151  14.916   0.059 -0.0065 -0.0411 -0.1339
20546W        W36620  11.085   9.924   4.152 -0.0805  0.0289 -0.1678
20547W        W36621  10.548  14.554   6.429  0.1901 -0.2504  0.2246
20548W        W36622  13.303  11.877   4.370  0.1680  0.2361  0.2918
20549W        W36623   4.057  16.267  14.299  0.1037  0.1681 -0.2090
20550W        W36624  12.751   8.184   4.190  0.2799  0.1627 -0.0834
20551W        W36625   0.404  11.074   1.366 -0.0491 -0.1360 -0.0806
20552W        W36626   7.379   3.204   5.044 -0.0967  0.0293 -0.3095
20553W        W36627   0.147   5.384  14.073 -0.2979  0.1847 -0.2659
20554W        W36628   6.323   7.652   4.214 -0.1790 -0.0674  0.0345
20555W        W36629  10.279  15.025  12.642 -0.4169 -0.2040 -0.1929
20556W        W36630  14.561   5.414  15.260 -0.0455  0.2989  0.3783
20557W        W36631  15.536  14.114  16.385 -0.1426  0.3398 -0.1361
20558W        W36632  13.126  17.727  11.837 -0.0698 -0.0642  0.1978
20559W        W36633  16.226   2.057   3.787  0.1860 -0.0155  0.0812
20560W        W36634  10.237  12.456  11.563 -0.3104  0.3006  0.4611
20561W        W36635  10.821   9.786  11.061 -0.2913  0.0218  0.2608
20562W        W36636  16.908   6.306   1.079 -0.2883  0.3878 -0.1356
20563W        W36637  14.298   5.852   2.854 -0.0573 -0.0168  0.0351
20564W        W36638   4.298  16.081   3.023  0.2801 -0.0697  0.1187
20565W        W36639  14.400  17.613   0.906 -0.0016  0.2491  0.1535
20566W        W36640   2.693   3.785   3.044  0.2726  0.0232 -0.0076
20567W        W36641  17.989   4.785   8.137 -0.2977 -0.0596 -0.0927
20568W        W36642   3.532  14.304  15.990  0.2616  0.0790  0.3847
20569W        W36643  17.873   3.972  13.709  0.1209 -0.0147  0.1429
20570W        W36644  13.875   8.700  15.082 -0.1388  0.0529 -0.3225
20571W        W36645  11.079  16.042   1.511 -0.0257  0.0756 -0.1504
20572W        W36646   1.503   7.002   9.791 -0.0384  0.0518  0.2371
20573W        W36647   6.019  12.425  13.720  0.2468 -0.1932 -0.3951
20574W        W36648   5.476  11.338  15.002 -0.0227 -0.1919 -0.0436
20575W        W36649   3.636   3.867   2.620  0.0071 -0.3283 -0.0014
20576W        W36650   9.764   9.966   4.640  0.0451 -0.2255  0.0393
20577W        W36651   5.524  12.811   3.194  0.1370  0.2468  0.0888
20578W        W36652   3.618   4.210   5.773 -0.0133 -0.0109  0.2459
20579W        W36653  11.731  15.677   5.542  0.1411  0.1046 -0.1111
20580W        W36654  10.246  13.000  12.836  0.1066 -0.1103 -0.0954
20581W        W36655  17.307   2.137   6.185 -0.0670 -0.0946 -0.0193
20582W        W36656  15.607  16.739  12.552  0.0632  0.1647  0.2207
20583W        W36657  13.019   6.064  15.939  0.2195  0.5846  0.0959
20584W        W36658   3.179   8.380  15.349 -0.2221 -0.3433  0.2533
20585W        W36659   2.928  12.384   0.835  0.1415 -0.0876 -0.0725
20586W        W36660   5.861  15.351   2.236 -0.0930  0.0486  0.2065
20587W        W36661   9.560  16.046  12.940  0.4606 -0.0513  0.0607
20588W        W36662   3.221   6.778   5.376 -0.1598  0.0902 -0.0148
20589W        W36663   1.112   9.786  13.474  0.3519  0.1146  0.2783
20590W        W36664  12.198  10.689  14.741  0.0849  0.1670  0.0399
20591W        W36665   7.720   4.790   2.742 -0.2499  0.0831 -0.0318
20592W        W36666   1.143   9.291  13.156  0.0794  0.3594  0.0121
20593W        W36667  16.544  12.968   5.046 -0.2670  0.2277  0.1549
20594W        W36668   9.930   8.895  12.302  0.0685 -0.1668 -0.1913
20595W        W36669  15.879   9.416  13.661  0.3034 -0.0551 -0.1691
20596W        W36670   2.414  11.031  16.497  0.0228  0.2825  0.0931
20597W        W36671   4.215   1.212   1.217  0.2365 -0.0975 -0.0982
20598W        W36672  16.265   4.733  11.458 -0.2809 -0.1113 -0.1870
20599W        W36673  17.552  10.175  15.831 -0.1972 -0.0665  0.0090
20600W        W36674   5.824  17.454  12.703 -0.0205  0.0531  0.1224
20601W        W36675  13.048   2.592   1.732 -0.0863  0.0404  0.1586
20602W        W36676  11.635   9.475   4.628  0.0346 -0.2827  0.0212
20603W        W36677  14.122  16.116  14.754 -0.1768  0.0885 -0.1802
20604W        W36678   0.761  12.893   0.593  0.2748 -0.1237 -0.0206
20605W        W36679  14.335   8.647   5.426 -0.1013 -0.0022  0.1503
20606W        W36680   5.609  13.647   5.818  0.1929  0.0158  0.2512
20607W        W36681   7.113   8.005  14.977  0.4757  0.0122 -0.1807
20608W        W36682  12.432  13.658  11.650  0.2524  0.1872 -0.0874
20609W        W36683  10.963  16.054  15.969  0.5534  0.0731 -0.2338
20610W        W36684   1.498   3.615   3.344  0.0874  0.2892  0.0048
20611W        W36685   4.438   4.295   4.754  0.0364 -0.1519 -0.0341
20612W        W36686  13.277  12.162  11.662  0.1002  0.2577 -0.2489
20613W        W36687  10.517  16.811  12.104 -0.3731 -0.1155  0.2240
20614W        W36688   9.232  14.158   1.385 -0.0888  0.1518  0.3173
20615W        W36689  10.863  10.185   2.486 -0.0025  0.1896  0.0600
20616W        W36690  14.632   4.003   2.816 -0.0681 -0.0363 -0.0526
20617W        W36691   3.908   1.577  15.610  0.1218  0.0596  0.0134
20618W        W36692  14.041   5.215   3.001  0.0388 -0.0778 -0.3048
20619W        W36693  10.692   2.933   2.396  0.1372  0.0672 -0.1587
20620W        W36694   2.294   3.945   4.062 -0.4540 -0.1268 -0.1197
20621W        W36695   3.070   5.164   3.561 -0.1565  0.3571 -0.3985
20622W        W36696  10.037   7.240  12.169 -0.1399  0.0087 -0.2073
20623W        W36697  17.186  15.814  11.943  0.3856 -0.2308 -0.1156
20624W        W36698   5.288  11.372  11.755 -0.2191  0.0664 -0.1779
20625W        W36699   8.479   0.879   3.042 -0.2602 -0.1491  0.1245
20626W        W36700   4.321   5.335  12.361  0.0198  0.1641 -0.0433
20627W        W36701   1.354   1.276  13.120 -0.3638  0.1173 -0.0735
20628W        W36702   6.517  14.996   3.375 -0.2681  0.2592 -0.0511
20629W        W36703  12.977  11.601  12.314  0.0049  0.1399  0.0698
20630W        W36704   4.545  10.088   4.629  0.1763  0.1225 -0.2471
20631W        W36705   0.316   6.726   0.352 -0.0678 -0.1577  0.2175
20632W        W36706   3.712  12.958  11.754 -0.1472  0.0397 -0.0604
20633W        W36707   5.910  17.023   6.191  0.1043  0.0231 -0.0138
20634W        W36708   4.525  12.999  14.990 -0.3632  0.2622  0.2166
20635W        W36709   4.364  16.161   4.890  0.1429 -0.2058  0.0465
20636W        W36710   2.104   2.587   2.417 -0.0644  0.0525 -0.0563
20637W        W36711  10.114   7.601  14.676  0.1666 -0.3052  0.2641
20638W        W36712   2.047  17.702   2.916 -0.3458  0.1391  0.0739
20639W        W36713  12.989  14.918  12.896 -0.5087  0.2029  0.1927
20640W        W36714  14.075   2.926   1.989  0.0830  0.0778  0.2242
20641W        W36715   9.481  13.705   5.597  0.0815  0.0490  0.4429
20642W        W36716  15.787  12.906   0.116  0.1419 -0.1104  0.0437
20643W        W36717  18.063   4.869  12.590 -0.0754  0.1727 -0.2177
20644W        W36718   9.378  12.372   2.945 -0.1511  0.1114  0.1972
20645W        W36719   5.287   2.359   1.448  0.1337  0.1164 -0.0397
20646W        W36720  16.083   5.004  15.893 -0.3101 -0.2006  0.0451
20647W        W36721   7.403   7.412  13.077 -0.3645  0.1150  0.1293
20648W        W36722  16.025  12.185   1.192  0.1005  0.1310  0.1534
20649W        W36723  14.481   7.483  15.690  0.0544  0.1095  0.0621
20650W        W36724   7.690  14.557  15.569  0.2969  0.1802 -0.1022
20651W        W36725  13.764   4.232   3.758  0.1066  0.0247  0.0913
20652W        W36726  18.250   1.102  13.371 -0.1624  0.1128  0.2679
20653W        W36727   3.228   6.202   3.342  0.1216  0.0990  0.0937
20654W        W36728   0.696   9.444  13.811 -0.1076 -0.0510  0.2158
20655W        W36729   2.104  17.577  11.268  0.2040 -0.3187  0.0787
20656W        W36730  17.519  14.445  12.537 -0.2565  0.0733  0.0284
20657W        W36731   2.553  11.669   1.380  0.1777  0.0516 -0.2897
20658W        W36732   6.498   8.181  12.663  0.0270 -0.3157 -0.1502
20659W        W36733   5.702   2.873  13.009 -0.0143  0.0380  0.1439
20660W        W36734   6.167   5.983   4.186 -0.2467 -0.0787 -0.4476
20661W        W36735   1.145   3.560  12.981  0.2671  0.0852  0.1146
20662W        W36736   4.327   5.169   3.735 -0.3217 -0.0964 -0.4432
20663W        W36737  16.917  12.805   4.267 -0.0993  0.1431  0.1153
20664W        W36738   5.678  17.583   4.417  0.1245  0.0667 -0.0514
20665W        W36739  12.933  11.186  13.019  0.1277 -0.0525  0.2384
20666W        W36740  15.622   2.680   5.504  0.0946  0.0909 -0.1613
20667W        W36741   0.617  16.291  15.177  0.0289 -0.0376  0.0335
20668W        W36742   9.636   3.361  12.026 -0.0812  0.0643 -0.0275
20669W        W36743  12.364   8.666  12.050 -0.0648 -0.1860 -0.0664
20670W        W36744  10.385   1.463   1.095 -0.5450  0.3198 -0.0848
20671W        W36745   4.196   6.902  15.625 -0.0619  0.2549  0.2184
20672W        W36746  17.617   0.999   5.610  0.0093 -0.0609  0.1840
20673W        W36747   2.014   9.312   4.130 -0.1086  0.0839  0.1838
20674W        W36748  16.150  11.696   2.614 -0.0046  0.2747  0.2911
20675W        W36749  17.396  15.331   1.469 -0.1925  0.1685  0.2004
20676W        W36750   9.493   2.519   1.860 -0.0468 -0.2637  0.1347
20677W        W36751  18.041  17.527  13.981 -0.0981 -0.0961 -0.2932
20678W        W36752   1.443  12.581  12.787 -0.0480 -0.1046 -0.1969
20679W        W36753  13.361  14.546   1.163 -0.0024 -0.1212  0.0814
20680W        W36754   5.315   4.688   3.547 -0.0954 -0.4850  0.0832
20681W        W36755  12.544   9.357  14.193  0.0799 -0.2451 -0.3926
20682W        W36756   5.357   8.989   1.485  0.3402  0.0325 -0.4147
20683W        W36757   9.000   9.920   1.079  0.0540 -0.2707  0.1614
20684W        W36758  16.167   2.572   5.334  0.1535  0.0523  0.1775
20685W        W36759   0.479  10.871  15.393 -0.2277 -0.0558 -0.2958
20686W        W36760  15.156  13.603  16.202  0.1033  0.3768 -0.1639
20687W        W36761   5.294   0.137   0.268 -0.2724  0.3563 -0.0620
20688W        W36762  16.076  12.435  15.125  0.2989  0.2755  0.2957
20689W        W36763   9.497   5.730   2.029  0.1822  0.0630  0.1373
20690W        W36764   2.010   1.056   3.715 -0.0721 -0.1050 -0.0989
20691W        W36765   6.570  10.806   4.562  0.1812 -0.1244 -0.3205
20692W        W36766  14.946   0.231   1.716  0.1857  0.2471 -0.0733
20693W        W36767   3.209   9.349   5.376 -0.2234 -0.2764 -0.0368
20694W        W36768   1.777  15.360  11.541  0.1544  0.1753 -0.1496
20695W        W36769  17.550  15.576  14.221 -0.1462  0.2609  0.2325
20696W        W36770  11.218   1.635  15.122 -0.1209  0.0775  0.1401
20697W        W36771  16.845  13.617   1.147 -0.0492 -0.0623  0.0052
20698W        W36772   4.721   6.082   3.561  0.1694 -0.0660  0.0506
20699W        W36773   0.487   3.049  13.485 -0.0978  0.1957 -0.1287
20700W        W36774   9.414   5.715  13.613 -0.1978  0.0585  0.5121
20701W        W36775   2.542  16.412  10.923 -0.0804 -0.0972  0.0835
20702W        W36776   3.054  12.116  12.930  0.0741  0.0128  0.0933
20703W        W36777  17.300   3.044  11.081  0.3074  0.2374  0.1600
20704W        W36778  16.613   6.929  14.744 -0.0009 -0.1438  0.1346
20705W        W36779  13.035   9.415  14.954  0.0712 -0.2688 -0.0590
20706W        W36780   1.380   3.253  13.871  0.0331 -0.3074 -0.0100
20707W        W36781  11.659  10.030  13.276  0.2549 -0.0154 -0.2389
20708W        W36782   5.485   6.567   0.932  0.0198  0.0071  0.1138
20709W        W36783   5.172   4.684   2.551  0.1645 -0.0364  0.4803
20710W        W36784   6.231   5.128   3.500 -0.2366  0.5716  0.2658
20711W        W36785   5.127  13.378   4.821  0.2804 -0.4459 -0.0953
20712W        W36786  12.029  11.793  15.598 -0.3760  0.2370 -0.0270
20713W        W36787   2.923  15.301   2.093  0.0864  0.1416  0.2621
20714W        W36788   1.354  15.625  11.727 -0.2446 -0.3624 -0.0185
20715W        W36789   0.756   5.371  11.306  0.5232 -0.1417  0.0867
20716W        W36790   9.094  14.381   3.578 -0.0939  0.0421  0.0863
20717W        W36791   4.317   3.704  11.223  0.2175  0.2443 -0.0443
20718W        W36792   2.499  15.277  14.812 -0.0983  0.1444  0.3102
20719W        W36793  16.687   3.085   3.152 -0.0256  0.2221  0.1140
20720W        W36794   1.821   0.210   5.546 -0.1999 -0.0417  0.1839
20721W        W36795   5.781   3.301  16.020  0.3867  0.0773 -0.0329
20722W        W36796   5.532  13.966   1.187  0.0436 -0.2055 -0.0736
20723W        W36797  11.549  15.535  13.066 -0.0744  0.1935 -0.1124
20724W        W36798   1.562  15.533  12.644  0.0087 -0.0906  0.2699
20725W        W36799   4.804   1.618  11.751  0.0141  0.2568  0.1195
20726W        W36800  10.560   4.734   4.352 -0.3141  0.0522  0.1230
20727W        W36801   0.883   1.185  14.520 -0.1155  0.2448  0.0160
20728W        W36802   2.192   2.927   3.507  0.1569  0.0060  0.0045
20729W        W36803  15.543   6.205  16.490  0.0257  0.3373  0.0188
20730W        W36804  12.549   2.697  11.787 -0.0322  0.1462  0.3166
20731W        W36805   5.761  17.614  13.189  0.2000 -0.2273  0.0935
20732W        W36806  12.548  15.728  12.840 -0.2228 -0.0693 -0.0478
20733W        W36807  10.071   6.757  15.989 -0.3148  0.0473  0.3202
20734W        W36808   1.156  13.625  16.233  0.4149  0.3758  0.0428
20735W        W36809  14.872  12.963   3.362 -0.2431  0.0886 -0.0309
20736W        W36810  14.223  16.521   0.233  0.2308  0.0919 -0.0523
20737W        W36811   7.945  12.153   3.662 -0.2472 -0.0220 -0.3375
20738W        W36812  13.901   6.134   1.675 -0.3382 -0.1430  0.0330
20739W        W36813  14.034   2.504  11.742 -0.1373  0.7044 -0.4056
20740W        W36814   8.480  14.642   5.199  0.4253 -0.0770 -0.2820
20741W        W36815   3.278  13.925  11.636 -0.0461  0.1585  0.2571
20742W        W36816   8.562   1.772  14.673  0.1498 -0.2717  0.0819
20743W        W36817  16.141   6.159   0.734 -0.2453 -0.1716 -0.1759
20744W        W36818  16.689  11.296  14.038 -0.0237 -0.1752 -0.0893
20745W        W36819   0.235  13.809  14.700  0.0971  0.1151  0.1123
20746W        W36820  16.867   0.130   3.956 -0.2979  0.0051 -0.3887
20747W        W36821   2.412   3.574  13.616 -0.0979 -0.2456  0.0684
20748W        W36822  17.645  10.984   1.895  0.0673  0.1166  0.0384
20749W        W36823  17.888  11.390   2.141  0.3236  0.0794  0.3948
20750W        W36824   7.924   7.827  10.971  0.0993 -0.2435  0.2703
20751W        W36825  13.760  11.612  13.103  0.2809 -0.0833  0.3079
20752W        W36826  16.551  17.309  15.938  0.0071  0.0491  0.2613
20753W        W36827   6.898   7.151   5.666  0.0237 -0.1299 -0.1063
20754W        W36828   4.091   3.156  12.427  0.1538 -0.0580  0.0171
20755W        W36829   1.976   4.677  14.187  0.0223 -0.0488  0.1935
20756W        W36830   0.873   5.485   2.972  0.0841 -0.3170  0.1275
20757W        W36831   1.497   1.326   2.922 -0.0447 -0.0853  0.2892
20758W        W36832   9.468   6.688  11.677  0.1251 -0.0279  0.3423
20759W        W36833   1.986   6.045  12.321  0.1495  0.2713  0.0400
20760W        W36834   3.574  11.504   5.348  0.3959 -0.0793  0.1130
20761W        W36835  17.396  16.669   5.235  0.1398  0.0205  0.0716
20762W        W36836  15.403   9.866  12.903  0.2892  0.1196  0.4339
20763W        W36837   2.854   6.910  11.758 -0.2005 -0.1029 -0.0382
20764W        W36838   8.862  17.463  15.456  0.2572 -0.0377 -0.2419
20765W        W36839   5.096  15.851   2.665  0.0697 -0.2239  0.0731
20766W        W36840   1.346  12.574   3.627  0.0005 -0.0697 -0.1139
20767W        W36841   7.907   2.639  14.892 -0.3025  0.0530 -0.2902
20768W        W36842   1.695  11.631   2.789 -0.1952  0.0105  0.0207
20769W        W36843   6.711   0.967   4.219 -0.0784  0.0216 -0.2211
20770W        W36844   5.825  14.595   6.281  0.2022 -0.2568  0.0669
20771W        W36845  16.174  12.634   5.211  0.0162  0.1138 -0.0373
20772W        W36846   9.419  17.446  12.733  0.0715  0.0765  0.2702
20773W        W36847   6.839   7.829   5.105  0.0018 -0.0375  0.0840
20774W        W36848   5.770   6.947  14.601 -0.0611 -0.1976  0.2559
20775W        W36849   1.794  13.444   1.632  0.1753 -0.1605  0.1163
20776W        W36850   0.870  16.119   4.374 -0.3452  0.0602 -0.0279
20777W        W36851   1.150  10.927   0.733 -0.1403  0.1141  0.3185
20778W        W36852   9.358  16.550  13.743  0.2047 -0.1019 -0.0644
20779W        W36853  10.593  17.499  16.445  0.1236  0.4028  0.0383
20780W        W36854  13.467  13.561   1.610  0.1885 -0.2872 -0.0242
20781W        W36855   4.251   0.716  15.125  0.2049 -0.1668 -0.1230
20782W        W36856   2.370   3.695  12.229 -0.0060  0.0619  0.3564
20783W        W36857   5.264  11.604   1.031  0.0244  0.1784 -0.0804
20784W        W36858   1.605   8.458   2.677  0.1072 -0.0997 -0.0260
20785W        W36859   8.672   1.592   2.978  0.1178 -0.0994  0.0583
20786W        W36860   8.328   2.259  14.818  0.0605  0.1171  0.0568
20787W        W36861  17.778   1.433   3.415 -0.3362  0.0223 -0.1173
20788W        W36862   9.077   2.470   0.485 -0.3233  0.1647  0.3094
20789W        W36863  12.565   1.459   3.246  0.0030  0.0148 -0.1416
20790W        W36864  10.474   6.103   3.377 -0.0432  0.0131 -0.6593
20791W        W36865  10.934   2.955   2.825 -0.1069  0.2672  0.0972
20792W        W36866  17.746   3.043   0.703  0.4303  0.1950 -0.0376
20793W        W36867  12.940  15.069   0.661 -0.1235 -0.2756  0.1002
20794W        W36868   6.846   4.028  13.871  0.0978 -0.0875  0.4583
20795W        W36869  13.684   5.624  15.491  0.1293 -0.1030 -0.0859
20796W        W36870  11.594  15.486  12.547 -0.0805  0.3654 -0.1017
20797W        W36871  11.276  16.394  15.920  0.0584  0.1078  0.2070
20798W        W36872   0.659   4.530   1.022  0.0554 -0.0723 -0.1450
20799W        W36873   0.341   7.765  14.311  0.1369  0.1025 -0.1630
20800W        W36874   1.142   9.381   5.118 -0.0404 -0.2962  0.0272
20801W        W36875   2.981  11.422  13.554  0.0844  0.2837  0.0160
20802W        W36876   8.134  12.156  12.732 -0.1114  0.2030 -0.0942
20803W        W36877   4.064   8.511   2.317  0.3282  0.1419  0.0449
20804W        W36878  18.116  10.537  16.460  0.2489 -0.2096 -0.2428
20805W        W36879   9.579   6.650  15.643  0.4154 -0.2113  0.1990
20806W        W36880   0.800   1.550  13.014 -0.1434 -0.1776 -0.2087
20807W        W36881  12.939   5.404  16.189  0.1127 -0.0507  0.0469
20808W        W36882  15.836   0.988  13.944 -0.2032  0.0279 -0.2259
20809W        W36883   7.635   6.000  15.608  0.0640 -0.0379 -0.1417
20810W        W36884  13.047   6.977  15.515  0.2095 -0.2378  0.1404
20811W        W36885   0.030   8.152  13.531 -0.1984  0.1735 -0.1171
20812W        W36886   1.539   7.512   0.160 -0.1533  0.2874  0.0762
20813W        W36887  13.373  15.562  13.605  0.0704  0.2911  0.2625
20814W        W36888  12.407   3.013  16.305 -0.0826  0.0777  0.2564
20815W        W36889  16.152   0.306  13.107  0.0205 -0.0106 -0.2370
20816W        W36890   6.260   9.327   3.034 -0.0125 -0.0593  0.0855
20817W        W36891   2.549   1.793  11.447 -0.0798 -0.2200  0.1038
20818W        W36892  17.385   5.663   4.343 -0.1802  0.3141 -0.1337
20819W        W36893   8.990   0.626  12.796 -0.1337 -0.1308 -0.1007
20820W        W36894  16.624   9.775   2.594 -0.0261  0.2563  0.3510
20821W        W36895  16.911  10.347  12.006 -0.3657  0.0756  0.0762
20822W        W36896  11.624   2.224   6.448 -0.0646  0.0233  0.0061
20823W        W36897  15.171   4.897  14.873  0.0118 -0.0904  0.1361
20824W        W36898  11.652   5.922   0.837 -0.0795 -0.1150  0.1257
20825W        W36899   7.833   8.452  14.373 -0.0130 -0.0575  0.0340
20826W        W36900  14.524  15.569   0.542 -0.2204 -0.2162  0.2158
20827W        W36901   4.366  14.057   0.096 -0.1263 -0.1666 -0.2087
20828W        W36902  11.284  10.174   1.764  0.1700  0.0289  0.0263
20829W        W36903   1.102  16.993   4.866  0.3735  0.1217 -0.1674
20830W        W36904  13.973   1.117   4.938 -0.0602 -0.0820 -0.1616
20831W        W36905  17.331   9.623   0.990 -0.0924 -0.0243 -0.3298
20832W        W36906  15.960  14.790   0.523 -0.0684  0.1715 -0.0249
20833W        W36907   5.476  16.258  15.675  0.1803 -0.0758  0.0633
20834W        W36908   3.350   7.544  14.771  0.1913 -0.1179 -0.1485
20835W        W36909  13.412   3.542  16.417  0.4777 -0.3268 -0.1583
20836W        W36910  11.730  12.670  13.584  0.1343  0.0769  0.0645
20837W        W36911  10.436   2.254   5.632  0.0998 -0.0359  0.2419
20838W        W36912  12.305  14.262   1.388  0.0225 -0.0599 -0.0643
20839W        W36913   9.466  10.193   5.442 -0.3362 -0.3845  0.2162
20840W        W36914   7.334   5.061   3.777  0.2230 -0.1899 -0.1080
20841W        W36915  14.938  17.737  12.401  0.3284  0.1473  0.2044
20842W        W36916   0.649   6.550  13.980 -0.0253  0.3070 -0.2185
20843W        W36917  10.375   8.668  16.270  0.0641  0.1406  0.2503
20844W        W36918   7.690  17.408   4.108  0.1048 -0.1428 -0.3401
20845W        W36919  16.089   9.360  11.495  0.0350 -0.1628  0.1744
20846W        W36920  10.392  14.233  11.405  0.2132  0.2475  0.0739
20847W        W36921  12.616  16.141  16.443 -0.1085  0.3323  0.1050
20848W        W36922  13.034   6.530   1.932  0.2552  0.1112 -0.2159
20849W        W36923  12.416   9.489   3.010  0.2487 -0.1206 -0.1431
20850W        W36924   7.882  11.637  13.612  0.0230  0.1202  0.1105
20851W        W36925   6.211   7.019  14.241  0.2515  0.1419  0.3617
20852W        W36926  13.048   5.860  13.892  0.1174  0.0812  0.0482
20853W        W36927   6.239   0.912   4.116  0.2188  0.0059 -0.0000
20854W        W36928   9.309  10.852   0.781  0.1025 -0.1413 -0.1263
20855W        W36929   3.990   8.742   5.674 -0.1066  0.2454 -0.1297
20856W        W36930   6.867   6.447  16.092  0.1419  0.0312  0.0219
20857W        W36931   9.320   6.367  14.514  0.1516  0.3059 -0.1933
20858W        W36932  11.037   5.217  12.601  0.1035  0.0975 -0.1014
20859W        W36933  13.717  16.405  12.633  0.1116 -0.1878 -0.0161
20860W        W36934  14.174  12.211   1.532 -0.0545  0.2848  0.0865
20861W        W36935  15.437   4.722   0.681  0.2096 -0.3917  0.2243
20862W        W36936   5.499   3.633  15.780  0.0692  0.0873  0.0878
20863W        W36937  14.059   5.475   0.012  0.1132 -0.0643  0.1520
20864W        W36938   8.402  14.808  14.333 -0.0636  0.1129 -0.3009
20865W        W36939   8.254  10.000   2.370  0.1458 -0.0292  0.0829
20866W        W36940   6.323  16.579  13.004 -0.2023 -0.0914 -0.5311
20867W        W36941   3.324   2.382   2.008  0.2866  0.0457  0.0583
20868W        W36942  10.560   6.411   6.085 -0.0746  0.0344 -0.2096
20869W        W36943  13.142   7.241  11.079 -0.0916 -0.0040  0.0609
20870W        W36944   1.584  14.334   4.447  0.2432  0.1505 -0.1452
20871W        W36945  14.921  11.119   1.164  0.0376  0.1173  0.0007
20872W        W36946   7.649   4.514   1.636  0.1812  0.0310 -0.0356
20873W        W36947   3.941  10.815  12.999  0.0570  0.1587  0.2165
20874W        W36948  12.560   4.671   3.727  0.1817 -0.2066  0.2840
20875W        W36949   4.655  16.194  12.248  0.0775 -0.2159  0.0867
20876W        W36950  12.859   3.194  16.375 -0.1579  0.1347  0.2155
20877W        W36951   2.327   6.317   5.208 -0.1335  0.0522  0.2735
20878W        W36952   9.163  10.107   1.981  0.0336 -0.0389 -0.0851
20879W        W36953   6.199  16.263  14.716 -0.2955 -0.0917 -0.0561
20880W        W36954  17.904  17.511   4.187  0.2071 -0.1198  0.1348
20881W        W36955   6.838   8.434  12.299 -0.0303 -0.2004 -0.1058
20882W        W36956  12.614  14.219   4.179  0.1693  0.2081  0.2012
20883W        W36957  10.913   8.785  13.230  0.1693  0.2435 -0.3592
20884W        W36958   6.922   2.009  14.655  0.1841 -0.1473 -0.1848
20885W        W36959   1.450   0.622   2.655  0.1409  0.0783 -0.1292
20886W        W36960  10.891   5.523   2.928 -0.2730  0.3048 -0.2415
20887W        W36961   6.994   6.779  11.565  0.0574 -0.0861  0.3523
20888W        W36962  15.682  16.056   3.384  0.0441 -0.3395 -0.0572
20889W        W36963  18.128   8.344  14.023 -0.1047 -0.0695  0.2931
20890W        W36964   8.140  17.414   4.753 -0.3098  0.2245 -0.0898
20891W        W36965   0.872  16.977   1.413 -0.2076 -0.1400 -0.1295
20892W        W36966   4.694  15.916  13.587 -0.1986 -0.0073 -0.2163
20893W        W36967   1.875   4.445  12.428  0.0445 -0.0624  0.1973
20894W        W36968  18.175   8.445   2.875  0.1733  0.3024 -0.1661
20895W        W36969  10.904   0.871  13.071 -0.3117  0.1491  0.1878
20896W        W36970  15.455   6.348   2.998  0.0314 -0.2907 -0.0014
20897W        W36971   9.734   9.193  11.864 -0.0041  0.2027 -0.0714
20898W        W36972   0.587   2.947  14.200 -0.1102  0.1758 -0.1506
20899W        W36973   1.439   0.113   4.307  0.0251 -0.1061 -0.0564
20900W        W36974  15.074   9.131   0.338  0.1343 -0.4878  0.0684
20901W        W36975  10.174  14.526  13.458 -0.2258 -0.0599 -0.3298
20902W        W36976  11.114   4.688   2.603  0.3060 -0.0764  0.0610
20903W        W36977   1.016   0.188   3.550 -0.1857  0.2171  0.0661
20904W        W36978   2.768  16.778  13.681 -0.0072 -0.1775  0.1125
20905W        W36979  14.027   5.855  11.608 -0.0742 -0.0915 -0.3719
20906W        W36980   5.198   5.404   2.019 -0.1264 -0.1993  0.2153
20907W        W36981   3.504   3.079   1.345 -0.0902 -0.0751 -0.2370
20908W        W36982   8.735  11.700  12.101 -0.0521  0.1226 -0.1745
20909W        W36983  12.498   5.516   0.891  0.3194 -0.1384 -0.2506
20910W        W36984  17.555  10.507  12.504  0.1059  0.2803  0.0432
20911W        W36985  14.813  15.660   0.144 -0.3923 -0.0265  0.1116
20912W        W36986   8.158   2.035   5.865  0.0160 -0.2619 -0.0356
20913W        W36987   9.379   3.559   1.307 -0.2354  0.0381  0.1744
20914W        W36988  16.196   8.819  11.474 -0.2331  0.0808  0.1725
20915W        W36989  18.087   5.638  12.454  0.1211 -0.1780 -0.0009
20916W        W36990   1.458  15.998   5.581  0.3268 -0.2945 -0.0168
20917W        W36991   9.579  16.769   4.211  0.4499  0.3385  0.0490
20918W        W36992   8.476  17.905  14.320 -0.4792 -0.3375 -0.2061
20919W        W36993   2.540   7.420  12.129  0.0484 -0.0046 -0.5349
20920W        W36994   7.669   3.586   2.866  0.2432 -0.0019  0.0785
20921W        W36995   3.140  17.910  14.277  0.0152  0.0779  0.0365
20922W        W36996  16.115   9.160   2.349 -0.1407  0.0978  0.3887
20923W        W36997  10.448   2.152   0.020  0.3343  0.0262  0.0821
20924W        W36998   0.073  14.717   0.920  0.0192  0.0609  0.0209
20925W        W36999   4.298  12.968   0.446  0.2767  0.0753  0.0110
20926W        W37000  15.775  12.746   0.976 -0.1586 -0.0167 -0.4394
20927W        W37001  11.805   8.656   2.602 -0.0211  0.2651  0.1371
20928W        W37002   2.423   1.498   2.377 -0.2331 -0.3438  0.1053
20929W        W37003   7.280   6.338  13.422  0.2468 -0.1302  0.1818
20930W        W37004  11.998  14.522  11.682  0.0499 -0.2355  0.0872
20931W        W37005   3.446  10.203   3.423  0.3995  0.1315 -0.1154
20932W        W37006   2.476   4.258   4.405 -0.1470 -0.0432 -0.2772
20933W        W37007  11.481  17.941  16.038 -0.2558  0.0774 -0.0931
20934W        W37008   7.504   9.015  15.743  0.0354  0.2904 -0.6059
20935W        W37009   6.092   7.749   1.464  0.0660  0.2207 -0.2416
20936W        W37010   9.228  17.753   2.548 -0.0723  0.0415  0.0914
20937W        W37011   2.248   9.972   1.982 -0.1826 -0.2331  0.1288
20938W        W37012   4.666  17.367   2.058 -0.1286  0.0778 -0.2008
20939W        W37013   3.924   7.665   2.324  0.1080  0.3454  0.0983
20940W        W37014   7.777   0.312   5.736  0.2223  0.0607  0.0484
20941W        W37015  11.638   9.971  16.269  0.0308  0.2285 -0.0944
20942W        W37016   2.006  17.908   4.162 -0.0514  0.0858 -0.0806
20943W        W37017   4.732   7.466   5.024  0.1327  0.0922  0.0410
20944W        W37018   9.167   2.296   5.651  0.1697  0.0416 -0.0737
20945W        W37019  16.787   5.705  15.643  0.0884 -0.0070  0.3128
20946W        W37020  16.809   4.549   1.115  0.1118  0.0175 -0.4462
20947W        W37021   9.735   5.045   0.398 -0.2338  0.1947  0.1311
20948W        W37022  15.640   4.039  10.644 -0.1712  0.0953  0.2989
20949W        W37023  16.277   4.701   0.677  0.3183 -0.1161  0.0768
20950W        W37024  15.348  17.362  16.026 -0.0868  0.0403  0.0322
20951W        W37025   0.429   4.361   4.296 -0.1220  0.6411  0.2616
20952W        W37026   2.896   1.390   1.649 -0.0962 -0.0389 -0.0293
20953W        W37027  15.923  17.742   2.835 -0.0618  0.1004  0.0655
20954W        W37028  13.438   1.858   2.834 -0.0049  0.2011 -0.3007
20955W        W37029  18.204  15.024  15.219  0.1504  0.0493 -0.0496
20956W        W37030   7.434  17.565  13.226 -0.1142  0.1191  0.1945
20957W        W37031   8.080  14.793  14.736  0.2286 -0.1514 -0.0998
20958W        W37032  17.939  13.541  14.022  0.5456  0.0267 -0.2228
20959W        W37033   2.668  16.356  14.254  0.2002  0.1578 -0.0732
20960W        W37034   5.695   7.949   0.598  0.1030 -0.0117  0.1075
20961W        W37035   4.798  12.602  11.484 -0.1827 -0.0872  0.1093
20962W        W37036   3.728  12.789  12.223 -0.1499  0.1553  0.0084
20963W        W37037   2.418   0.600   3.390  0.2742  0.3608 -0.1449
20964W        W37038  14.540   7.239   0.373  0.1837 -0.0126  0.1655
20965W        W37039   7.016  10.782   3.257  0.1140  0.3828  0.2424
20966W        W37040   1.904   4.853   4.096  0.2976  0.2698  0.2369
20967W        W37041   5.197  10.991   3.295  0.1457  0.1995 -0.0623
20968W        W37042   1.127   8.530   1.563  0.0737 -0.0286  0.0978
20969W        W37043  15.071  18.236  15.110 -0.1909 -0.1389  0.0065
20970W        W37044   2.208   8.260   0.655  0.0780  0.1302 -0.0349
20971W        W37045  10.844  15.905   4.657  0.0904 -0.0237  0.2383
20972W        W37046  13.306   8.216  14.121 -0.0295 -0.0242 -0.1145
20973W        W37047  11.312   3.126   1.855  0.1547 -0.0275  0.0151
20974W        W37048   0.245   3.944  13.737 -0.3113 -0.0469 -0.1398
20975W        W37049  12.855   3.236   3.380 -0.1550 -0.0676 -0.5372
20976W        W37050   7.902   0.236  13.161  0.1903  0.0051  0.0330
20977W        W37051   9.645  15.562   4.361  0.0591 -0.0153  0.1602
20978W        W37052  13.745   2.196  12.083 -0.1166 -0.0594 -0.2349
20979W        W37053  15.784   4.977  14.964 -0.0489 -0.0432  0.0627
20980W        W37054   6.759  10.693  13.801 -0.4002 -0.0561  0.0668
20981W        W37055  16.950  17.917   3.018 -0.4132  0.0874  0.0136
20982W        W37056  17.501  13.063   4.762 -0.4548  0.1679  0.1500
20983W        W37057  18.002   4.717   1.756  0.3854 -0.1573 -0.0259
20984W        W37058  10.408  15.959   3.701  0.2920  0.0741  0.1039
20985W        W37059  10.535   3.734  15.998 -0.2917 -0.2255 -0.2835
20986W        W37060  15.069   2.779   0.781  0.0742  0.0847 -0.2062
20987W        W37061   7.224  17.931   0.868  0.2796 -0.3063  0.0789
20988W        W37062  14.327   6.718  10.990 -0.0377  0.2450  0.3291
20989W        W37063   4.407   2.341   3.180  0.0590  0.0476 -0.2751
20990W        W37064   5.576  12.176  12.927 -0.1010  0.2476  0.2622
20991W        W37065   9.349  16.213   3.589 -0.2154 -0.1333  0.0753
20992W        W37066   4.862  17.841   0.724  0.3033  0.0395  0.0681
20993W        W37067   2.828   6.207   1.158  0.1711 -0.1603 -0.2493
20994W        W37068  12.598  11.724   5.450 -0.0645 -0.0359 -0.2350
20995W        W37069  16.004   1.500  13.142  0.0135 -0.0229  0.0961
20996W        W37070   2.452  18.236  16.388  0.0572  0.1431 -0.0337
20997W        W37071  17.611  10.970   4.222 -0.2003  0.0786  0.3232
20998W        W37072   8.217   4.789   0.662 -0.1509  0.1910 -0.1400
20999W        W37073   0.702   6.883  12.351  0.3011 -0.3405 -0.1246
21000W        W37074   8.420   4.840  14.737  0.6351  0.1580  0.1075
21001W        W37075   2.122  17.802   5.201  0.0295  0.0276 -0.3469
21002W        W37076   0.658  10.437  11.907 -0.1343  0.0762  0.2036
21003W        W37077   5.421   3.679   5.431 -0.3597 -0.2199  0.3996
21004W        W37078  15.992   7.695  11.115 -0.1795  0.1930  0.0163
21005W        W37079   0.085   6.143   4.908 -0.0436 -0.1470 -0.0951
21006W        W37080  11.490  15.207   5.097  0.0429 -0.1769  0.2383
21007W        W37081   0.368   3.724  16.026  0.4337 -0.2653 -0.1316
21008W        W37082   0.770  13.346  15.854 -0.0624 -0.0143 -0.0211
21009W        W37083  12.310   6.400  15.382 -0.1587 -0.1248 -0.0339
21010W        W37084   3.930  11.449   1.960 -0.1199 -0.0492  0.0251
21011W        W37085   4.002  16.010  13.855  0.1025  0.3393 -0.0816
21012W        W37086  13.704   7.856   5.165 -0.2512 -0.0128 -0.0076
21013W        W37087  16.790  17.761  10.465  0.2321 -0.0059  0.1441
21014W        W37088  12.020  13.442   5.325  0.0035  0.3012 -0.2122
21015W        W37089  14.700   9.957  13.985  0.1903  0.2126 -0.3556
21016W        W37090  10.980  12.373   3.555  0.0488  0.0751  0.2111
21017W        W37091   2.400   9.511  12.166 -0.0211  0.0004  0.0582
21018W        W37092  16.171   9.523   2.746 -0.0315 -0.2994  0.1164
21019W        W37093   0.048  10.470  15.499 -0.0147 -0.1031  0.3054
21020W        W37094   9.506   2.103   2.146  0.0655  0.3210 -0.2084
21021W        W37095  17.394  11.026  14.683  0.1022  0.0392 -0.0106
21022W        W37096   0.950   5.472  14.778  0.0160 -0.0271  0.0850
21023W        W37097   0.719  13.451   4.998  0.3654 -0.2358 -0.0119
21024W        W37098  15.249   7.967   5.213 -0.0819  0.1099  0.0615
21025W        W37099   0.356  11.160  11.474  0.4449  0.0507  0.0016
21026W        W37100   4.354   9.352  13.837 -0.2190 -0.1825 -0.2304
21027W        W37101   3.644   2.745  14.473  0.4410 -0.2689  0.3513
21028W        W37102   9.437   2.636  12.468 -0.0535  0.2416  0.0230
21029W        W37103   9.996   1.335  14.874 -0.0607  0.1365 -0.0617
21030W        W37104  10.639   4.484   4.827  0.0532 -0.0627 -0.1672
21031W        W37105   0.738  11.217  16.150 -0.2339 -0.3846  0.1055
21032W        W37106  18.123  12.952  16.264 -0.2835  0.1109 -0.0048
21033W        W37107  15.187  15.340  10.561 -0.1909 -0.1281 -0.0737
21034W        W37108  13.188   0.166  15.580 -0.0913  0.1521 -0.0078
21035W        W37109   9.310   6.414   0.456  0.0906 -0.2748 -0.1111
21036W        W37110  12.806   8.284   0.056  0.0706 -0.0665 -0.1652
21037W        W37111   3.324   4.570   2.596  0.1633 -0.0747 -0.1351
21038W        W37112   9.689   0.350   2.428  0.1262 -0.0879 -0.0167
21039W        W37113   3.831   1.765   2.426  0.0426 -0.2031 -0.0583
21040W        W37114   4.649  10.402  12.847 -0.1318  0.0006  0.1267
21041W        W37115   0.927   5.473   4.327  0.0665  0.2671 -0.2747
21042W        W37116  13.384   3.838   4.412 -0.0094  0.0181 -0.2046
21043W        W37117   6.409   2.150   1.488 -0.1259  0.0211 -0.0376
21044W        W37118   2.973  15.814   2.251  0.1795 -0.4249  0.2082
21045W        W37119   1.502   2.725   1.001  0.0603  0.1574  0.2259
21046W        W37120  17.432  15.819   4.636 -0.1410 -0.2104  0.5243
21047W        W37121   3.896   5.028  13.532 -0.4288  0.1900 -0.1792
21048W        W37122  18.130  10.577   4.832 -0.0873  0.1078 -0.1886
21049W        W37123  14.536  15.054   0.500 -0.0509 -0.1727 -0.0895
21050W        W37124   1.975   9.198   3.106 -0.1339 -0.0201 -0.0274
21051W        W37125   6.070  12.091  13.058  0.0960 -0.0586 -0.3625
21052W        W37126   2.742   7.933   5.443 -0.0057 -0.3289  0.4127
21053W        W37127   2.862   9.991  16.443 -0.0347  0.0050 -0.0398
21054W        W37128  18.185  12.427  13.125 -0.0441  0.2511  0.0362
21055W        W37129   3.363  17.889  13.800  0.2620 -0.2258 -0.0679
21056W        W37130   1.759  10.179  14.622 -0.0958 -0.1241  0.0491
21057W        W37131  12.893  10.048  13.259  0.2821  0.0302 -0.0900
21058W        W37132  14.165  11.079   6.370 -0.1948 -0.0189  0.1329
21059W        W37133   9.909   3.159  16.467 -0.3075 -0.1205 -0.0878
21060W        W37134  14.426   8.602   1.974  0.0882  0.0248  0.1829
21061W        W37135   4.992   9.065  12.101 -0.0987 -0.2037  0.1692
21062W        W37136  12.986  11.100  12.457  0.2468  0.2597 -0.4400
21063W        W37137   1.155  10.378  13.113 -0.3275  0.2690 -0.3210
21064W        W37138   4.718  12.226   2.368  0.0476 -0.0063 -0.0177
21065W        W37139  14.762  11.435  12.785 -0.0583 -0.2732  0.1309
21066W        W37140  11.913   5.117   4.811 -0.2448 -0.0412  0.1092
21067W        W37141  18.093  16.146  12.052  0.0476  0.4708  0.0403
21068W        W37142   4.190  10.991   2.313  0.1298 -0.1542 -0.2256
21069W        W37143   8.117  18.101   1.836 -0.0524 -0.0762 -0.1135
21070W        W37144   8.623  16.103   2.517 -0.1632 -0.3316 -0.2109
21071W        W37145   0.102  11.057   4.886 -0.5835 -0.3658  0.0210
21072W        W37146  13.041   0.239  13.470 -0.2047 -0.0412  0.4738
21073W        W37147  15.067  11.002   2.501  0.0156  0.2156 -0.4296
21074W        W37148   3.331   8.045  11.366  0.3191 -0.0011  0.1347
21075W        W37149  11.506   2.618   3.093  0.3057  0.2569 -0.0789
21076W        W37150   0.339  14.699   2.198  0.2596  0.1312 -0.0914
21077W        W37151  17.980  14.974  12.681 -0.0776  0.1158  0.1182
21078W        W37152  10.828   0.236  14.164 -0.0317 -0.2899 -0.0968
21079W        W37153   5.493  10.874   0.582 -0.0200  0.1403  0.0771
21080W        W37154  16.607   8.975  16.126  0.0157  0.0278 -0.2815
21081W        W37155  10.320  17.023  12.619  0.0868  0.4589 -0.0412
21082W        W37156   2.986   9.006  12.752 -0.0623 -0.1639 -0.2948
21083W        W37157   2.803   4.577   4.765  0.1190 -0.1294  0.1006
21084W        W37158   4.061  17.525   3.789 -0.5324 -0.0999 -0.1871
21085W        W37159   5.668   6.285  15.440  0.2923 -0.4153 -0.3361
21086W        W37160  17.359   6.630  15.036 -0.1301 -0.0905  0.2310
21087W        W37161   6.778  13.341  15.338  0.1244  0.3174 -0.1997
21088W        W37162   7.474   4.157  13.686  0.0236  0.1906  0.0972
21089W        W37163   7.932  12.392  11.090  0.0295  0.0847  0.1157
21090W        W37164  13.952  15.709   5.416 -0.4038 -0.0379 -0.1744
21091W        W37165  16.249  16.946  13.538  0.0356 -0.1940 -0.1731
21092W        W37166   6.412   1.155  14.302 -0.0134 -0.1912  0.0155
21093W        W37167   5.655   9.457   1.997 -0.1411  0.0761 -0.1099
21094W        W37168   5.335  13.607  15.493  0.2581 -0.2536  0.1407
21095W        W37169   4.638   1.577   4.033  0.0229 -0.1493 -0.0526
21096W        W37170  18.058  15.520  12.669  0.1099  0.1814  0.0483
21097W        W37171   5.024  15.895   3.918  0.5227  0.1731 -0.2625
21098W        W37172  14.743   4.518  15.426 -0.0910 -0.0044 -0.1517
21099W        W37173   5.175   2.512  14.595  0.3310  0.2420 -0.0438
21100W        W37174  16.907  15.348   5.475  0.2357 -0.0120 -0.1974
21101W        W37175   5.807   1.808   4.816  0.2796 -0.2575 -0.0896
21102W        W37176  14.027  15.367   0.439 -0.2124 -0.0919  0.2305
21103W        W37177  16.961   5.020  14.198  0.1800 -0.1408 -0.0445
21104W        W37178   5.076   8.094  15.213  0.0703 -0.0328  0.0000
21105W        W37179  16.897   1.141  15.003 -0.2339 -0.0316 -0.0077
21106W        W37180   1.844  10.825   2.105  0.2050  0.1263  0.4053
21107W        W37181  17.115  11.258   3.518  0.0731  0.1300 -0.3578
21108W        W37182  10.256  12.469   2.390 -0.0272 -0.0247 -0.0852
21109W        W37183   7.056   9.214  15.882 -0.0327 -0.0251  0.0262
21110W        W37184  17.007  15.326   4.086  0.0988 -0.0485 -0.0637
21111W        W37185  13.029  12.797   4.005 -0.1438  0.0206  0.1391
21112W        W37186   6.070  14.820   3.568 -0.0140 -0.3523 -0.2147
21113W        W37187  12.321   1.710  12.933  0.0979 -0.5652 -0.1754
21114W        W37188   1.764   4.587   0.523 -0.1774  0.3639 -0.1545
21115W        W37189  17.605  13.872  14.247  0.1220 -0.0419 -0.0805
21116W        W37190  17.916   5.477  14.064 -0.0215  0.0234 -0.0215
21117W        W37191  12.220  16.147  15.534 -0.1860 -0.2336 -0.3756
21118W        W37192  15.157  12.997   4.782 -0.0446  0.0120 -0.0276
21119W        W37193  13.519  15.085  12.121 -0.3243 -0.0357  0.1304
21120W        W37194   8.692   7.665  11.585  0.0871  0.2306  0.0560
21121W        W37195   9.607  15.658   5.117  0.1617  0.1637  0.0803
21122W        W37196  10.045  15.118  13.608  0.2317  0.2309 -0.0026
21123W        W37197  16.937  17.188  15.526 -0.0010  0.0593 -0.1272
21124W        W37198   9.224   3.689   0.318 -0.3316  0.3859 -0.2323
21125W        W37199  16.032  16.468   3.461  0.0680  0.0962  0.0520
21126W        W37200   8.465   3.007  14.293  0.1922 -0.1702 -0.1623
21127W        W37201  15.931  12.835   1.830 -0.3804 -0.0479 -0.2414
21128W        W37202   3.822   0.350   6.439 -0.0811 -0.0831  0.0022
21129W        W37203   5.612   1.942  12.236  0.3276 -0.3803  0.1712
21130W        W37204   6.178  17.187   1.162 -0.1719  0.2857  0.2585
21131W        W37205  16.471   0.324   4.269 -0.0455  0.0496  0.1310
21132W        W37206   8.304  14.115  11.300 -0.1404 -0.1702 -0.1474
21133W        W37207   1.803   5.125   3.662  0.0861  0.2682 -0.0364
21134W        W37208  16.420   1.814   0.488 -0.2655 -0.1957  0.1681
21135W        W37209  13.111   4.610   5.208  0.0779 -0.0325 -0.1478
21136W        W37210   8.915  11.248  15.605  0.0937 -0.3654 -0.2258
21137W        W37211   1.371   3.266   2.453  0.1235  0.0861 -0.0489
21138W        W37212   2.274   8.808   0.573 -0.0858  0.0525 -0.0368
21139W        W37213  15.274  11.150   1.604  0.0703  0.0075  0.0107
21140W        W37214  11.155  18.002  14.777 -0.0281  0.0245  0.1520
21141W        W37215   9.419  10.863   3.459  0.1203  0.1513 -0.0592
21142W        W37216  15.070  11.506   4.407 -0.0785  0.4849 -0.3436
21143W        W37217  16.360  16.076  12.506 -0.1234 -0.1032 -0.1390
21144W        W37218  12.271   3.740   3.080  0.2330  0.1259  0.4316
21145W        W37219   2.895  12.778  14.621 -0.2636  0.1263 -0.0672
21146W        W37220  12.070  17.329   1.200 -0.0736 -0.1673  0.0729
21147W        W37221  16.701  12.422  15.916 -0.0050  0.0114  0.3003
21148W        W37222   4.477  10.265   0.479  0.0919 -0.3043 -0.0964
21149W        W37223  17.475   6.825  13.101 -0.1789  0.0582 -0.1358
21150W        W37224  17.125  12.307  13.068 -0.0023  0.2169 -0.4580
21151W        W37225  18.099  10.205   3.683  0.0075 -0.0250  0.1078
21152W        W37226  11.849   0.953  13.906  0.1386  0.2275 -0.1452
21153W        W37227   6.843  16.669   2.601  0.1790 -0.0402  0.2166
21154W        W37228   2.577  17.241  13.939 -0.0999 -0.0279  0.2785
21155W        W37229   9.958  15.892  12.333  0.3594  0.0492 -0.0617
21156W        W37230   1.620   1.866  12.403 -0.1272 -0.0832  0.1684
21157W        W37231  13.270   8.050  12.207  0.1322 -0.0214 -0.1302
21158W        W37232  14.362   0.033  13.245  0.1440 -0.0174 -0.3261
21159W        W37233   0.312  17.043   1.352  0.1830 -0.2462 -0.0099
21160W        W37234   9.452  14.277  13.742 -0.3146  0.1160  0.3106
21161W        W37235   1.780   7.559   1.696 -0.1863 -0.1890  0.0282
21162W        W37236   0.653  12.955   4.067 -0.1899  0.3617  0.1137
21163W        W37237  12.035  11.987  13.147  0.0653 -0.1058  0.0063
21164W        W37238   9.509   3.680   3.305 -0.3000  0.0537 -0.1464
21165W        W37239  16.676  12.963   0.749  0.1099  0.0304 -0.1499
21166W        W37240   4.258  14.970  15.031 -0.0389 -0.2502 -0.1083
21167W        W37241  16.827  14.285  13.513 -0.1652 -0.2254  0.0596
21168W        W37242   7.624   3.914   0.287  0.1762 -0.1206  0.2912
21169W        W37243  13.397  17.995   1.946  0.2738  0.1382 -0.0747
21170W        W37244  13.318   5.897   2.056  0.0705 -0.1353 -0.0711
21171W        W37245  17.355   0.323  11.886 -0.0465  0.0548 -0.2754
21172W        W37246  17.347   2.182   1.842  0.2979 -0.0408 -0.2475
21173W        W37247   5.455   4.136   3.652  0.0989 -0.0442 -0.1156
21174W        W37248  13.489  12.122  11.136  0.0444 -0.1277 -0.1421
21175W        W37249   2.991   6.037   6.011 -0.1154 -0.1550 -0.1058
21176W        W37250  17.547  15.803   5.200 -0.0409 -0.2651  0.0647
21177W        W37251  12.033  10.821  12.298  0.2223  0.1301 -0.0413
21178W        W37252   9.247   8.412   3.163  0.0165 -0.2017 -0.2987
21179W        W37253   8.924   4.223   3.340  0.2066  0.0083 -0.0754
21180W        W37254  17.605   5.003  16.067 -0.0274  0.1090 -0.1669
21181W        W37255   1.193  16.093   0.623  0.2771  0.0712  0.1938
21182W        W37256   3.137   2.401   0.344 -0.0411  0.2322 -0.1853
21183W        W37257   4.642  12.011   0.138  0.0069 -0.2490  0.1547
21184W        W37258  17.634   8.095   4.330 -0.0926 -0.2528  0.0890
21185W        W37259   8.899   2.024   1.110  0.2575  0.2656 -0.2312
21186W        W37260   4.323   2.311  12.886  0.1521  0.0995  0.1319
21187W        W37261  11.375  10.352  11.625 -0.1472 -0.1614 -0.1216
21188W        W37262  10.972   0.781   0.094  0.0491 -0.2339  0.3652
21189W        W37263  12.130  15.550  16.254  0.2123 -0.2324  0.1877
21190W        W37264  14.948   4.404   0.544 -0.1728  0.0830 -0.0950
21191W        W37265  17.126  16.674  14.426  0.2686 -0.1559  0.1582
21192W        W37266  12.588   8.994  12.380 -0.2220 -0.2211 -0.0500
21193W        W37267  10.201  11.721  12.333  0.0802 -0.0326 -0.2422
21194W        W37268  14.210   7.116  13.014  0.0914  0.1426  0.1835
21195W        W37269   3.319  11.908   2.319 -0.1710 -0.2846 -0.1218
21196W        W37270   9.036  13.848   3.349 -0.1369 -0.0909 -0.2515
21197W        W37271   4.850  12.782  12.373 -0.1509 -0.0195 -0.2031
21198W        W37272  15.952   8.125  11.362  0.3280 -0.0565 -0.0007
21199W        W37273  15.824   5.822   1.990 -0.0311 -0.3013  0.1272
21200W        W37274  17.508  10.371   0.514 -0.1996 -0.1807 -0.2118
21201W        W37275   7.342  14.550   0.475 -0.0777 -0.1001 -0.0362
21202W        W37276  18.083   6.235   2.364  0.0474  0.0751  0.2010
21203W        W37277   8.962   4.637   5.481  0.1321 -0.0784  0.0018
21204W        W37278   8.864  17.258   4.008  0.3088  0.0875  0.0856
21205W        W37279  12.718  16.690  12.539  0.0211  0.4821 -0.1792
21206W        W37280   4.600   8.066  11.661 -0.0016 -0.0675  0.0749
21207W        W37281  16.067   3.382   1.348  0.1896 -0.0866  0.0615
21208W        W37282  16.455   6.243  11.573 -0.2791  0.0853  0.0858
21209W        W37283   5.204   8.335  12.078 -0.2988 -0.0054 -0.0815
21210W        W37284  16.045  13.832  16.414 -0.0832  0.3442 -0.3087
21211W        W37285   7.274   7.822   4.792  0.1794  0.1723  0.0846
21212W        W37286  13.901  13.977   4.405 -0.3570 -0.1795 -0.0472
21213W        W37287   7.996  13.061   1.300 -0.2135  0.4934  0.2588
21214W        W37288   4.029  12.180  11.422 -0.1119  0.2802  0.1781
21215W        W37289   8.796  16.862   6.168  0.3103 -0.1721 -0.1055
21216W        W37290   2.977   1.905   1.703  0.1166 -0.1711 -0.0236
21217W        W37291  12.607   0.647   2.876 -0.2153  0.1003 -0.1350
21218W        W37292  13.097  11.180  16.201 -0.2265 -0.2997 -0.0534
21219W        W37293   6.456   2.393  12.957  0.0181  0.1429  0.3062
21220W        W37294  10.151   7.231   0.828 -0.0986  0.1320  0.0867
21221W        W37295   2.687  13.346   1.025 -0.1271 -0.3056 -0.0787
21222W        W37296  14.948   7.260   5.527  0.0016  0.3977  0.1846
21223W        W37297  10.882  14.881   2.452 -0.0112 -0.2274  0.0675
21224W        W37298   0.348   4.857   2.500 -0.1542  0.0177  0.1428
21225W        W37299   2.425  13.619   0.067 -0.0165 -0.0463  0.1703
21226W        W37300   9.502  17.464  13.218 -0.4246  0.1487 -0.1930
21227W        W37301   8.161   0.531   2.839 -0.1220  0.0442  0.1630
21228W        W37302  14.843   7.752   0.408 -0.1696 -0.3114  0.0712
21229W        W37303   4.959  17.606   4.671 -0.1195 -0.1714 -0.0464
21230W        W37304   9.047   1.888  13.093 -0.0255  0.0747  0.1519
21231W        W37305  13.331  14.300  15.701 -0.1835 -0.1280  0.1267
21232W        W37306   6.434  11.035  15.134  0.1774  0.4559  0.1641
21233W        W37307   4.148  12.895  15.854  0.2559 -0.2881 -0.0763
21234W        W37308  13.109   1.937  14.161  0.3759 -0.0696 -0.0057
21235W        W37309   5.603   8.434  15.616  0.1380  0.2693  0.2379
21236W        W37310   5.674   2.743  11.895 -0.0481 -0.0459  0.3951
21237W        W37311  11.509   8.306  16.029  0.2166  0.2003 -0.2759
21238W        W37312   2.689   6.992  11.276  0.0361  0.0201 -0.0958
21239W        W37313   9.458  12.076  15.803  0.3150 -0.1773 -0.2669
21240W        W37314  11.280   8.019  16.418 -0.2525  0.1681  0.1427
21241W        W37315  15.348   5.080   1.016 -0.1045  0.0695  0.2104
21242W        W37316  16.637   7.252  13.285 -0.0498  0.0705  0.2820
21243W        W37317  14.664  12.741  12.445  0.0873  0.1069  0.2415
21244W        W37318   3.789  14.525   0.310  0.0479 -0.1061  0.2807
21245W        W37319   9.190  11.556   0.315 -0.0629  0.0493  0.2436
21246W        W37320  17.238   5.444  12.469  0.2890  0.1798 -0.0254
21247W        W37321  15.475  15.708   3.102 -0.0572 -0.1255  0.0983
21248W        W37322   4.145   8.246  11.821 -0.0395  0.0459 -0.0291
21249W        W37323  10.344   0.958  13.097 -0.2554 -0.1389 -0.1055
21250W        W37324   0.285  14.413   1.326  0.3382 -0.1832 -0.0814
21251W        W37325  10.923   4.304   2.988  0.0275 -0.2145  0.3046
21252W        W37326  16.529  17.150   0.404 -0.0495 -0.1679  0.3018
21253W        W37327   7.186  14.077  14.001  0.0235  0.2621 -0.2788
21254W        W37328   1.513   1.471   5.769 -0.0862 -0.2968  0.0706
21255W        W37329   7.431  11.725   4.968  0.0064  0.1648  0.1810
21256W        W37330   7.463  15.441  12.921 -0.0094  0.1416 -0.1072
21257W        W37331   0.961   9.973  11.693  0.2537 -0.1123 -0.0742
21258W        W37332   2.804  14.093   0.112 -0.3991 -0.3318  0.2774
21259W        W37333   4.354   3.235   0.144 -0.1841  0.3035 -0.0163
21260W        W37334   7.141   0.526   2.228 -0.3136  0.0109 -0.1048
21261W        W37335   9.607   1.464  13.203 -0.2261 -0.2637  0.2959
21262W        W37336   1.271  17.587  13.285  0.2059  0.2898  0.0557
21263W        W37337   4.573  17.890   1.621 -0.1533  0.1281  0.1221
21264W        W37338   5.561   8.476   5.414  0.0499 -0.1503  0.1773
21265W        W37339   9.440  15.774   0.694 -0.3859 -0.0689  0.3185
21266W        W37340   6.566   5.459   0.899 -0.0635 -0.1444 -0.2732
21267W        W37341   9.357  10.829   5.352  0.1863  0.4344 -0.0443
21268W        W37342   2.502  12.065   4.129 -0.1566  0.2516  0.0712
21269W        W37343   6.008   0.868   4.649 -0.0308 -0.0226  0.0201
21270W        W37344  11.439   5.124   1.731  0.0640 -0.3115  0.1386
21271W        W37345  12.827   5.924  13.010 -0.0249  0.4693  0.4210
21272W        W37346   0.577   4.070   2.740  0.1251  0.0500  0.1747
21273W        W37347   8.192  14.002   4.267 -0.3076  0.0794  0.0314
21274W        W37348   7.500  13.053  11.812 -0.1999 -0.0581  0.0893
21275W        W37349  11.974  13.734   1.300  0.1330 -0.1321 -0.0549
21276W        W37350   0.897   5.344  12.563  0.0349 -0.0118 -0.1024
21277W        W37351   2.338   8.275  11.861  0.0500 -0.1957  0.0542
21278W        W37352   0.640   9.754   2.525  0.0211 -0.3481  0.2123
21279W        W37353   2.866   4.491  13.645 -0.0044 -0.2630 -0.1389
21280W        W37354  14.325  11.987   3.746 -0.1319 -0.0314  0.1185
21281W        W37355  15.279   6.335  11.799  0.1456 -0.0280 -0.1007
21282W        W37356   6.624   4.333  14.773  0.0874  0.0569  0.4203
21283W        W37357  15.977  17.515  12.973 -0.2745  0.1517 -0.0337
21284W        W37358   9.580   0.289  12.014  0.0394  0.0544  0.3028
21285W        W37359   4.067   8.303  14.302 -0.0417 -0.1110 -0.0871
21286W        W37360   5.244  16.367   6.361 -0.0868 -0.0913  0.0558
21287W        W37361   4.411   7.531  15.696 -0.1120 -0.4341 -0.0890
21288W        W37362   0.389  11.856  14.038 -0.0871 -0.1309  0.2219
21289W        W37363   3.060  13.587   1.332 -0.1709  0.0367  0.0123
21290W        W37364  15.146  15.921   2.669  0.2418  0.1711  0.0737
21291W        W37365  11.289  10.461   5.829  0.2499 -0.1164  0.1156
21292W        W37366  16.475  16.407  11.057  0.3829 -0.2034  0.2357
21293W        W37367  15.309  17.941   1.637 -0.0538 -0.1502  0.0912
21294W        W37368   1.027   4.971  11.616 -0.0758 -0.2116 -0.1706
21295W        W37369  18.217  17.274   2.234  0.2723  0.4403  0.2806
21296W        W37370   3.610  11.546  14.499  0.2733  0.2339 -0.0115
21297W        W37371  16.203   1.818  16.194  0.1213  0.0122  0.0117
21298W        W37372  13.555   0.089   5.469 -0.1829 -0.0819 -0.0750
21299W        W37373  11.654   1.166   2.919 -0.0917  0.2447  0.0587
21300W        W37374   4.562  18.220  13.333  0.1349  0.1661 -0.0413
21301W        W37375  15.170  11.156   3.352 -0.1736 -0.2326  0.1476
21302W        W37376  12.512  11.649  11.462  0.2290  0.0258 -0.1403
21303W        W37377   4.254   8.275   4.633 -0.2095 -0.0564  0.2755
21304W        W37378   8.434  10.948   5.178  0.1196 -0.0401  0.4232
21305W        W37379   6.674  12.353  14.319  0.1964  0.2163 -0.1290
21306W        W37380  11.366   4.532   0.979 -0.0765  0.1048  0.0070
21307W        W37381   5.399  12.765   1.482  0.0844  0.0403  0.2233
21308W        W37382   0.648   2.653  10.748  0.2805 -0.2579 -0.0019
21309W        W37383   0.188   9.356   1.782 -0.0011 -0.0214 -0.2864
21310W        W37384  17.508   9.722   2.828  0.4306 -0.0390  0.0257
21311W        W37385   0.673  11.970   0.303  0.3010  0.1687  0.1744
21312W        W37386  16.200   5.641   4.394  0.2888 -0.1911 -0.0368
21313W        W37387   5.972   6.414   0.890 -0.1568  0.1393 -0.1995
21314W        W37388  10.555  12.539  12.576 -0.0235 -0.0356  0.0982
21315W        W37389  15.748   7.167  14.626  0.2025  0.0808 -0.3482
21316W        W37390  15.470  12.163  10.734 -0.1270  0.0902  0.0687
21317W        W37391   2.029  13.694   0.923  0.1104  0.0805  0.1191
21318W        W37392  10.351   9.240   3.035 -0.1285  0.3120 -0.1178
21319W        W37393  10.866   7.333  13.868  0.0447 -0.1437  0.1522
21320W        W37394  13.820   9.659   1.015 -0.3158 -0.3880  0.1053
21321W        W37395   3.884   6.987   1.021  0.0153  0.0956 -0.2859
21322W        W37396   2.664   3.091  14.459 -0.1883  0.3230 -0.0270
21323W        W37397  12.795   8.385   4.910 -0.0510  0.1530 -0.1173
21324W        W37398   3.561   5.747  11.697  0.2308 -0.1832  0.3725
21325W        W37399  14.736   6.466  13.215  0.5071 -0.1153  0.1236
21326W        W37400  11.602   8.324   3.056 -0.1851  0.0286  0.0384
21327W        W37401   8.406  12.652  11.773  0.1601  0.1270 -0.1603
21328W        W37402   1.149   5.557  13.003  0.0670 -0.3749 -0.1715
21329W        W37403  16.470  13.930   4.495 -0.1484 -0.1099  0.0283
21330W        W37404  15.525   6.628  11.414 -0.1694 -0.1172  0.0240
21331W        W37405   0.573  11.295   5.721 -0.0348  0.0117  0.0501
21332W        W37406   6.703  17.291   6.126 -0.0133 -0.3918 -0.4402
21333W        W37407   3.339   1.272  12.049 -0.0746  0.0926 -0.1924
21334W        W37408  17.980   8.676   4.945  0.2310 -0.2186  0.2691
21335W        W37409   3.642  14.996  15.895  0.3020  0.1605 -0.5575
21336W        W37410   1.718  14.229  12.081 -0.1799  0.2027  0.3941
21337W        W37411  12.646   2.034   0.468 -0.3568 -0.4360  0.0849
21338W        W37412  16.185   5.559   0.704 -0.2810  0.0909  0.1767
21339W        W37413  13.400  12.712   2.621  0.2082  0.1303 -0.1763
21340W        W37414  15.804   4.881   1.833  0.1419 -0.0053  0.0199
21341W        W37415   7.095   8.634   4.493  0.0059  0.1412 -0.2586
21342W        W37416  14.057   4.106   4.978 -0.2426 -0.0757  0.2524
21343W        W37417  12.066  14.718  16.063  0.2046 -0.1444  0.0848
21344W        W37418   9.321   2.012   0.813  0.0302  0.1828  0.0442
21345W        W37419   9.517   8.684   0.602 -0.1310  0.2481  0.1229
21346W        W37420  16.920   9.196  12.897 -0.2255 -0.1388 -0.0957
21347W        W37421  12.190   3.671   3.932  0.3397  0.0145 -0.3165
21348W        W37422   3.932  15.856  10.857 -0.4990  0.0081  0.1585
21349W        W37423   9.660   0.192   0.691 -0.0478 -0.1117 -0.2212
21350W        W37424  10.661  11.905   1.444  0.1078 -0.2441  0.4140
21351W        W37425  14.796   1.739   4.710  0.1831  0.0233 -0.0155
21352W        W37426   1.796  10.916   2.907 -0.1802 -0.4656  0.0571
21353W        W37427   5.856  17.669  15.170  0.0702 -0.1446 -0.0838
21354W        W37428  17.607   2.556  11.802 -0.0554  0.2532 -0.3152
21355W        W37429  15.356   0.891   1.467  0.0099 -0.1917 -0.1876
21356W        W37430   2.408   2.433   4.294  0.2058  0.3450  0.2792
21357W        W37431  14.482  10.165  12.067  0.2063  0.1781 -0.0077
21358W        W37432   0.087  11.245  16.298  0.4342  0.2603 -0.0143
21359W        W37433   7.806   3.031  12.666  0.1285 -0.1794  0.0188
21360W        W37434   4.674  14.322  13.854 -0.0447 -0.0949 -0.1566
21361W        W37435   9.410   4.967   0.887 -0.4550  0.0707  0.1076
21362W        W37436  17.051  17.483   4.197  0.3216  0.0777 -0.2858
21363W        W37437   9.487  10.125  16.381 -0.1049 -0.0458  0.0882
21364W        W37438  17.842   3.428  12.138 -0.1266 -0.2322 -0.1667
21365W        W37439  15.410   4.394  11.498 -0.1455  0.0150 -0.0932
21366W        W37440   7.865  12.081   1.388  0.0721  0.1154  0.3203
21367W        W37441   8.971   5.126  14.951 -0.0258  0.2062  0.3802
21368W        W37442  18.227   1.145  13.862  0.0561 -0.0200 -0.1082
21369W        W37443   3.015   4.850  15.580 -0.1543 -0.1919  0.0821
21370W        W37444  16.333   6.753  11.776  0.2955 -0.1337  0.0091
21371W        W37445   8.603   1.624  12.254  0.2057 -0.0217  0.1645
21372W        W37446  11.980   6.829   4.528 -0.0958  0.3062 -0.3581
21373W        W37447  17.682  18.019  15.317 -0.0247  0.3068 -0.1559
21374W        W37448   9.517   4.967  12.450 -0.1404  0.4572  0.1760
21375W        W37449   4.242   7.673   1.136 -0.3308  0.2892  0.4151
21376W        W37450   2.276  14.078  11.787  0.0579 -0.1025  0.0357
21377W        W37451  10.034   4.127  15.289  0.1937  0.1506  0.1094
21378W        W37452  13.454   8.744   2.972 -0.2126 -0.3386  0.1110
21379W        W37453  17.306   8.430  11.705 -0.0850  0.0560 -0.1803
21380W        W37454  11.402   0.228  11.025  0.4469  0.1382  0.1112
21381W        W37455   6.742  12.395   2.147  0.0185 -0.0318  0.2645
21382W        W37456   1.525   4.716   4.362  0.0499 -0.0900  0.1918
21383W        W37457  10.494  14.260   5.463  0.0014 -0.2783 -0.0950
21384W        W37458   0.759  11.078   3.733  0.1380 -0.2362 -0.0194
21385W        W37459   8.851  14.689  12.876 -0.4846  0.2964  0.1198
21386W        W37460  11.488  10.379  15.091 -0.0228 -0.0030 -0.2175
21387W        W37461   3.862   0.697   3.333 -0.1986 -0.0042  0.1138
21388W        W37462   2.311  14.016  14.669 -0.0693 -0.0927  0.1321
21389W        W37463   6.574   6.796   2.365  0.1219  0.0534 -0.0932
21390W        W37464   9.074  13.442  12.327 -0.0376  0.0522  0.0966
21391W        W37465  14.957  16.078   0.419 -0.2046  0.0002 -0.1418
21392W        W37466   1.275   8.390  12.585  0.2077  0.0348  0.0788
21393W        W37467  16.436   1.163   4.091  0.1770 -0.0605  0.1282
21394W        W37468   8.580  17.423  12.221  0.0089  0.0766 -0.0396
21395W        W37469   3.677   7.619  16.309  0.0398  0.1820  0.0322
21396W        W37470   4.338  14.017  12.752  0.0450 -0.1130 -0.0474
21397W        W37471   0.220  12.931  14.607 -0.1263  0.3443  0.1559
21398W        W37472  11.210   8.740  12.466  0.0542  0.0675 -0.0828
21399W        W37473   5.706  13.154   2.821 -0.2509 -0.0946  0.2386
21400W        W37474   8.447   8.999   2.067 -0.1165 -0.1701 -0.2757
21401W        W37475   0.819  16.394  14.618  0.3219  0.1518  0.1310
21402W        W37476   5.389   3.393  13.143  0.1936  0.1983  0.4023
21403W        W37477   2.262   6.175  14.967 -0.0131  0.3284 -0.2455
21404W        W37478   5.414  15.616   3.952  0.1970 -0.0143  0.2861
21405W        W37479  12.984  12.577   5.633 -0.0880 -0.0078  0.0531
21406W        W37480  11.729   0.855  14.980  0.1136 -0.1950  0.0562
21407W        W37481   1.012  14.579   6.220 -0.0314  0.1307 -0.0489
21408W        W37482   2.413   8.907  11.364 -0.1361  0.0963 -0.2240
21409W        W37483   8.176   0.350   4.162 -0.0802 -0.1250 -0.3444
21410W        W37484  12.181   3.671  13.491  0.2933  0.2764 -0.2127
21411W        W37485  17.106   0.522   4.858  0.0842  0.3591  0.1660
21412W        W37486   7.940  17.105   1.914  0.0169  0.0015  0.2125
21413W        W37487   2.218  16.907   5.460  0.0096  0.0115 -0.0758
21414W        W37488  10.993  16.835   4.477  0.1755 -0.0697  0.2637
21415W        W37489   5.519   9.743   5.137  0.1187  0.0388  0.1094
21416W        W37490  15.359  10.460   2.422 -0.0232 -0.1036 -0.1882
21417W        W37491   3.248   7.985  13.435  0.2105 -0.0992  0.3176
21418W        W37492  10.271   3.577  12.795 -0.0986  0.2800  0.1294
21419W        W37493   5.286   0.892   3.469 -0.0797  0.1487  0.2387
21420W        W37494  11.488  11.311  12.558 -0.1263  0.0249 -0.2444
21421W        W37495   6.504   5.119   0.295 -0.2659 -0.0223 -0.2196
21422W        W37496  13.185  12.055   0.159 -0.2068 -0.4304 -0.1470
21423W        W37497  14.300   3.715  15.038  0.2367 -0.0038  0.1155
21424W        W37498   6.837  15.758   3.574  0.0139 -0.5597 -0.0858
21425W        W37499   0.175  12.217   2.166 -0.0196 -0.5698  0.1902
21426W        W37500  15.120   4.725  15.569 -0.2100  0.1335 -0.1663
21427W        W37501  11.185   3.152   1.219 -0.0773  0.1457  0.0313
21428W        W37502  12.655  13.596   0.163  0.2714 -0.1579 -0.2250
21429W        W37503  14.112  11.818   1.925 -0.2873  0.3213 -0.0367
21430W        W37504   4.245  17.043   2.040  0.2055  0.2493 -0.1062
21431W        W37505   5.686   0.238  14.615 -0.0224  0.0775  0.0259
21432W        W37506  12.854   2.278  12.081 -0.1146  0.0242 -0.0335
21433W        W37507  17.598   5.116  13.934 -0.1232 -0.0862  0.2860
21434W        W37508  13.877   4.445  12.221 -0.0457 -0.1602  0.0734
21435W        W37509  14.245   8.782  11.448 -0.2021 -0.1847 -0.1997
21436W        W37510   6.185  10.369   4.534 -0.1086 -0.0319  0.1171
21437W        W37511   5.447   1.586   2.010 -0.2379  0.1493  0.2643
21438W        W37512   1.017  17.264  10.807 -0.2799 -0.0088 -0.1028
21439W        W37513  10.533  14.141  13.732  0.1389 -0.0716  0.1072
21440W        W37514  12.254   1.982   2.346  0.2508 -0.1289 -0.2608
21441W        W37515   0.667  17.512   4.036 -0.2003  0.0560  0.0146
21442W        W37516   3.354  16.365  15.492 -0.2492  0.2181 -0.0006
21443W        W37517   4.293  16.316  11.661  0.0911  0.0989  0.0690
21444W        W37518  13.066   2.720  12.630  0.1045 -0.3076  0.4106
21445W        W37519   8.955   3.387  13.025 -0.0854  0.3051 -0.0706
21446W        W37520  12.295   3.023  15.826 -0.5218  0.0149  0.4230
21447W        W37521   1.921   5.370  11.770  0.1500  0.1589  0.2217
21448W        W37522  17.203  17.958  15.539  0.1363  0.1633  0.1890
21449W        W37523   8.161  16.160  12.400  0.0594 -0.0111  0.1129
21450W        W37524  12.641   8.720   2.961  0.0438  0.1102 -0.0706
21451W        W37525  17.296   3.569  16.134  0.2500  0.0009  0.1221
21452W        W37526   0.640  10.153   4.243  0.1711 -0.3538  0.6167
21453W        W37527   9.639   1.007   4.337 -0.0002  0.4021 -0.2792
21454W        W37528  16.190  13.922   2.165 -0.0586 -0.0771  0.0098
21455W        W37529   5.053  13.033   5.209  0.3083  0.1221 -0.1643
21456W        W37530  13.605  13.596   4.155  0.3875  0.3208 -0.0651
21457W        W37531  11.339  17.075  12.794 -0.1623  0.0556  0.2778
21458W        W37532  16.687  18.109   2.126  0.1963  0.0109  0.2369
21459W        W37533  15.776   8.694   5.903  0.0186  0.0172 -0.2814
21460W        W37534  16.191  16.833  12.038  0.0339 -0.1705  0.1401
21461W        W37535  11.387   7.372  15.539  0.1029  0.1984  0.0281
21462W        W37536   2.134  16.580  12.168  0.3177  0.0376  0.2239
21463W        W37537  16.622   5.896   2.576 -0.0846  0.0407 -0.1910
21464W        W37538  11.603  11.894   3.028  0.2605 -0.0203  0.2358
21465W        W37539  10.553  16.042  13.509  0.0887  0.0906 -0.2546
21466W        W37540   8.191  13.648   3.872  0.3439  0.2094 -0.1412
21467W        W37541   4.415   1.942  14.976  0.2978 -0.0111 -0.1861
21468W        W37542   0.312  12.020   0.795  0.0233 -0.4787 -0.0081
21469W        W37543  10.931  10.596   3.170 -0.1163 -0.1653 -0.2319
21470W        W37544   0.188  13.526  14.143  0.2409 -0.0686 -0.0591
21471W        W37545  17.643   8.130  16.180 -0.2126 -0.4694 -0.2335
21472W        W37546   9.583   1.511   4.496 -0.1023 -0.0236 -0.1636
21473W        W37547   5.012   0.278  12.615  0.1625 -0.0492  0.0859
21474W        W37548  10.139  10.822  12.307 -0.2207  0.1248 -0.0071
21475W        W37549   1.256   5.070   3.093 -0.2703 -0.2712 -0.0023
21476W        W37550   1.947   0.469  14.832 -0.2188 -0.1003 -0.0763
21477W        W37551  13.028  13.633  13.847  0.4470 -0.0350  0.1258
21478W        W37552   6.173  16.660  16.053  0.1091  0.0573 -0.0054
21479W        W37553   5.836  14.117   5.782  0.1517 -0.0665  0.1049
21480W        W37554   1.209   4.092  12.757  0.2576 -0.1112  0.0231
21481W        W37555   2.503   3.381   3.278 -0.0098 -0.2239 -0.0556
21482W        W37556   0.199   1.656  13.324  0.1630  0.0599  0.0426
21483W        W37557   4.182   2.294  12.426 -0.0606 -0.2622 -0.0508
21484W        W37558   9.933   4.343   5.352 -0.2438 -0.1819 -0.3294
21485W        W37559  18.028   1.732  15.223 -0.1019 -0.0998 -0.0678
21486W        W37560   3.044  14.317   5.099  0.3981  0.1510 -0.4368
21487W        W37561  17.031  10.568   4.848 -0.3473 -0.2296  0.0414
21488W        W37562  16.484   5.990   1.071  0.1311  0.0941  0.0930
21489W        W37563  16.015   8.593   3.173  0.0917 -0.2228  0.0188
21490W        W37564   9.914  15.920   3.553 -0.1285  0.2187 -0.0571
21491W        W37565   0.362   8.259   2.701  0.2681 -0.2010  0.1251
21492W        W37566  17.866   0.384   4.691  0.1165  0.0937  0.0930
21493W        W37567   1.570  12.547   2.045  0.1154 -0.1024  0.0330
21494W        W37568  13.163  15.244  13.955 -0.3483  0.2033 -0.4045
21495W        W37569   2.054   3.897   5.218 -0.0519  0.4172  0.1269
21496W        W37570  16.890   5.385   1.922  0.2089  0.2561 -0.1533
21497W        W37571   9.071  16.824   4.245  0.0775  0.0653 -0.2450
21498W        W37572   1.687  13.423  13.702 -0.0601  0.0321 -0.2931
21499W        W37573  11.552   4.872  14.076 -0.0578 -0.1005  0.1620
21500W        W37574   6.107  14.372  12.094 -0.2961 -0.0339  0.1969
21501W        W37575  12.148   4.963   2.531 -0.0580  0.0237  0.1480
21502W        W37576  17.760   1.859  13.073  0.1042 -0.1051 -0.1014
21503W        W37577  11.904  10.977   2.218  0.2771 -0.1207  0.1664
21504W        W37578  15.937   6.942   3.822  0.0804 -0.1553  0.0933
21505W        W37579   6.121   6.087  14.812 -0.1818 -0.0657  0.4091
21506W        W37580  17.698   5.358  16.373  0.2155 -0.0538 -0.0127
21507W        W37581  18.025  10.290  15.963  0.2023 -0.0011  0.2235
21508W        W37582   3.586   4.449   4.034  0.1682 -0.0138  0.3361
21509W        W37583  15.720   0.310   0.197  0.0419 -0.0995  0.0287
21510W        W37584   6.721   3.901   4.615  0.1434  0.3726  0.0135
21511W        W37585  14.826   9.382   4.757  0.1722  0.1159 -0.0512
21512W        W37586  12.484  10.650  14.350 -0.3544 -0.1858 -0.1025
21513W        W37587   8.960   2.551  14.235 -0.0739  0.0285 -0.2062
21514W        W37588   4.491   6.588   3.851 -0.1094 -0.3740 -0.1481
21515W        W37589   9.727  12.161  16.295  0.1265 -0.1543  0.1349
21516W        W37590   0.767  11.729   3.022 -0.2298  0.0714 -0.0320
21517W        W37591  13.508  11.317  13.873 -0.0977  0.0793 -0.2213
21518W        W37592  11.322  15.898   3.723 -0.3558 -0.0985  0.0610
21519W        W37593  12.721  10.444   4.402  0.0250  0.1737  0.2405
21520W        W37594   3.024  11.678   0.355 -0.1479 -0.0712 -0.1012
21521W        W37595  11.664   6.786  12.307 -0.1027 -0.0435 -0.1022
21522W        W37596  14.078  13.401  14.659 -0.1022 -0.1785 -0.2380
21523W        W37597   9.727  13.970  14.791 -0.3097 -0.1319 -0.1814
21524W        W37598  13.147   8.528  11.295 -0.2127  0.0443  0.7115
21525W        W37599  11.122   8.164   3.091 -0.2196  0.1602 -0.2854
21526W        W37600  12.047   3.703  12.606 -0.0210  0.1936 -0.2118
21527W        W37601   0.380   5.125  15.923  0.3090  0.1689 -0.1273
21528W        W37602   2.848   1.478  14.476 -0.1538  0.1193  0.0114
21529W        W37603   9.244   6.460   5.636 -0.2249 -0.0760 -0.0715
21530W        W37604  17.620  12.729   1.112  0.1913 -0.0225 -0.0976
21531W        W37605   9.062  17.750   1.663  0.0760  0.0328 -0.1101
21532W        W37606  13.919   8.730   1.299 -0.0359  0.0301  0.0879
21533W        W37607   0.872  14.744   5.053  0.2978 -0.1083  0.1495
21534W        W37608   8.794   8.370  12.225 -0.0146  0.1754 -0.0088
21535W        W37609   9.991   3.675   2.015 -0.3424 -0.2905 -0.0216
21536W        W37610   5.155  11.744   4.165 -0.2204  0.2025 -0.3028
21537W        W37611  11.669  15.457  13.823 -0.2149  0.0446  0.1100
21538W        W37612   1.926  11.238   2.507 -0.2821 -0.2274  0.1141
21539W        W37613   8.821   9.531  12.762 -0.1507  0.3837 -0.0656
21540W        W37614  12.347   6.029  14.636 -0.0739 -0.0503  0.0804
21541W        W37615  16.327  17.510   1.047 -0.1305 -0.2398  0.3555
21542W        W37616  14.695  12.302   5.741 -0.2816 -0.2779 -0.1091
21543W        W37617   7.499  12.906   1.326 -0.1393 -0.1863 -0.2028
21544W        W37618   4.158   3.125   2.044 -0.0925  0.1478  0.0910
21545W        W37619  10.992   1.365  15.459  0.0442  0.3986 -0.1319
21546W        W37620  11.608  17.351   3.805  0.0193  0.1448  0.0154
21547W        W37621   2.699  12.449  12.258 -0.1754  0.4680 -0.2556
21548W        W37622   5.436   1.106  14.568 -0.1216 -0.1422 -0.3049
21549W        W37623  14.532   1.677   2.306  0.2920 -0.2340  0.3940
21550W        W37624  12.163  14.431   3.480  0.2443 -0.0884 -0.2246
21551W        W37625   6.805   5.139   3.755 -0.1331  0.0695  0.2659
21552W        W37626   3.990  12.570   0.283  0.1657  0.1434  0.0236
21553W        W37627  12.343   1.617   0.417  0.2044 -0.2459 -0.2322
21554W        W37628  10.250  16.523   1.892  0.1335  0.2274  0.0183
21555W        W37629   0.556  10.206   5.057  0.0974 -0.0235 -0.0603
21556W        W37630  10.575   1.917  14.545 -0.2515 -0.0761 -0.2525
21557W        W37631   6.766  13.030  13.639  0.0684 -0.0331 -0.1353
21558W        W37632  15.287  15.299  15.881 -0.2511  0.0972 -0.1792
21559W        W37633   6.235   4.246   2.449 -0.1676  0.2034 -0.0555
21560W        W37634   2.898  12.936   4.741  0.0960 -0.1275 -0.2060
21561W        W37635  11.823   6.460  15.429  0.2158 -0.0154  0.3205
21562W        W37636   5.706  11.471  15.489 -0.2738 -0.0097 -0.4118
21563W        W37637   2.824   1.682   3.189  0.1717  0.3964  0.0618
21564W        W37638   0.205  18.037   1.249 -0.1413  0.0585  0.1161
21565W        W37639   5.755   7.678   5.093 -0.1336 -0.1209 -0.1299
21566W        W37640   2.348  16.670  16.013  0.1175 -0.1073  0.0985
21567W        W37641  13.137   0.249  13.988  0.1056  0.0186 -0.1671
21568W        W37642  13.508  12.940   3.952  0.1365  0.0793  0.1775
21569W        W37643  18.100   8.400   1.786 -0.2148  0.0601  0.0285
21570W        W37644  16.009   5.602   5.637 -0.0939  0.0363 -0.0184
21571W        W37645   3.221   9.641   4.908 -0.3821 -0.1468 -0.1429
21572W        W37646  16.684   3.660   3.021 -0.1175  0.3838 -0.1467
21573W        W37647  17.294   1.392   3.300 -0.1459 -0.1223  0.2293
21574W        W37648   7.427  11.260  14.780 -0.1363  0.3222 -0.1314
21575W        W37649   4.773  10.060   5.603 -0.0701 -0.3522  0.0562
21576W        W37650   7.347  12.664  14.761 -0.1189 -0.1062 -0.2296
21577W        W37651  12.207  10.392  11.282  0.2387  0.1350  0.0305
21578W        W37652   9.888   3.769  13.167 -0.1068  0.2020 -0.0803
21579W        W37653   9.925   0.392  14.098  0.0304 -0.2860  0.2712
21580W        W37654  15.221  12.827  14.875  0.0908 -0.0726  0.2137
21581W        W37655  10.827   3.442   2.515 -0.1751  0.0578  0.3484
21582W        W37656   6.507  11.775  14.127 -0.0951  0.0021 -0.3022
21583W        W37657   4.676   3.040  12.901  0.1530 -0.2108  0.0322
21584W        W37658  14.466  17.717   1.455 -0.1934  0.2968 -0.1868
21585W        W37659  17.075   0.341   1.599 -0.1084 -0.0155 -0.0493
21586W        W37660   5.336   3.552   0.291  0.2660  0.0319 -0.0282
21587W        W37661  12.869   2.712   5.322 -0.1333  0.2509  0.2538
21588W        W37662   6.861   9.631  14.149 -0.1249 -0.3794  0.1031
21589W        W37663  11.613   0.005  13.562  0.1003 -0.0976  0.3487
21590W        W37664   6.530  10.814  16.110  0.0295  0.1118  0.2509
21591W        W37665  12.811   1.575  12.534 -0.2422  0.2269 -0.3585
21592W        W37666  14.792  16.046   2.263 -0.2630  0.3284  0.0037
21593W        W37667  15.832   8.129  15.485 -0.1136 -0.1896  0.2247
21594W        W37668   8.357  15.188   2.065 -0.1646 -0.0452 -0.0010
21595W        W37669  13.002  13.776   4.151  0.0697  0.0910 -0.2310
21596W        W37670   1.688  15.975  15.631 -0.0671 -0.5844 -0.1006
21597W        W37671  11.596  16.617  12.747 -0.0421  0.3339  0.1165
21598W        W37672  16.926  12.837   2.286  0.3794 -0.1506 -0.1025
21599W        W37673   3.513   6.342   5.515 -0.0282 -0.2346 -0.0121
21600W        W37674   3.610  13.398  15.675 -0.1062  0.2453  0.1033
21601W        W37675   4.947   6.772   1.687 -0.5308  0.0793  0.3218
21602W        W37676   4.726  12.581  15.212 -0.3441 -0.3239 -0.0221
21603W        W37677  13.095   1.913   0.114  0.0225 -0.2161  0.0706
21604W        W37678   5.325   2.492   5.173 -0.0200 -0.2532  0.0784
21605W        W37679  14.136   0.828   1.625  0.1416  0.1011  0.0723
21606W        W37680   0.613  15.953  16.452  0.4224  0.1827 -0.1398
21607W        W37681  11.001  11.737  15.630 -0.4129  0.2885  0.0447
21608W        W37682   6.331  16.886   3.977 -0.1102 -0.1042 -0.3967
21609W        W37683   6.814   3.676  11.607 -0.2271 -0.0208  0.0670
21610W        W37684  11.283  12.767   0.269  0.2313  0.0859 -0.0806
21611W        W37685   1.103  12.649   1.822  0.2941 -0.0491  0.3250
21612W        W37686   1.029  14.240   4.183 -0.0369 -0.0338  0.6591
21613W        W37687  13.905  13.902  16.321  0.2292  0.1133  0.2409
21614W        W37688   2.888   6.830   3.500 -0.2313  0.1945 -0.4159
21615W        W37689  14.094  13.545   1.227  0.1550 -0.2325  0.1135
21616W        W37690   7.251  16.026  10.801 -0.1326 -0.3253  0.3024
21617W        W37691  16.068  11.902   0.792  0.0629 -0.0954  0.0994
21618W        W37692   8.265   2.519  12.502 -0.1148  0.1323 -0.1891
21619W        W37693   1.131   5.816  12.211 -0.1479  0.1549  0.2242
21620W        W37694   7.130  17.349   3.252 -0.0617  0.1420  0.1925
21621W        W37695   9.016   0.079   0.966  0.1117  0.0543 -0.1566
21622W        W37696  17.565   8.218  14.234 -0.1706  0.1090 -0.1585
21623W        W37697   2.748   9.385  13.031  0.1445  0.1506 -0.0550
21624W        W37698  15.726  10.858   4.842  0.1765  0.1928  0.0253
21625W        W37699   3.645   4.949   2.679  0.4386  0.2850  0.3400
21626W        W37700   0.212   7.298  12.284 -0.0093 -0.2038  0.0128
21627W        W37701   9.012   4.806   0.658 -0.0434  0.1752 -0.0314
21628W        W37702   0.079  16.597   1.482  0.2861  0.1078 -0.1410
21629W        W37703  16.208   2.371   1.484  0.0315 -0.2612 -0.0708
21630W        W37704  11.091   1.689   5.149  0.0423 -0.0116 -0.1886
21631W        W37705   3.186  13.713  12.174  0.0431 -0.2283  0.1426
21632W        W37706   7.592   1.354   0.654  0.1251 -0.2205  0.2164
21633W        W37707  10.557   9.119  13.031  0.2363 -0.2262 -0.1295
21634W        W37708   2.668   3.301   1.425 -0.1500  0.0238 -0.1423
21635W        W37709  15.713   1.715  14.802  0.1058  0.2021 -0.0806
21636W        W37710  11.074   6.668   0.835  0.1011  0.0987 -0.0093
21637W        W37711  17.789  16.955  12.870  0.2564  0.0716  0.1433
21638W        W37712   0.836   7.463  12.764 -0.0093 -0.3092  0.3559
21639W        W37713  17.559   2.706  15.796  0.0728  0.0688  0.0708
21640W        W37714   0.616  10.902   5.392 -0.3097  0.1624 -0.0885
21641W        W37715  13.988  15.424   3.131 -0.0641 -0.0479  0.1078
21642W        W37716   1.867   8.430  14.957  0.2354  0.2848  0.0335
21643W        W37717   8.245  18.065  13.061  0.0446 -0.2589  0.1089
21644W        W37718   9.895   6.407   2.938  0.0222 -0.1617  0.3335
21645W        W37719   7.209   0.060  14.729 -0.1776 -0.3689 -0.0023
21646W        W37720   5.695  13.793   3.738  0.0868  0.2860 -0.0446
21647W        W37721   9.658  10.577   0.073  0.0445  0.1017  0.0420
21648W        W37722   5.678  13.908  14.869 -0.0696  0.0735  0.2144
21649W        W37723   1.199  10.273  13.897 -0.2985 -0.1330  0.1264
21650W        W37724   6.036  14.711  15.194 -0.0402 -0.0060  0.0859
21651W        W37725  16.732   3.479   5.771 -0.0309  0.3150 -0.4685
21652W        W37726  13.072   9.499  13.039  0.1573  0.0664  0.1422
21653W        W37727   7.978  10.093  14.483 -0.0949 -0.1862  0.2107
21654W        W37728   7.920   5.737  15.366  0.0922 -0.0680  0.0861
21655W        W37729   4.317   9.219  14.688 -0.0886 -0.2190 -0.3457
21656W        W37730   7.787  18.031   0.992  0.0430  0.2712 -0.0274
21657W        W37731   5.154   5.825  12.583  0.5870  0.3192 -0.1848
21658W        W37732   9.821  13.909  13.328  0.0521  0.0493  0.0448
21659W        W37733   5.069   8.808   4.814 -0.1464 -0.1455 -0.1793
21660W        W37734   6.184  14.929  15.844  0.1812 -0.0101  0.4287
21661W        W37735   8.452  15.964   5.709  0.0175  0.0891 -0.0423
21662W        W37736   5.008   0.925  15.442 -0.1716  0.1495 -0.2656
21663W        W37737  11.412   3.257  13.186 -0.2441 -0.0013  0.2867
21664W        W37738  12.988   8.790   4.617 -0.0481 -0.2798  0.0963
21665W        W37739   6.088  10.715  15.888  0.3240  0.2926 -0.4122
21666W        W37740  15.544   4.778   5.200 -0.2751  0.2923  0.1124
21667W        W37741   8.314   1.448  15.303  0.0595 -0.0500 -0.1183
21668W        W37742  16.673   0.440   1.319  0.0403 -0.2084 -0.1047
21669W        W37743   4.627  11.854   2.688 -0.0238  0.1532 -0.0580
21670W        W37744   9.294   5.405  12.292 -0.3689 -0.3885 -0.2145
21671W        W37745   3.653   5.190  16.333  0.0224 -0.3151 -0.0376
21672W        W37746  15.636   2.348  12.929 -0.1965 -0.0685  0.0982
21673W        W37747  14.884  16.403   1.885  0.0981 -0.2091  0.1212
21674W        W37748   4.234  17.750   5.387 -0.0321 -0.1485 -0.1737
21675W        W37749   4.055   7.153   2.451  0.2378  0.1412  0.1644
21676W        W37750   5.842  17.683  13.707 -0.1602 -0.0477 -0.0797
21677W        W37751   9.796  18.173  13.951  0.0248 -0.2974 -0.1428
21678W        W37752   7.810  13.708   4.235 -0.0157 -0.0785  0.1469
21679W        W37753  11.171  12.490  11.343  0.0909  0.0748  0.0248
21680W        W37754   0.814  16.260   5.782 -0.1430 -0.2163 -0.3760
21681W        W37755  18.148   8.486   4.475  0.0400  0.2063  0.2069
21682W        W37756  12.729   5.400  15.242 -0.1316 -0.0620 -0.1443
21683W        W37757   1.607   2.057  13.479 -0.1230 -0.0080  0.1672
21684W        W37758  17.616   3.024  12.255 -0.3229  0.1076 -0.0979
21685W        W37759   9.916  14.882  14.533 -0.1128  0.4821  0.2175
21686W        W37760  16.185   0.357  16.470  0.1502 -0.0276 -0.0599
21687W        W37761  13.520  12.647   1.693 -0.1468 -0.4095 -0.2120
21688W        W37762  17.682  12.353  13.019 -0.3349  0.0817  0.0340
21689W        W37763   7.322   1.753  14.831  0.4827 -0.4014 -0.3456
21690W        W37764   1.972   4.062   4.422 -0.2220  0.0324  0.3234
21691W        W37765  13.865   3.543  15.905  0.0163 -0.0227 -0.0025
21692W        W37766  10.093  10.460   2.664 -0.2581  0.0057 -0.4354
21693W        W37767   2.090   9.118   5.138  0.3422 -0.1100 -0.2402
21694W        W37768   3.303  17.661   5.905  0.1502  0.5291  0.1818
21695W        W37769  12.508  15.945   0.510  0.0000  0.1605  0.0304
21696W        W37770   4.995  17.698   5.520  0.1261 -0.2312  0.1774
21697W        W37771   4.502   5.947  15.863 -0.2644  0.2116  0.3368
21698W        W37772   7.903   7.338  12.904 -0.2353  0.2192  0.1717
21699W        W37773   4.470  18.208   4.169 -0.1242 -0.0237  0.1613
21700W        W37774   0.467  10.480   0.104 -0.1713 -0.2874  0.0826
21701W        W37775  14.621  10.350   1.687 -0.2382 -0.0173 -0.0499
21702W        W37776   0.535   5.894  11.631  0.2906  0.2767 -0.0867
21703W        W37777  12.667   1.301  14.828  0.1215  0.0411 -0.0635
21704W        W37778   5.255  17.130  16.236 -0.1425  0.0689  0.0402
21705W        W37779   3.117   0.769   4.421 -0.0790  0.0591  0.3597
21706W        W37780   0.456   3.688  12.184  0.0069 -0.0032  0.3712
21707W        W37781  14.161  13.096   3.395 -0.0927 -0.4304  0.1508
21708W        W37782   9.372   3.110   4.818  0.3506 -0.1706  0.0746
21709W        W37783  12.452   2.767   0.745  0.1866  0.0785  0.1261
21710W        W37784  16.175  13.499   3.488  0.1194  0.0568 -0.0247
21711W        W37785   0.354   3.756   4.056 -0.0256  0.0751  0.4067
21712W        W37786   7.846  15.389   1.988  0.0680 -0.1997  0.5124
21713W        W37787   5.055  16.214  13.733  0.0468 -0.0431 -0.0525
21714W        W37788   5.035  18.132   2.048 -0.1844  0.0993  0.0008
21715W        W37789   4.542   7.144   1.603 -0.3540  0.0625 -0.2671
21716W        W37790  12.618   6.853   2.855 -0.1777 -0.4996  0.3683
21717W        W37791  17.484  11.014  14.174 -0.0587  0.0939 -0.0222
21718W        W37792   5.383   7.347  16.192 -0.0908 -0.0244 -0.2558
21719W        W37793   4.930  14.689   1.354 -0.0936  0.0947 -0.2398
21720W        W37794  15.751   2.955  16.068 -0.2197 -0.2474 -0.0876
21721W        W37795   5.677   3.869  11.043  0.1378 -0.0962  0.0046
21722W        W37796   8.023   6.952  12.543  0.1800 -0.2376 -0.1363
21723W        W37797  10.603   1.587   3.484 -0.2261 -0.0932  0.1520
21724W        W37798  16.952   7.061   1.844  0.0057 -0.2415 -0.0799
21725W        W37799  10.094  10.774  12.854  0.0251  0.2477 -0.2830
21726W        W37800  14.938   8.535  11.563 -0.0778  0.0699  0.1868
21727W        W37801   4.259   7.716   4.482  0.1032  0.0086 -0.0163
21728W        W37802  14.496  18.137   1.105  0.0156  0.0009  0.0464
21729W        W37803  10.307   5.709  14.937 -0.0675 -0.0069 -0.2275
21730W        W37804  17.613  17.657  14.930  0.2212  0.0072 -0.1332
21731W        W37805   5.893  12.874   2.229  0.1685 -0.1069  0.0857
21732W        W37806  17.137  10.518   4.203 -0.0739 -0.0545 -0.0639
21733W        W37807   1.233   0.443   5.828  0.2322  0.1633 -0.2104
21734W        W37808   6.406   4.185  15.745  0.2006 -0.0195  0.0747
21735W        W37809  13.177  17.318   3.435  0.1315  0.2457 -0.0703
21736W        W37810   8.406  10.374  13.032 -0.1271  0.0044  0.0883
21737W        W37811   8.132   4.446  11.590  0.2365  0.0591  0.1499
21738W        W37812   7.933   8.072   0.178 -0.3944 -0.3171  0.0075
21739W        W37813   1.731   9.913   2.787  0.1098 -0.2150  0.0619
21740W        W37814  16.717   4.662  13.140  0.1289 -0.2944 -0.1498
21741W        W37815   1.538  14.036   3.477  0.0868 -0.0140  0.0214
21742W        W37816   4.672  14.413  11.321 -0.0530 -0.0449  0.0788
21743W        W37817  11.979  17.760   3.841  0.2134  0.4202 -0.0360
21744W        W37818   2.279  10.628   0.275 -0.1606 -0.0080  0.0931
21745W        W37819   7.150  15.849  14.473 -0.1519 -0.2456  0.3302
21746W        W37820   8.733  12.870  12.836  0.0108 -0.2564  0.1663
21747W        W37821   2.095   6.152   0.393  0.1046 -0.2650  0.0818
21748W        W37822  12.605  12.858  11.182  0.0993 -0.3862  0.0401
21749W        W37823  15.847  16.821  14.374  0.2163 -0.1332  0.1400
21750W        W37824   5.160   9.780   1.128 -0.1257  0.1805  0.1892
21751W        W37825  11.008  16.533   0.241  0.0214  0.2449 -0.2135
21752W        W37826  13.830  11.111  13.106  0.0351  0.2764 -0.0006
21753W        W37827   1.286  10.409   4.755 -0.1880 -0.0039 -0.3171
21754W        W37828   6.062   3.082  12.376 -0.0902  0.1974  0.1361
21755W        W37829   3.371  11.361  14.938  0.1302  0.0966  0.3836
21756W        W37830  13.808  14.147  15.878 -0.2863  0.1056 -0.3582
21757W        W37831   0.993   0.738   3.465  0.1232 -0.1907 -0.3357
21758W        W37832  14.558   0.958   1.756  0.1452 -0.0822 -0.0578
21759W        W37833  10.992  11.502   2.472  0.2304 -0.1136  0.2110
21760W        W37834   6.813  13.529   2.968  0.0499  0.1471  0.1422
21761W        W37835  10.915   6.449  14.948 -0.1316 -0.0662  0.0381
21762W        W37836  17.069  14.697  13.355  0.1511 -0.2529 -0.1772
21763W        W37837  12.794  18.117   4.636  0.3579  0.2844 -0.1160
21764W        W37838  14.710  13.693  14.994  0.2967 -0.3340  0.2970
21765W        W37839   6.247   5.826  12.677  0.1975  0.0445 -0.0305
21766W        W37840   1.339  15.537   3.036 -0.0078  0.1172 -0.0684
21767W        W37841   5.245   8.717   3.775 -0.0186  0.0491  0.3918
21768W        W37842   1.389  10.126  11.451 -0.1312 -0.0910 -0.0330
21769W        W37843   2.837   6.654   4.941  0.0864  0.2424  0.4442
21770W        W37844   2.760  17.757   2.415  0.1262 -0.0500  0.1098
21771W        W37845  11.452   2.187  12.361  0.0538 -0.0306  0.0387
21772W        W37846   5.800   7.236   2.237  0.1029 -0.3123 -0.0033
21773W        W37847  14.933  16.545  13.086 -0.1901 -0.2920  0.4593
21774W        W37848   5.337   8.614   1.876 -0.0604  0.0266  0.1391
21775W        W37849   9.211   8.459   1.972  0.0933  0.2685 -0.0888
21776W        W37850   2.568  12.128   1.203  0.0275 -0.0514  0.0499
21777W        W37851   5.791  12.954  11.936  0.0014  0.2556 -0.1363
21778W        W37852   4.027   8.874   3.618 -0.1935 -0.1169  0.3839
21779W        W37853  15.945   3.514   0.799  0.0256  0.0164 -0.2794
21780W        W37854   3.894   2.392   3.211 -0.1462  0.0585 -0.4976
21781W        W37855  10.717  16.697   1.065 -0.0610 -0.1068 -0.1221
21782W        W37856   9.977   6.730   0.061  0.2744  0.2031 -0.0078
21783W        W37857  16.934   6.017  13.276 -0.0618  0.2506 -0.2391
21784W        W37858   6.025  14.131  12.510 -0.3198 -0.2787 -0.1771
21785W        W37859   8.611   6.591  14.919 -0.2881 -0.0868  0.2248
21786W        W37860   2.494  10.654  11.066  0.0542  0.0942  0.1543
21787W        W37861  14.361  14.920   4.388  0.0062 -0.0424 -0.3369
21788W        W37862   6.237  14.938   6.208 -0.0880 -0.0250  0.1932
21789W        W37863  15.881  16.294  14.367 -0.0198  0.1395  0.0496
21790W        W37864   7.566   1.549  15.267  0.2055  0.0684  0.2246
21791W        W37865   0.067  11.060   2.117 -0.0507  0.0232 -0.0646
21792W        W37866   7.121   2.956  14.644 -0.1532  0.0430  0.1433
21793W        W37867   5.694   3.204  15.153  0.0015  0.2384  0.1317
21794W        W37868   2.940   5.560   5.234  0.1280  0.2646 -0.0608
21795W        W37869   4.773  12.571   5.011  0.1392 -0.3754  0.1173
21796W        W37870   9.974   0.576   4.566  0.3225  0.2666  0.3512
21797W        W37871  12.839  16.293  14.253  0.2934 -0.0369  0.2387
21798W        W37872  14.748   8.036   5.195 -0.1009 -0.2367  0.1403
21799W        W37873   8.067  14.513  13.143  0.2225  0.1140 -0.1115
21800W        W37874   6.615  17.156   1.659  0.0264 -0.1055  0.1422
21801W        W37875  12.471  16.406   0.732  0.2070  0.2925 -0.2938
21802W        W37876   6.047  14.382   4.295 -0.0279 -0.0622  0.1131
21803W        W37877   6.316   3.650   5.571 -0.2912  0.2360 -0.0908
21804W        W37878  17.689   3.692   4.349 -0.1908  0.4055  0.0159
21805W        W37879  17.809   1.331   4.707 -0.0452 -0.1631  0.0989
21806W        W37880   4.851   9.263  12.512  0.1772 -0.0071  0.0049
21807W        W37881   4.387  10.890  14.876  0.1243  0.3588 -0.1900
21808W        W37882  10.669   5.639   3.539 -0.0752 -0.0601  0.1253
21809W        W37883   3.097   4.839  11.957 -0.0315 -0.0434 -0.1009
21810W        W37884   2.100   2.612  13.355 -0.2141 -0.2239 -0.0998
21811W        W37885   2.629  16.068  12.506 -0.3668 -0.1093 -0.1521
21812W        W37886  15.181   3.155  15.240 -0.1638  0.2498  0.3740
21813W        W37887   2.487  13.732  14.112  0.0729  0.0750  0.0130
21814W        W37888   8.394  12.365   2.366 -0.0220  0.0602 -0.2605
21815W        W37889   1.429   9.519   4.722 -0.3340 -0.3310  0.2482
21816W        W37890   8.683  10.287   0.898 -0.0887  0.2656  0.3047
21817W        W37891   6.481  12.850   2.210  0.1064 -0.2009  0.1108
21818W        W37892  10.641   9.134   1.992 -0.1982  0.2344  0.2767
21819W        W37893   3.706  16.076   2.797 -0.0422  0.0572  0.1218
21820W        W37894   9.571  15.250  13.665 -0.0658  0.0075  0.2954
21821W        W37895  17.471   4.017   1.686  0.1225  0.3569  0.1611
21822W        W37896   6.138   1.644   4.057  0.2143 -0.2301 -0.0358
21823W        W37897  11.701   1.656   2.947 -0.0851 -0.0707  0.3254
21824W        W37898   5.585   4.170  16.029 -0.0021  0.0387 -0.1527
21825W        W37899   2.080  16.162   3.492  0.1237  0.1875 -0.0642
21826W        W37900   2.687  15.387   1.576 -0.0818  0.0172 -0.1567
21827W        W37901   5.499   5.785   4.310  0.0628  0.2270 -0.2223
21828W        W37902   2.413  12.882  14.508 -0.1616 -0.1186  0.0615
21829W        W37903   6.743   1.789   1.316 -0.1393 -0.3229  0.0238
21830W        W37904   9.533   2.288  16.232 -0.0699 -0.1800  0.0020
21831W        W37905  17.869  17.598  11.454 -0.5536 -0.0437 -0.0313
21832W        W37906   3.208  12.585   3.662 -0.1062  0.0136  0.1617
21833W        W37907  14.396  16.883  15.445  0.2580  0.0242  0.0622
21834W        W37908  11.628  14.615  16.263 -0.0918 -0.2081  0.0524
21835W        W37909  17.084  17.787  14.066 -0.2158  0.1114 -0.1455
21836W        W37910   0.373   5.447   3.147 -0.2368 -0.2727 -0.3324
21837W        W37911   1.113   8.678   0.077 -0.2881  0.1317  0.0104
21838W        W37912  17.261  14.624  12.136  0.0992  0.2798 -0.1287
21839W        W37913  14.590  16.111  14.991 -0.0759 -0.0809  0.1727
21840W        W37914   0.497   5.959  15.746  0.0446 -0.4284 -0.2295
21841W        W37915  10.344   6.492   5.632 -0.3229 -0.0375  0.0016
21842W        W37916   9.364   9.919  15.568 -0.0735  0.4272  0.1058
21843W        W37917  11.801  17.142   0.772  0.1357 -0.0560 -0.0246
21844W        W37918   9.514  10.623   2.003 -0.1321 -0.0332  0.0366
21845W        W37919   7.604   8.886  12.619 -0.0608  0.3735  0.3665
21846W        W37920  13.848   7.851  11.247 -0.3743  0.3867 -0.0003
21847W        W37921   4.366  15.573   1.839  0.0090 -0.0808 -0.2388
21848W        W37922  15.542  17.948   3.416  0.1955  0.0735 -0.1024
21849W        W37923   9.928   0.014   0.203 -0.0751 -0.1090 -0.1082
21850W        W37924   5.177   8.984  13.996 -0.2761  0.0899  0.0477
21851W        W37925  10.226  13.720  11.587 -0.2390 -0.2259  0.1354
21852W        W37926  11.708   3.927  13.552 -0.0065 -0.1268 -0.0445
21853W        W37927   6.796   3.484  16.078 -0.0296 -0.0895  0.2338
21854W        W37928  11.926   7.141  14.776 -0.1235 -0.6419  0.0771
21855W        W37929   0.090   4.351  15.565 -0.0728  0.0108 -0.1442
21856W        W37930   4.147  13.065   3.710  0.2090  0.0690  0.0513
21857W        W37931   3.490  16.636  12.873  0.2070  0.0894  0.1561
21858W        W37932  17.533   6.057  16.116 -0.1482 -0.1497 -0.0768
21859W        W37933   6.395   2.955  13.405 -0.1075  0.0548 -0.1101
21860W        W37934  17.913  13.626  15.447 -0.1585  0.0691 -0.0053
21861W        W37935   4.815   6.412  15.083  0.0891  0.1211 -0.2967
21862W        W37936  16.644  12.496   0.384 -0.0728 -0.4788  0.3308
21863W        W37937   0.115  16.047  14.201 -0.0389  0.1529 -0.0039
21864W        W37938   1.320   6.287   4.719 -0.1247  0.1439 -0.0692
21865W        W37939  10.095   4.383  13.967 -0.2617 -0.2924 -0.0394
21866W        W37940   0.858  15.275  15.995 -0.1467 -0.4576 -0.0396
21867W        W37941  15.153   1.324  13.356 -0.0937  0.1406  0.0115
21868W        W37942   0.506   4.577   2.963 -0.0385  0.3955 -0.1443
21869W        W37943   4.116   0.116  12.951 -0.1407  0.0671 -0.3349
21870W        W37944  11.529   8.591  13.913  0.1093 -0.0925  0.2312
21871W        W37945  16.710   1.765  12.475 -0.1256 -0.1754 -0.0910
21872W        W37946  12.179  13.964   4.426  0.2231  0.0775 -0.2090
21873W        W37947   3.320  16.472   4.539  0.0409 -0.0932  0.1669
21874W        W37948  13.107   3.940   1.245  0.2273 -0.2973 -0.0718
21875W        W37949  13.973   9.032  16.026 -0.1420 -0.0243  0.0081
21876W        W37950  10.330  12.541  12.042 -0.1243  0.1259  0.0411
21877W        W37951   8.728   7.423  16.468 -0.1487 -0.3469  0.0603
21878W        W37952  16.952  12.108   0.120  0.0642 -0.0952 -0.0003
21879W        W37953  14.069   0.326   4.725  0.3186 -0.0125 -0.0081
21880W        W37954  10.652   7.871   3.901  0.2390 -0.1032 -0.1418
21881W        W37955  12.919   8.208   2.389  0.1480  0.4977 -0.0141
21882W        W37956  10.489  11.493  11.932  0.0403 -0.0084 -0.1090
21883W        W37957   7.512  17.325   0.341 -0.0484  0.0024 -0.0520
21884W        W37958   5.143   9.594  11.835  0.0585 -0.1596  0.1084
21885W        W37959  13.340   0.208   3.271 -0.1415 -0.1451 -0.0878
21886W        W37960   5.868   3.273   3.821  0.0092  0.2431  0.0896
21887W        W37961  10.434   9.976   3.940 -0.0669 -0.0921  0.0901
21888W        W37962   5.041   7.079   2.112 -0.1133 -0.0033 -0.1199
21889W        W37963  15.747  12.076  15.322  0.0379  0.0922  0.0516
21890W        W37964  15.756   1.900   2.324 -0.0325 -0.2183  0.2252
21891W        W37965   2.577   5.350  10.279  0.1337  0.1109 -0.2602
21892W        W37966   5.064   0.665  12.250  0.0827 -0.2180 -0.0770
21893W        W37967   8.073   8.195  13.785  0.1692 -0.1737  0.2248
21894W        W37968  11.168  14.588   0.612 -0.3234  0.0357  0.1712
21895W        W37969   5.493  16.220  12.708  0.0399  0.1408  0.1416
21896W        W37970  12.113  14.726   1.631  0.0470  0.1143 -0.2106
21897W        W37971   0.826   2.687   5.002  0.2744  0.1659 -0.2721
21898W        W37972   2.129  15.872  14.187 -0.1704 -0.0853 -0.0530
21899W        W37973  10.970   7.971   4.635  0.3344 -0.0140  0.0665
21900W        W37974   6.002  11.566  14.417  0.1703  0.1324  0.4563
21901W        W37975   0.026   3.146  13.650 -0.1403  0.0602  0.0332
21902W        W37976  11.201  10.138   5.223  0.0640  0.1330  0.0203
21903W        W37977  11.182   9.783   2.681 -0.3229  0.0310 -0.1057
21904W        W37978   8.103   4.300  14.071  0.0060  0.2855 -0.1742
21905W        W37979  11.366  14.794   6.055  0.0767  0.2590  0.2091
21906W        W37980   6.493  13.756  16.049  0.1739  0.0231  0.1367
21907W        W37981  17.193  15.197   0.991 -0.0094  0.1261  0.2537
21908W        W37982  18.032  11.647   6.187  0.3128  0.3283  0.0444
21909W        W37983   3.862  12.850  16.303 -0.3103  0.0193  0.3555
21910W        W37984   7.253   9.948  14.346  0.1600 -0.0887  0.1608
21911W        W37985   0.139   3.920   1.511  0.1031  0.0545 -0.0309
21912W        W37986  14.738  14.273   0.801  0.2160 -0.1596  0.0782
21913W        W37987  16.321  12.307  13.318  0.2135  0.2330  0.1899
21914W        W37988   0.213   8.335   5.008 -0.1978  0.0859 -0.3759
21915W        W37989   5.005   5.249   2.710 -0.0621  0.0267  0.0989
21916W        W37990  12.482   4.228   2.901 -0.0395  0.0635 -0.1755
21917W        W37991  14.709   1.807  16.353  0.1668  0.0022 -0.2691
21918W        W37992   7.850   2.139   1.114 -0.0514  0.1407  0.0811
21919W        W37993  14.738   2.057  11.883 -0.0762  0.2226  0.0836
21920W        W37994   4.940   5.702   0.099 -0.0840  0.2343  0.0103
21921W        W37995   9.332   3.835  15.539  0.0243  0.1599  0.1576
21922W        W37996  13.072  11.686  11.747  0.1774  0.1587  0.0900
21923W        W37997   6.861   2.579   3.433 -0.0868  0.0028 -0.1023
21924W        W37998  11.942  16.174   2.912 -0.1381  0.0433  0.3608
21925W        W37999  17.638   2.338  12.615  0.2303  0.0016  0.0629
21926W        W38000  11.161  10.307  14.609  0.1167  0.2227 -0.0924
21927W        W38001   9.877  14.216  11.573 -0.0801 -0.1090  0.2109
21928W        W38002   0.490  11.609   1.210 -0.1502  0.2497 -0.1033
21929W        W38003  14.362   0.320  12.249  0.1840 -0.0107  0.0783
21930W        W38004  16.197  10.882   2.410  0.3077 -0.0866  0.0672
21931W        W38005   7.114  17.578  11.929 -0.1324  0.5619 -0.1031
21932W        W38006   8.835  16.824   5.296 -0.3883 -0.0388 -0.1122
21933W        W38007   9.204   3.930   3.600  0.0230  0.0376  0.2998
21934W        W38008   8.606   7.746   5.826  0.0059  0.3009  0.0396
21935W        W38009  16.505  10.405  12.801 -0.0195 -0.1425 -0.0134
21936W        W38010  13.469   1.215   2.918  0.1874 -0.0228  0.0025
21937W        W38011  15.886  14.166   5.973  0.1965 -0.0517  0.0797
21938W        W38012   9.063   1.115   0.017 -0.1758 -0.0908 -0.2152
21939W        W38013  10.463   8.816   3.551  0.0681  0.1939 -0.0634
21940W        W38014  15.601  14.020   5.479  0.2760  0.3283 -0.2095
21941W        W38015   9.139   6.358   3.928 -0.3245 -0.1284  0.1611
21942W        W38016   7.791  15.807   1.721  0.0538  0.2811  0.1904
21943W        W38017   4.051   3.549   5.365  0.2516 -0.0423 -0.0912
21944W        W38018  16.663  13.769   3.540  0.2716 -0.2175 -0.0562
21945W        W38019   7.035   8.795  11.974  0.1185 -0.1805 -0.0158
21946W        W38020   3.013  16.308   1.490  0.0784  0.0775  0.0825
21947W        W38021   7.667   8.785  11.420 -0.1743 -0.0903  0.1339
21948W        W38022   2.170  15.345   2.325  0.0454 -0.0623  0.0493
21949W        W38023   3.357  17.941   1.586  0.2361 -0.3918 -0.0674
21950W        W38024  16.084   7.628  12.661 -0.2125 -0.0661  0.2338
21951W        W38025  13.159   4.666   3.377 -0.0411  0.2377 -0.4908
21952W        W38026   9.771   1.457  15.263  0.4374  0.1133 -0.3429
21953W        W38027   4.846  11.507  11.806 -0.2069 -0.1381  0.1592
21954W        W38028  13.686   5.717  16.202 -0.2787  0.0873 -0.0075
21955W        W38029  12.253   1.114   6.078 -0.0619  0.1739 -0.0351
21956W        W38030   8.267   5.212  12.252  0.0982 -0.2584 -0.0928
21957W        W38031   3.683  11.076   0.624 -0.1622  0.1599 -0.1497
21958W        W38032   2.122   0.658   5.784 -0.1306  0.3431 -0.1245
21959W        W38033   6.064  17.110  13.122  0.0310  0.5374 -0.0811
21960W        W38034   2.428   9.909  13.143 -0.2337 -0.2788  0.1362
21961W        W38035   7.372   2.032   1.282 -0.2695 -0.1735  0.1526
21962W        W38036   0.278   0.734  11.526 -0.2617 -0.0769  0.1883
21963W        W38037  11.860  15.160  13.440 -0.2645  0.0215  0.1555
21964W        W38038   2.271   2.957  12.180 -0.2380 -0.1253 -0.0416
21965W        W38039   8.623   8.321  12.774  0.2890 -0.3104  0.1238
21966W        W38040  12.765  10.094   1.902  0.0211 -0.0129 -0.1433
21967W        W38041  15.850  17.424   1.081  0.0160 -0.0858  0.1473
21968W        W38042   3.586   8.193   5.874 -0.1702 -0.1458  0.0167
21969W        W38043  10.664   4.838   0.506  0.0386  0.3950 -0.1330
21970W        W38044   7.777   2.039   3.594 -0.2455 -0.1877 -0.1883
21971W        W38045   9.431   0.337  15.395 -0.3062 -0.2275 -0.0148
21972W        W38046  17.559  11.283  11.603  0.1209  0.3487  0.0950
21973W        W38047  16.408   1.988  15.316  0.2285  0.1078 -0.1609
21974W        W38048   8.973   9.308   4.278  0.2445 -0.2787 -0.1120
21975W        W38049   9.259  15.644   1.281 -0.1357 -0.0726 -0.0026
21976W        W38050   8.282   7.742  13.031  0.1491  0.1766  0.0812
21977W        W38051  12.970   0.490   0.463 -0.2231 -0.0405  0.2351
21978W        W38052   2.560  16.688   2.956  0.0586 -0.0847 -0.3628
21979W        W38053  14.955   6.017   5.622  0.1847  0.2936  0.0578
21980W        W38054  12.536  10.899  15.789  0.1450  0.2097  0.0040
21981W        W38055   7.110  10.411  15.271 -0.3008  0.5970  0.1116
21982W        W38056  13.067   6.554  15.793 -0.1211  0.0467 -0.1457
21983W        W38057  14.004   5.291  13.210  0.2088  0.0019  0.0751
21984W        W38058  17.684   3.381   5.454 -0.1712  0.2119  0.0422
21985W        W38059  12.300   1.616  11.720  0.0171  0.0494 -0.1538
21986W        W38060   7.720  18.192   3.406 -0.1200  0.1009 -0.2541
21987W        W38061  17.038   1.917   4.122  0.0987  0.1491 -0.3724
21988W        W38062  16.199  14.318   0.528  0.4916 -0.0322  0.0263
21989W        W38063   2.720   5.441  11.379 -0.0268 -0.0272  0.3127
21990W        W38064   8.300  14.954  13.786 -0.1329  0.3630 -0.0060
21991W        W38065  17.001  16.339   3.367 -0.1961  0.0587 -0.0710
21992W        W38066  11.440   8.194   3.496  0.2897 -0.2100 -0.0810
21993W        W38067   5.383   1.193   4.632 -0.1073  0.0387 -0.2528
21994W        W38068  11.504  15.399   0.108 -0.0555 -0.0123  0.0077
21995W        W38069  14.587  15.380   1.595 -0.3151 -0.2200 -0.0947
21996W        W38070  12.660   3.886  14.812  0.3190 -0.0201  0.1933
21997W        W38071  14.890   5.987   4.640 -0.1170  0.0393  0.0413
21998W        W38072  15.036   3.862   2.270  0.3268 -0.0511  0.0527
21999W        W38073   0.205   1.643  11.373 -0.1510 -0.1469  0.0636
22000W        W38074   1.031   6.705   3.531 -0.1017 -0.1287  0.1465
22001W        W38075   5.295  11.790  12.770  0.0833  0.0385 -0.0449
22002W        W38076   1.013   7.213  12.106 -0.2215  0.0015  0.1063
22003W        W38077   7.034  10.737   0.344  0.2487 -0.3385  0.0623
22004W        W38078   2.637   7.456  12.632 -0.0660 -0.1413 -0.0854
22005W        W38079   9.993  13.696  10.674  0.1697 -0.4057  0.1703
22006W        W38080   0.845  16.796   2.606  0.0945 -0.2138  0.2905
22007W        W38081  11.459   8.043   4.634  0.0796 -0.0547 -0.0781
22008W        W38082   8.210   3.623   0.077  0.2159 -0.1356  0.1085
22009W        W38083  15.750   3.245  13.849 -0.0423  0.3799  0.0768
22010W        W38084   6.410  17.228   4.503  0.1474  0.0049 -0.0132
22011W        W38085  14.142   6.097   4.800  0.2444 -0.0647 -0.0821
22012W        W38086   2.257   8.006  13.929  0.0373 -0.0190 -0.0830
22013W        W38087   7.107   8.039  13.982  0.1975 -0.2990  0.1735
22014W        W38088   5.063   1.087  13.186 -0.2690  0.0328 -0.1621
22015W        W38089  11.471   7.286   1.433 -0.1988 -0.1194 -0.1013
22016W        W38090  15.364  10.378   0.454 -0.1115  0.1689  0.1251
22017W        W38091   5.318   2.208   5.688 -0.0062 -0.1602 -0.0408
22018W        W38092  14.306   1.202   3.386 -0.1765 -0.2674  0.0137
22019W        W38093   7.830  16.167  14.587 -0.1150  0.0430 -0.2028
22020W        W38094  16.723   4.243   3.761  0.1331  0.3083  0.0200
22021W        W38095  12.778   7.790   3.327 -0.3033 -0.0219  0.1097
22022W        W38096   5.197   2.876  13.053  0.0228 -0.1865 -0.0643
22023W        W38097  15.728   0.777   4.742 -0.1708 -0.1245  0.1050
22024W        W38098   0.094  17.714  10.489  0.1322 -0.0104  0.0243
22025W        W38099  11.284   6.036   1.566  0.0047  0.0483 -0.1006
22026W        W38100  10.127  16.732   3.330  0.2108 -0.1857 -0.0834
22027W        W38101  13.755   2.007  16.414 -0.0107 -0.0176  0.0838
22028W        W38102  12.676   6.765  15.192  0.0070 -0.1055  0.2515
22029W        W38103   2.310  17.868  15.426  0.0643  0.3284  0.3376
22030W        W38104  15.631   9.474  14.811  0.2795  0.0361 -0.2285
22031W        W38105  14.614   5.920  15.403  0.2822  0.0278  0.2753
22032W        W38106   2.474  14.682  15.925 -0.0274 -0.0135  0.3856
22033W        W38107  15.534   4.506  13.153  0.1117  0.4366 -0.0459
22034W        W38108   7.892  11.828  12.228  0.0946 -0.0336 -0.2792
22035W        W38109  16.536  11.116   4.698  0.1153 -0.2447 -0.0045
22036W        W38110  13.275   0.928   3.811  0.1029 -0.0498 -0.0897
22037W        W38111   6.817  11.870   3.259 -0.1558 -0.2590  0.2540
22038W        W38112   3.173  13.582  14.908 -0.1008  0.2470 -0.1623
22039W        W38113  17.823  13.294   3.249 -0.0634  0.0692 -0.0343
22040W        W38114   6.760  16.262  15.339  0.2784 -0.3561 -0.2885
22041W        W38115  14.229   5.474  16.034  0.1642 -0.1037 -0.1475
22042W        W38116   8.356   6.479   1.493  0.0146  0.2735 -0.3167
22043W        W38117   0.698   1.556  15.325 -0.1439  0.0969  0.1843
22044W        W38118   2.658  18.215  11.444 -0.1158  0.2109  0.1500
22045W        W38119   7.093   7.645  13.593  0.2056 -0.3065 -0.1210
22046W        W38120   9.739   7.041  14.154 -0.2204  0.1492 -0.1237
22047W        W38121  14.169   4.358  13.849 -0.3091  0.1279 -0.0547
22048W        W38122   3.641   3.059  14.907 -0.2583  0.0064  0.1885
22049W        W38123   9.027   3.228  12.541  0.2203 -0.0959  0.1651
22050W        W38124   3.413   3.227   4.141 -0.1608 -0.0486  0.0367
22051W        W38125  12.634   1.532   2.549  0.0459 -0.2619 -0.0901
22052W        W38126   2.927  16.567  12.816 -0.0542 -0.1922 -0.5333
22053W        W38127   8.597  17.251   1.114  0.0888 -0.0040  0.0824
22054W        W38128   8.784  13.993  11.553  0.2230  0.0974 -0.0278
22055W        W38129  13.286   5.538  12.912 -0.0121 -0.0751  0.2030
22056W        W38130  10.186  15.622   2.463  0.0243  0.1091 -0.0984
22057W        W38131  14.144   2.702   0.687  0.3992 -0.1737  0.2366
22058W        W38132  16.468  15.646   0.359 -0.2353 -0.0018 -0.0834
22059W        W38133   5.203   7.863  13.912  0.1575 -0.0210 -0.1082
22060W        W38134  10.850   0.632  13.931  0.1601  0.0422 -0.1964
22061W        W38135   5.427  10.617   3.648 -0.0118  0.1225 -0.0340
22062W        W38136   5.385  12.436  10.735  0.0348 -0.0072 -0.0121
22063W        W38137  10.996  15.808   2.928  0.1871  0.0541  0.1580
22064W        W38138  13.540   7.696  15.726 -0.2460 -0.0365  0.2298
22065W        W38139  11.229  17.452   4.105  0.0739 -0.1492  0.1375
22066W        W38140  10.888   2.580   0.679 -0.2113 -0.1696 -0.1509
22067W        W38141  13.577  11.280  16.154  0.1256 -0.1187  0.0885
22068W        W38142   9.173  11.271   4.599  0.0792 -0.1136  0.1597
22069W        W38143   6.597  15.962   5.465  0.0175 -0.3864  0.1809
22070W        W38144   5.916  16.451  12.577 -0.1015  0.1374 -0.1400
22071W        W38145  14.188   7.781  14.042  0.0529 -0.0165  0.0442
22072W        W38146   9.168  13.246  14.517  0.1970 -0.1196 -0.0875
22073W        W38147   5.998  13.377   2.056 -0.5134 -0.0385 -0.0826
22074W        W38148   7.500  15.492  15.822 -0.1780 -0.0661 -0.1579
22075W        W38149  13.533  14.178   0.214  0.3247  0.1930  0.1143
22076W        W38150  15.625   3.126   3.664 -0.2414 -0.2145 -0.1169
22077W        W38151  12.894   1.441  15.512  0.1878 -0.4684  0.1476
22078W        W38152   5.909  17.875   1.643 -0.2960  0.0544  0.1795
22079W        W38153   6.783  15.079   5.385  0.0442  0.0460 -0.0570
22080W        W38154   8.695  18.064   3.099  0.0287 -0.2223 -0.0813
22081W        W38155   5.055  13.580   3.946  0.2277 -0.2216  0.1180
22082W        W38156  12.409   8.361   0.590  0.0440  0.0636  0.0401
22083W        W38157   9.246   2.745   1.514  0.1063 -0.1394  0.1829
22084W        W38158  16.931  17.348  12.013 -0.1961  0.1701 -0.1696
22085W        W38159   2.934  16.921  15.163 -0.1972  0.0145 -0.1187
22086W        W38160   3.787   4.502   6.128 -0.0145 -0.0014 -0.3282
22087W        W38161   7.304  12.466   0.528 -0.3106  0.1493 -0.0281
22088W        W38162  11.320  10.886   3.793  0.0500  0.1053 -0.0316
22089W        W38163   8.246   6.152   4.478 -0.3212  0.0902  0.0475
22090W        W38164   9.255  16.692   1.270 -0.0368  0.0907 -0.2890
22091W        W38165  15.349   0.437   0.610 -0.2800  0.1269 -0.1437
22092W        W38166   9.543  15.957  14.516  0.3216  0.0808  0.1540
22093W        W38167  11.018  12.973   0.693 -0.1250 -0.0171 -0.1318
22094W        W38168   7.719  11.708  16.092 -0.1735  0.0313  0.0516
22095W        W38169   2.287   6.461   1.934 -0.1485 -0.1547 -0.1378
22096W        W38170   2.218   1.286  12.741 -0.0061 -0.0591  0.0514
22097W        W38171   2.860  16.452   5.203  0.2261 -0.0353 -0.0856
22098W        W38172   3.854   7.067   1.923 -0.1560  0.1060 -0.0285
22099W        W38173   2.517   6.241  14.517  0.1674 -0.0224 -0.1739
22100W        W38174  11.754   2.193   2.080  0.2414  0.3976 -0.0078
22101W        W38175  15.407   7.769  14.670  0.3285 -0.1533 -0.0904
22102W        W38176  14.622   5.077  15.699  0.3218  0.1061  0.2087
22103W        W38177   5.854   1.982   4.333 -0.0740  0.1610 -0.1718
22104W        W38178  13.621  12.258   0.656 -0.1567 -0.1467  0.0773
22105W        W38179   4.452   2.470  11.956  0.2380 -0.4226  0.0747
22106W        W38180   1.425  12.976   2.427  0.0540 -0.0519  0.0761
22107W        W38181   9.879   0.587  13.314  0.0757 -0.0674  0.1036
22108W        W38182   9.240  11.919   3.253  0.0508 -0.0416  0.2229
22109W        W38183   1.670   6.539   0.444  0.2442 -0.0609 -0.0232
22110W        W38184   5.125   6.610   0.486  0.0439  0.2367 -0.0913
22111W        W38185  14.209  11.624  15.302  0.1083  0.0003 -0.3657
22112W        W38186   2.161  11.872   1.019 -0.2416 -0.2958  0.2261
22113W        W38187   1.381  16.774   5.286 -0.2172 -0.3705  0.0459
22114W        W38188  18.086  17.666   3.241  0.1304 -0.1694  0.2222
22115W        W38189  10.816  16.446   2.670  0.1183  0.3475 -0.2108
22116W        W38190   7.483   9.909  13.437  0.0413  0.6271  0.3177
22117W        W38191   7.512   0.899  12.755  0.1563 -0.1326  0.1195
22118W        W38192   1.095  13.084  16.152 -0.0665  0.0847  0.0524
22119W        W38193   7.126   8.620  13.747  0.0872 -0.0878 -0.0120
22120W        W38194   0.502   4.460   0.566  0.2071  0.1479  0.1148
22121W        W38195  10.306   9.944   5.008  0.2236  0.1969 -0.1394
22122W        W38196   8.346  10.449  13.812  0.1480  0.0406  0.2889
22123W        W38197  14.303   5.557   2.107 -0.1526 -0.0453  0.1772
22124W        W38198  17.284  13.629   4.738 -0.2794 -0.0421  0.0790
22125W        W38199  15.854  16.313   4.262 -0.3175  0.1425 -0.1086
22126W        W38200   7.984   3.661  12.415 -0.1205  0.0014 -0.2814
22127W        W38201  11.343  11.153  15.009 -0.2852 -0.1729  0.1652
22128W        W38202   5.715  12.137  11.000 -0.0609  0.0198  0.1385
22129W        W38203  15.408  10.523  12.092 -0.0371 -0.0884 -0.1757
22130W        W38204   0.669   0.477   1.761  0.0803 -0.5248 -0.0130
22131W        W38205  17.417   5.850   0.413  0.2445  0.2124 -0.0874
22132W        W38206  15.373  15.708  11.437  0.2615  0.0854 -0.0165
22133W        W38207  14.752  14.878  12.983  0.0869  0.0547  0.1801
22134W        W38208   8.061  17.587  12.183  0.0665 -0.1206  0.0693
22135W        W38209   9.323   5.195  13.526 -0.0812 -0.0158  0.1341
22136W        W38210  15.799  14.071   0.322  0.5298  0.3083  0.1517
22137W        W38211  13.845  15.911  12.733 -0.2985  0.2080 -0.2363
22138W        W38212   9.747   3.422   5.121  0.0540 -0.1811  0.0510
22139W        W38213  12.894  11.281  15.769  0.0785 -0.1615 -0.4033
22140W        W38214   7.489   4.449   4.177 -0.1169  0.0436  0.0042
22141W        W38215   4.893   1.785   4.554 -0.0058 -0.2968 -0.0309
22142W        W38216   3.847  12.223   2.656  0.0365  0.0347 -0.1186
22143W        W38217  14.508   9.929  10.337  0.2918  0.4026 -0.2657
22144W        W38218   7.849   6.621   2.093 -0.1400  0.0860 -0.2521
22145W        W38219   1.899   5.999   5.352 -0.1058  0.0556 -0.0903
22146W        W38220   8.197  12.928   4.774  0.0824 -0.0838  0.2667
22147W        W38221   3.502   4.738   0.131 -0.2460  0.1679  0.5913
22148W        W38222  18.055  16.164   5.409  0.0959 -0.1803 -0.1742
22149W        W38223  11.950   2.473  14.663 -0.0944 -0.1444 -0.1852
22150W        W38224   3.490   1.520   1.626  0.4000  0.0877  0.2863
22151W        W38225  10.733  14.416  16.259 -0.1864  0.0118 -0.0236
22152W        W38226   6.112  13.667   4.840 -0.1049  0.0928  0.0446
22153W        W38227   5.153  15.316  12.804 -0.0610  0.0912 -0.0238
22154W        W38228   3.580   5.230  11.035 -0.0528  0.0760 -0.1426
22155W        W38229  11.404  17.889  15.312 -0.1529  0.0145 -0.0939
22156W        W38230  17.461  14.956  13.496  0.0248 -0.1538  0.3126
22157W        W38231  12.098   3.268   2.641 -0.1808 -0.0154 -0.2161
22158W        W38232  16.731  17.167  16.438 -0.0803 -0.0434 -0.1601
22159W        W38233   4.338   1.456  14.831  0.1146  0.0713 -0.0629
22160W        W38234  14.609  13.594  12.073  0.2452 -0.0270 -0.1930
22161W        W38235  17.122   7.524   0.750  0.1213  0.1070  0.0832
22162W        W38236   0.183   3.780  14.248 -0.1360 -0.1980 -0.1715
22163W        W38237  16.614  18.241   1.087  0.1864 -0.0607  0.0888
22164W        W38238  15.698  11.497   4.912 -0.4167  0.0715  0.0011
22165W        W38239  12.338  15.883  12.073 -0.1936  0.2761 -0.0177
22166W        W38240  13.078   6.507  15.308 -0.1457  0.1049 -0.1170
22167W        W38241  17.371   4.910  12.989  0.1807  0.2948 -0.2344
22168W        W38242   4.544  15.415  15.254  0.0873 -0.1215  0.0086
22169W        W38243  10.456   2.476  13.822  0.2028  0.1817 -0.2677
22170W        W38244   0.414  10.763   0.986  0.1676 -0.3158 -0.2306
22171W        W38245  17.695   5.810  15.002 -0.0610  0.4515 -0.3829
22172W        W38246  10.346  14.690   4.329 -0.1645 -0.2664  0.3221
22173W        W38247   9.987  12.727   0.394  0.0278 -0.3977 -0.1079
22174W        W38248   1.255   3.237   1.906 -0.0941  0.0560  0.0892
22175W        W38249   1.938   3.951  12.165  0.1324 -0.2339  0.0370
22176W        W38250  15.225  17.519  13.852  0.0443 -0.2869 -0.0700
22177W        W38251   0.013   9.234   0.093  0.2090  0.2200 -0.3797
22178W        W38252  16.423   3.094   0.218  0.2734 -0.0732 -0.1082
22179W        W38253   8.407   3.768   0.581 -0.1251  0.0752 -0.6727
22180W        W38254  12.569  14.012  15.217 -0.0098  0.0299 -0.3273
22181W        W38255  14.977  14.270   5.496 -0.0303 -0.3398  0.2232
22182W        W38256  13.474   6.783   3.965  0.1831 -0.4054 -0.3024
22183W        W38257  11.350  12.259   4.716 -0.1395 -0.1226  0.2785
22184W        W38258  11.344  14.170  12.754 -0.3408 -0.0280 -0.0155
22185W        W38259  15.026  14.666   5.118  0.1177 -0.0086  0.0379
22186W        W38260   7.341   8.252   4.316  0.0737 -0.1939  0.1266
22187W        W38261   1.598   5.876   4.498 -0.1547 -0.2961  0.1291
22188W        W38262   7.618   6.934   3.916 -0.0823  0.0434 -0.1009
22189W        W38263  11.194  13.293   0.273  0.1838  0.0916  0.2388
22190W        W38264   5.935   7.693  11.943 -0.0093  0.0399 -0.0865
22191W        W38265   1.619   7.130   2.948 -0.1629  0.2146  0.0447
22192W        W38266  17.129  10.968   4.006 -0.2446  0.0302  0.1163
22193W        W38267   3.149   4.755   5.123  0.1778  0.2465  0.1683
22194W        W38268   4.438   6.036  12.982 -0.0126  0.0111  0.2510
22195W        W38269   3.718  14.583   4.313  0.0112  0.2137 -0.1493
22196W        W38270   9.631  14.376  13.274 -0.3019  0.0784 -0.1553
22197W        W38271   0.244  16.493   3.719 -0.1702 -0.0058  0.0019
22198W        W38272   5.067  16.844   5.560  0.3088 -0.1871 -0.0031
22199W        W38273   3.759  17.400   1.897 -0.0190 -0.0290 -0.0102
22200W        W38274   5.671  16.468   4.414  0.1936  0.0890 -0.1891
22201W        W38275  14.141   7.562  12.187  0.1985  0.2157 -0.0269
22202W        W38276  12.129  14.020   1.789  0.4059  0.2417  0.0993
22203W        W38277   9.648   7.929   0.987 -0.2463  0.0560  0.1171
22204W        W38278   6.981  16.399   2.211 -0.1273  0.0698 -0.1646
22205W        W38279  12.032   2.610   2.907  0.1521 -0.1105 -0.0312
22206W        W38280   2.255  15.344  11.738 -0.1744  0.3597 -0.0990
22207W        W38281   8.145  15.597   5.525 -0.2021  0.4893 -0.1234
22208W        W38282   4.820   1.187   2.117 -0.0462 -0.1140  0.0499
22209W        W38283  16.245   0.885   4.932  0.0045  0.1487  0.3225
22210W        W38284   9.330  15.121   5.235 -0.0548 -0.2097 -0.3241
22211W        W38285  13.538   1.230   3.510  0.2712  0.1994 -0.2119
22212W        W38286  16.738   2.605   1.429  0.0263 -0.0317 -0.0301
22213W        W38287   2.411   7.202  11.723  0.0978  0.1843  0.1298
22214W        W38288  10.743  16.703  14.954  0.2131  0.1424  0.2217
22215W        W38289   9.687   8.191   1.929  0.1197 -0.3198  0.3736
22216W        W38290  10.087   0.138  13.024  0.1875  0.2509  0.1982
22217W        W38291  13.007  13.899  15.561  0.1592 -0.3451  0.2638
22218W        W38292  17.408   2.381  11.386  0.2065  0.1704 -0.0570
22219W        W38293  16.604  14.828  11.406  0.0909  0.0247 -0.2759
22220W        W38294   8.177   2.283   2.406  0.1047 -0.1253  0.4547
22221W        W38295  12.287  15.480   3.485 -0.0360 -0.0625 -0.3217
22222W        W38296   7.979   8.604  12.503 -0.0130  0.2405 -0.1148
22223W        W38297   0.223   5.464  11.839 -0.1013  0.1040 -0.3336
22224W        W38298   3.625   5.859  12.201 -0.1228 -0.0433  0.0781
22225W        W38299   6.924   2.842  12.136 -0.0442 -0.1757 -0.2881
22226W        W38300   6.205  15.040   2.411 -0.0519 -0.1459 -0.1356
22227W        W38301  16.216  10.897   3.143 -0.1594  0.1258  0.2022
22228W        W38302  12.102  11.586  14.284  0.1464 -0.0385  0.1307
22229W        W38303   6.217  11.468   0.675 -0.1762 -0.2387 -0.0093
22230W        W38304  11.334   1.865   4.748  0.0138 -0.0033  0.0915
22231W        W38305  13.308   3.122  11.912 -0.3460  0.0281 -0.1862
22232W        W38306   6.466   1.594  12.584  0.0015 -0.0515 -0.0215
22233W        W38307  11.512   8.093   1.918  0.3687 -0.3232 -0.0430
22234W        W38308  17.654  10.997  13.657  0.1729 -0.0051  0.1101
22235W        W38309   5.115   5.434   4.316  0.0253 -0.2274  0.1245
22236W        W38310   5.178   0.538   5.141 -0.0443 -0.2749  0.0194
22237W        W38311  15.625  13.100  14.958  0.1172 -0.0088 -0.1486
22238W        W38312   9.662   2.778  15.203 -0.0679  0.1894  0.2688
22239W        W38313   3.457   2.345   4.547 -0.0286 -0.0722  0.0548
22240W        W38314  10.953   1.593  12.000  0.2283  0.0833 -0.2801
22241W        W38315  16.044  11.699   4.516 -0.0380 -0.3691  0.0649
22242W        W38316   1.473  17.984   3.925 -0.0954 -0.1000 -0.3550
22243W        W38317  15.328   7.162   2.775 -0.1264 -0.4163  0.1036
22244W        W38318  16.850  10.256   1.015  0.1730 -0.2847  0.4163
22245W        W38319  15.712  10.911  12.039 -0.0029  0.0321  0.1060
22246W        W38320  14.824   0.179   2.162 -0.0906 -0.1921  0.1353
22247W        W38321   9.694  10.096  15.180  0.2362 -0.1343 -0.2535
22248W        W38322   5.982   9.433  14.542 -0.1323  0.1478 -0.3756
22249W        W38323   1.251   4.859   4.807 -0.0212 -0.0331 -0.1602
22250W        W38324   6.923   3.063   0.928 -0.2543 -0.1545  0.1963
22251W        W38325   2.623   7.494   2.783  0.2207  0.1274 -0.1154
22252W        W38326   2.084   5.533  12.214  0.0762  0.1135 -0.1789
22253W        W38327  10.706  14.148   3.918  0.1620  0.0715 -0.1544
22254W        W38328   4.949   2.519  15.108  0.2421 -0.0151 -0.0355
22255W        W38329   3.558  16.017   5.568  0.1933  0.3698 -0.0354
22256W        W38330   5.638   5.254  14.474  0.4450  0.1757 -0.2287
22257W        W38331   9.921   5.820   2.246  0.2554  0.1429  0.0974
22258W        W38332   2.286   6.789  11.521 -0.1711  0.1635 -0.2863
22259W        W38333   5.830   0.159  12.526  0.0651  0.0597 -0.0353
22260W        W38334   6.585   8.790  13.769 -0.0919 -0.0750  0.1888
22261W        W38335  11.006  10.918   5.670  0.0409  0.1469  0.0083
22262W        W38336  11.277   2.578   2.639  0.1286  0.1465  0.2278
22263W        W38337  15.070  14.012  13.857 -0.3475 -0.0427 -0.1901
22264W        W38338  12.887   1.934  15.629  0.1285  0.0359  0.1177
22265W        W38339   2.276   6.144   1.293 -0.1898 -0.0575 -0.1561
22266W        W38340   5.765  11.470   1.242  0.3330 -0.1799 -0.1531
22267W        W38341   6.725   1.145  12.316  0.1046 -0.2155 -0.0894
22268W        W38342   0.412  12.427  14.503 -0.1044  0.0444  0.2850
22269W        W38343   6.083  15.562   0.930  0.0329  0.0322 -0.0354
22270W        W38344  11.189  13.729  11.603 -0.0166 -0.0826  0.3459
22271W        W38345   4.468  11.756   0.945 -0.1253  0.0349 -0.1741
22272W        W38346   6.935  11.865  15.431  0.0187 -0.2463 -0.1596
22273W        W38347   0.608   7.837  14.751  0.1674  0.3563  0.0446
22274W        W38348   3.599   4.092  11.494  0.0490  0.1265 -0.4898
22275W        W38349  15.496   3.575  12.969 -0.0019 -0.1754  0.1168
22276W        W38350   4.855   6.959   4.185  0.1439  0.1657 -0.2490
22277W        W38351  14.515  14.747  13.997 -0.1399  0.1821 -0.0386
22278W        W38352   5.194  12.039  14.621  0.4136 -0.1493  0.0592
22279W        W38353  14.854  16.446  11.709  0.3158 -0.1748  0.2605
22280W        W38354  18.120  17.763  12.467 -0.0680  0.1794 -0.1420
22281W        W38355   5.153   5.617  14.056  0.1924  0.0420 -0.1624
22282W        W38356  13.599   8.478   3.373  0.1298 -0.0053  0.3179
22283W        W38357  17.511   4.129   4.493  0.2357 -0.2828 -0.0998
22284W        W38358   8.547  16.603   4.639  0.0414  0.1214  0.0570
22285W        W38359   0.881   5.956   2.477 -0.1467  0.2139  0.2392
22286W        W38360  13.212   3.430   1.227 -0.2091  0.4097 -0.1368
22287W        W38361   5.095  10.620  12.836  0.2187 -0.1221  0.1060
22288W        W38362  11.593   2.963   3.586 -0.2108  0.1260  0.4542
22289W        W38363   6.064  14.096   5.309  0.1667 -0.0128  0.1782
22290W        W38364   0.327   9.239   0.455 -0.3436  0.2401 -0.2466
22291W        W38365  15.001  10.955  16.282  0.2871  0.1150  0.1220
22292W        W38366  12.780   0.296   5.969  0.2615  0.2779  0.3009
22293W        W38367   9.645  12.412   0.690 -0.0784 -0.4359 -0.1655
22294W        W38368  10.591  16.048   6.371 -0.1007  0.1513 -0.1794
22295W        W38369  11.252   0.420   2.597  0.1432 -0.1545 -0.3154
22296W        W38370   9.987  18.252   2.815 -0.0592 -0.1999  0.2416
22297W        W38371   8.336   4.113   2.368 -0.0086 -0.0616 -0.1880
22298W        W38372  16.751  13.878  12.080  0.0126  0.1527  0.0486
22299W        W38373   1.511  10.762  13.100  0.0754  0.0402 -0.2292
22300W        W38374   2.935   4.373  11.804  0.0070 -0.4872 -0.0032
22301W        W38375   7.817   1.577  11.664 -0.1724 -0.3200 -0.1433
22302W        W38376  16.794   6.163  15.471  0.1237  0.0681  0.0535
22303W        W38377   7.159   0.760   5.008 -0.2579  0.0691 -0.0768
22304W        W38378   0.649   7.542  12.269 -0.2861  0.0491 -0.0750
22305W        W38379  16.108   5.776   5.212  0.0569  0.0819 -0.0118
22306W        W38380  14.748  17.030   1.640  0.0221  0.1201 -0.0125
22307W        W38381  15.057  10.409  14.560 -0.0488  0.2021  0.1841
22308W        W38382   3.519   3.504   3.614  0.1251 -0.1122 -0.3580
22309W        W38383   6.037  12.026  16.480  0.0607 -0.0832  0.3629
22310W        W38384   8.933  11.670   1.551 -0.1040 -0.0420 -0.2362
22311W        W38385   8.493  14.581   0.506  0.2705 -0.0181  0.2923
22312W        W38386   0.526   2.860  16.234 -0.2903  0.0799 -0.2500
22313W        W38387   2.363   0.178   3.623  0.1090 -0.2219 -0.2718
22314W        W38388   7.688   7.217   1.489 -0.1163  0.2697  0.0364
22315W        W38389   4.168   8.400   1.817  0.2583  0.1350  0.3295
22316W        W38390   3.404  14.319   5.535  0.2096 -0.3959 -0.2309
22317W        W38391   2.741  17.575   9.381 -0.1078  0.0689 -0.1097
22318W        W38392   0.225  10.022  13.906 -0.0507  0.0081 -0.0752
22319W        W38393  15.877   0.057   1.497  0.2040 -0.0139  0.0265
22320W        W38394  11.240  17.930   3.250 -0.0928 -0.0847 -0.0589
22321W        W38395  15.563   4.824   5.927  0.1833 -0.1109  0.4446
22322W        W38396  14.690   1.688   3.164 -0.2613 -0.0412  0.1492
22323W        W38397  16.715   9.204   5.206 -0.1163 -0.1497 -0.0801
22324W        W38398  12.317  10.589   3.007 -0.1203 -0.1944 -0.3164
22325W        W38399  10.473  18.035  12.175 -0.0171  0.0273 -0.2048
22326W        W38400  11.252   4.717   3.137 -0.1992 -0.0485  0.2173
22327W        W38401   0.804  11.088  13.902  0.0066 -0.1045  0.0932
22328W        W38402   4.028   3.235  11.460  0.2813  0.0062 -0.2262
22329W        W38403  17.260   7.140   3.179 -0.0483 -0.2767 -0.0400
22330W        W38404  16.719  10.057   2.082 -0.2154 -0.1356  0.0186
22331W        W38405  12.806   2.352   0.792  0.1712  0.1167 -0.0201
22332W        W38406   8.765   3.726  13.815  0.0671  0.1587 -0.2966
22333W        W38407  16.650  16.392  16.204 -0.2680 -0.1861  0.1770
22334W        W38408   0.854  15.738  13.835 -0.1282 -0.1593  0.0650
22335W        W38409   2.156   7.932   3.239  0.1178  0.1841  0.2348
22336W        W38410   1.253   7.968  15.531  0.1868  0.1996  0.2360
22337W        W38411  10.149  17.282  13.051  0.3929  0.0635  0.0478
22338W        W38412  15.375   8.617   2.107 -0.2029  0.0551  0.1013
22339W        W38413   6.575   7.954   2.563  0.0679  0.0841  0.0978
22340W        W38414   6.400   6.185   3.834 -0.2818  0.4275  0.0482
22341W        W38415  11.024   8.695  13.724  0.0427 -0.0150 -0.1859
22342W        W38416  16.445  16.176   4.612  0.2108 -0.0304 -0.1413
22343W        W38417  11.949  16.333   1.060  0.1384 -0.0489 -0.0725
22344W        W38418  12.539  16.333   3.854 -0.1174  0.2020 -0.2305
22345W        W38419  13.097   0.087  14.992 -0.1716 -0.0394  0.1656
22346W        W38420  14.982  17.868  12.878 -0.2399  0.1200  0.1890
22347W        W38421   7.279   8.455   1.859 -0.0419 -0.2091 -0.0438
22348W        W38422   0.377  13.170   5.439  0.0433 -0.3464 -0.0307
22349W        W38423   1.107   5.589   2.027  0.1112 -0.1142 -0.1416
22350W        W38424   3.752   7.691   5.957 -0.0246  0.1939  0.1381
22351W        W38425   3.204  13.679  15.794  0.1066  0.1915 -0.3446
22352W        W38426   8.300   8.242  12.281 -0.5036  0.0128  0.2140
22353W        W38427  12.164  12.117  12.666 -0.0298 -0.3809 -0.2189
22354W        W38428   9.870   3.691   1.530  0.0050  0.0896 -0.0885
22355W        W38429   1.190   5.082  16.002 -0.0172  0.0726 -0.2219
22356W        W38430   5.863   3.186  11.828  0.1485 -0.1337 -0.0603
22357W        W38431  17.900  10.948  15.348 -0.1084  0.1163 -0.0527
22358W        W38432  16.658   1.661  14.887  0.2158 -0.0306 -0.0143
22359W        W38433   9.721  16.014  13.955 -0.0390  0.0284 -0.1616
22360W        W38434   9.551  12.811  13.199 -0.0247  0.1729  0.0022
22361W        W38435   2.012   4.940   2.736  0.3000 -0.2594  0.0441
22362W        W38436   5.906   7.388   1.025  0.0632 -0.3985 -0.1631
22363W        W38437   8.580   9.450   3.973  0.1682  0.2220 -0.1484
22364W        W38438   9.123   6.456  16.104 -0.0359 -0.3499  0.1114
22365W        W38439   2.378   9.860  14.593  0.0863  0.1248  0.1207
22366W        W38440  11.961   3.988   3.551 -0.1579  0.2885  0.0399
22367W        W38441   5.404  14.927   4.186  0.1044 -0.2468  0.0052
22368W        W38442  13.089  17.184   4.832  0.0075  0.1606  0.2622
22369W        W38443   4.237   2.224   4.106 -0.0299  0.0715  0.3993
22370W        W38444   8.053  10.977  14.802 -0.0508 -0.1207 -0.0949
22371W        W38445  17.313   3.567   3.998  0.0608  0.1705  0.0553
22372W        W38446  11.502   6.762  13.787  0.0842  0.0262  0.2070
22373W        W38447  10.302  14.307   3.370 -0.0253  0.0933 -0.0578
22374W        W38448  11.519  18.117   2.457 -0.0694 -0.1645 -0.2283
22375W        W38449  14.847   7.818  15.509 -0.4931 -0.0273  0.2485
22376W        W38450   2.665   4.312  12.891  0.2277  0.2224 -0.4029
22377W        W38451   9.570  15.200  13.100  0.5187  0.1219 -0.0253
22378W        W38452   3.223   4.113  12.781  0.1250 -0.2321 -0.0044
22379W        W38453   8.600   2.920  12.657  0.0250  0.4850  0.0623
22380W        W38454   4.646  15.489  14.365  0.5312  0.2708 -0.1040
22381W        W38455  14.845  14.200  14.984  0.1858  0.2268  0.0300
22382W        W38456  11.052  13.848  12.545  0.0815  0.1685  0.1212
22383W        W38457   4.694   7.536   3.620  0.2512 -0.0434  0.0555
22384W        W38458  17.461  10.142   4.036  0.0977  0.0668 -0.0354
22385W        W38459   2.199   6.200   3.815  0.0286 -0.1206  0.0859
22386W        W38460  10.239   6.959   3.463  0.0700  0.0119  0.1047
22387W        W38461   8.232  16.741  12.306 -0.2818 -0.0246 -0.2580
22388W        W38462  12.565   9.654   1.840 -0.2901  0.0017  0.1916
22389W        W38463  16.537   4.946  14.425 -0.1689  0.0227  0.2643
22390W        W38464  17.937  10.438  15.150  0.0039  0.2101  0.1266
22391W        W38465   5.894  14.612   0.551  0.0563 -0.0003 -0.1354
22392W        W38466  12.856  13.432   3.586 -0.1432 -0.0614 -0.0227
22393W        W38467  11.987   5.107   0.825  0.3004  0.1134  0.1023
22394W        W38468   0.119  14.528  11.217  0.0832  0.0175 -0.1524
22395W        W38469  12.833   8.494   0.826 -0.2335 -0.2618  0.0990
22396W        W38470   1.258   4.625  11.890 -0.2886  0.0032 -0.0067
22397W        W38471  12.609  13.689   6.518 -0.1382 -0.1434  0.2153
22398W        W38472  10.849  12.435   0.333  0.1894 -0.2249  0.0186
22399W        W38473  12.180   4.006   1.395 -0.1050  0.2515  0.1305
22400W        W38474  15.782  14.618  13.476  0.1329  0.0523 -0.0591
22401W        W38475   6.056  16.889   5.434 -0.0027  0.0239  0.3167
22402W        W38476   9.162   8.434  13.529 -0.1056 -0.0987 -0.0020
22403W        W38477   9.186   7.450  11.855 -0.0826  0.0466 -0.0281
22404W        W38478  10.173   9.838   0.547 -0.0392  0.1992 -0.3333
22405W        W38479  14.232   6.461   5.883  0.2729  0.3174 -0.2776
22406W        W38480  13.268  11.349   0.544 -0.0938  0.1872  0.2000
22407W        W38481  11.395  13.015  14.873 -0.3126  0.1106  0.1204
22408W        W38482  15.005  14.981  15.465 -0.1059  0.2467  0.2271
22409W        W38483   9.576   0.511  12.926 -0.0452 -0.1276  0.2945
22410W        W38484  14.097   2.364  12.432  0.1186  0.0405 -0.2328
22411W        W38485  17.856   2.642   3.163  0.2536 -0.0220  0.3423
22412W        W38486   2.711  16.469   4.704  0.0214 -0.1320  0.2079
22413W        W38487   9.714   2.304   1.148 -0.2024  0.1808 -0.0309
22414W        W38488  14.675   2.584  16.267 -0.0466  0.0336  0.0445
22415W        W38489   5.151   6.722  12.479  0.2819 -0.0681 -0.0728
22416W        W38490  13.733   0.848   3.716 -0.1395 -0.0577 -0.0136
22417W        W38491  16.655  12.424  15.275  0.0466 -0.2252  0.1262
22418W        W38492  13.430   9.800  12.870 -0.1733  0.0107  0.1105
22419W        W38493   8.362   0.688  14.358 -0.0088 -0.0577 -0.0734
22420W        W38494   8.734  12.132   3.277 -0.0871  0.1228 -0.2724
22421W        W38495  13.862   3.618  14.099  0.1751 -0.1413 -0.2556
22422W        W38496   4.686  14.749   4.383 -0.1489  0.1023 -0.2752
22423W        W38497  17.078  11.779  14.080 -0.0725  0.1480  0.1466
22424W        W38498   8.245   4.542   0.015  0.0002  0.0799 -0.2524
22425W        W38499  13.298   3.666   5.408  0.1906  0.2035 -0.0229
22426W        W38500   4.163   3.139  15.017  0.1103 -0.2292  0.0512
22427W        W38501   3.002   8.604   5.174 -0.1779  0.4259 -0.6481
22428W        W38502  14.300   9.679  13.777 -0.2411  0.0572  0.0537
22429W        W38503   3.937   2.255  11.816 -0.0630 -0.1342  0.0072
22430W        W38504   2.733  15.555   3.701  0.4054  0.1417  0.1326
22431W        W38505   9.372   7.690  15.005 -0.1531  0.3170  0.0513
22432W        W38506  16.656   0.037  12.903  0.1995  0.1490 -0.1197
22433W        W38507   6.751   4.310   1.370 -0.0722  0.3148  0.0899
22434W        W38508   7.132   8.201   0.233 -0.2002 -0.0027  0.2533
22435W        W38509   8.598  17.313  15.000 -0.2267  0.3637 -0.0954
22436W        W38510  14.973   1.559  14.136  0.2434 -0.1351 -0.1215
22437W        W38511   5.395   1.279   5.756  0.0507  0.2513  0.1132
22438W        W38512  17.410   9.607   3.322  0.3350 -0.1273  0.0331
22439W        W38513   7.736   2.828   2.477 -0.1009 -0.1483  0.0175
22440W        W38514   3.792  13.849   4.216  0.0778  0.1148 -0.0458
22441W        W38515   9.352  11.476  12.958  0.0272 -0.5329  0.3793
22442W        W38516   0.588   9.239   1.329  0.0645 -0.0750 -0.3143
22443W        W38517  15.628   8.079  11.791 -0.0597 -0.0808 -0.0101
22444W        W38518  14.437  11.354  14.329 -0.2522  0.0698  0.3922
22445W        W38519  10.377   5.634  11.569 -0.1595  0.1790  0.0875
22446W        W38520  12.451  13.760   1.454  0.2910  0.3068 -0.2498
22447W        W38521  15.788   2.450   6.045  0.1103  0.2391  0.0963
22448W        W38522   7.620   6.426   4.008  0.1069 -0.2326 -0.2198
22449W        W38523  13.831  11.990  11.509 -0.1406  0.0904 -0.2352
22450W        W38524   1.690   3.303   3.862  0.1910  0.0321  0.2906
22451W        W38525   9.700   1.048   5.472  0.1530  0.3149 -0.1726
22452W        W38526  16.994  14.754  11.710 -0.1143 -0.0937  0.0761
22453W        W38527  12.112  16.518  12.791 -0.1946 -0.1489 -0.1115
22454W        W38528   2.984  15.083   5.628  0.2523  0.2805  0.1788
22455W        W38529  12.462   0.992   3.299 -0.1298 -0.0957  0.3664
22456W        W38530   1.094   8.674  15.043  0.1994  0.2474 -0.0237
22457W        W38531   2.631   0.918   4.546  0.0111  0.0818 -0.0814
22458W        W38532   2.884  10.157  13.870  0.1783  0.0928 -0.1584
22459W        W38533  17.968  11.125  14.552  0.0587 -0.1274 -0.3403
22460W        W38534   1.823   4.258   0.120  0.2976 -0.0024  0.3288
22461W        W38535   9.025  14.234   0.341 -0.0006 -0.0481 -0.2572
22462W        W38536   9.992   9.972  13.504 -0.0994  0.2407  0.1170
22463W        W38537   9.980  14.523   0.007  0.1045  0.0481  0.0102
22464W        W38538   9.174   7.311   3.556  0.2332 -0.3114 -0.1151
22465W        W38539  13.498  14.323  16.194  0.1886  0.1831  0.0359
22466W        W38540   3.103  12.521  11.187  0.0518 -0.0336 -0.0248
22467W        W38541   6.725   5.884   2.120 -0.0891  0.2805 -0.1907
22468W        W38542   8.785  12.330   1.728 -0.1287  0.0039  0.0539
22469W        W38543   4.257  17.949   0.794 -0.2699  0.3022  0.1412
22470W        W38544  14.046  10.020  16.025 -0.0884 -0.0287  0.2871
22471W        W38545   5.951  10.609   2.757 -0.3062  0.1679 -0.1070
22472W        W38546   2.435  11.111  11.264  0.2272  0.0704 -0.3695
22473W        W38547  14.045   5.199   3.556 -0.0170  0.1592 -0.1549
22474W        W38548   6.099   1.078   3.083  0.0395 -0.1500  0.1323
22475W        W38549   8.934  15.610  13.484 -0.0749 -0.2826 -0.0966
22476W        W38550   0.325  14.878  10.090  0.0301 -0.1128 -0.0881
22477W        W38551  11.566  14.624  14.688  0.0875  0.0017  0.0942
22478W        W38552  16.285   6.203   2.146  0.0300 -0.2917 -0.4750
22479W        W38553  14.654   9.374  14.795  0.0381 -0.2543  0.1486
22480W        W38554  18.060   0.598  16.485 -0.1498 -0.0619 -0.2911
22481W        W38555   6.564   4.077  13.367 -0.0061  0.1314  0.0996
22482W        W38556   2.365   3.799   4.550 -0.4759  0.1481 -0.0977
22483W        W38557   6.521  14.774  13.962 -0.1676  0.0334  0.0433
22484W        W38558  15.932  11.346   2.344 -0.0557 -0.1743 -0.2135
22485W        W38559  17.247   0.712   6.757  0.1259 -0.2689  0.1500
22486W        W38560   2.791   3.758  11.653  0.1044 -0.2650 -0.0459
22487W        W38561   1.823  11.608   3.668 -0.1123  0.3456  0.0365
22488W        W38562   6.711   7.248  13.846 -0.0362 -0.2427 -0.2222
22489W        W38563   0.780   6.437  16.028  0.0183  0.1115 -0.0084
22490W        W38564   1.007  12.022  13.449 -0.3076  0.4246  0.3207
22491W        W38565   2.012   0.964   0.729 -0.0319  0.1310 -0.0210
22492W        W38566   4.492  12.875  13.294  0.1173  0.0133 -0.2039
22493W        W38567   6.256  10.068   3.979  0.3113 -0.0111  0.4132
22494W        W38568  15.498  14.380  12.318 -0.0260 -0.0002 -0.0356
22495W        W38569   1.141   3.383   1.010 -0.3172 -0.0195  0.0307
22496W        W38570   9.670   2.255   4.434  0.2067 -0.0411 -0.1479
22497W        W38571   6.422  13.416  11.725 -0.1053  0.0829  0.3102
22498W        W38572   1.625  14.583  12.742  0.0291 -0.3451  0.3271
22499W        W38573  17.651  13.324  14.430 -0.2174  0.0507  0.1426
22500W        W38574   1.131   0.002   2.606  0.0194  0.1657 -0.1361
22501W        W38575  12.896  14.413   1.217 -0.0112 -0.0140 -0.0513
22502W        W38576   7.282   3.658   2.083 -0.3223  0.2624 -0.1592
22503W        W38577  12.569   7.898   2.555  0.0073  0.0099  0.0515
22504W        W38578  14.980   9.309   3.817  0.1467 -0.2066  0.0046
22505W        W38579  14.694   7.379   0.829  0.0858 -0.3803  0.1050
22506W        W38580  11.901  13.875  15.973  0.1029  0.3170 -0.2083
22507W        W38581  15.865  10.281   1.572 -0.1006  0.2280  0.1441
22508W        W38582   1.614   2.676  12.519 -0.2158 -0.1864 -0.3010
22509W        W38583  15.339  15.620   2.208  0.1149 -0.1364 -0.1080
22510W        W38584  11.784   0.039  13.076  0.0765  0.0031 -0.0210
22511W        W38585   1.110  11.462  14.749  0.0539 -0.1206  0.1353
22512W        W38586   9.289  12.329   0.281 -0.2326 -0.0379  0.2227
22513W        W38587   5.032   2.084   0.209 -0.1228 -0.1073 -0.0669
22514W        W38588  13.589  15.032   0.520  0.1587 -0.1995  0.1925
22515W        W38589  15.496  17.171  15.218  0.1304 -0.0273  0.0256
22516W        W38590   3.658  17.911  11.565  0.2838 -0.2222 -0.2358
22517W        W38591  16.149  14.967  14.342 -0.1779  0.5613 -0.0813
22518W        W38592   6.465  16.841   1.341 -0.1648  0.2160  0.0486
22519W        W38593   7.471  16.713   0.246 -0.0405  0.2481  0.3351
22520W        W38594   9.543   2.312  15.252  0.2409 -0.0020  0.0246
22521W        W38595   8.622   2.955   3.297  0.0227  0.0547 -0.1300
22522W        W38596   3.379   2.330  11.722  0.4051 -0.2270 -0.0296
22523W        W38597   8.543  10.955  13.978  0.0945 -0.0256 -0.0682
22524W        W38598   7.429   5.423  13.587  0.3136  0.1427 -0.1709
22525W        W38599   8.766  11.633   3.463  0.2928 -0.0661  0.1734
22526W        W38600   4.809  17.947   2.551 -0.0595 -0.0809  0.0568
22527W        W38601  16.295  15.587  11.250  0.1752 -0.0680  0.1144
22528W        W38602   8.760  17.741  13.954 -0.0976 -0.4703  0.2031
22529W        W38603   3.825   4.446   2.719 -0.2232  0.0465  0.0406
22530W        W38604  13.848   8.054   4.392  0.2777 -0.1681 -0.2269
22531W        W38605   4.623   4.844  15.233  0.1307  0.0455  0.4266
22532W        W38606   0.453  13.116  11.631  0.1031  0.1412  0.1517
22533W        W38607   6.945   2.174  15.222  0.1453 -0.0411  0.0139
22534W        W38608  10.200   9.826  11.880 -0.1964  0.1808 -0.0588
22535W        W38609  11.927   5.261  12.187  0.0056 -0.0791 -0.2822
22536W        W38610   4.999   1.805   0.802  0.3467  0.1888 -0.2495
22537W        W38611  14.731   5.550  15.771  0.3665 -0.2303 -0.1261
22538W        W38612  14.026   8.778   5.096 -0.1122 -0.0782 -0.0133
22539W        W38613   9.036  14.876  16.223 -0.0015  0.0347  0.1612
22540W        W38614   9.875  15.592  16.460 -0.0736  0.0528  0.1558
22541W        W38615  16.717   1.623   5.519 -0.1868 -0.2033  0.0331
22542W        W38616  16.868   4.068   2.198  0.0697  0.1869  0.2120
22543W        W38617  14.283   4.389  12.767  0.0569 -0.2571  0.0641
22544W        W38618  11.124   7.917  12.784 -0.2286  0.2441 -0.1659
22545W        W38619   8.715   0.759   0.240  0.0759 -0.1759 -0.0710
22546W        W38620   5.327   3.156   4.109 -0.1097  0.1525 -0.0437
22547W        W38621   0.203  10.466  12.775 -0.2345 -0.1223  0.1190
22548W        W38622  12.239  10.879   5.968  0.2306  0.0968 -0.0535
22549W        W38623   0.664  14.337  12.379 -0.2614  0.1049 -0.1442
22550W        W38624  13.096   0.706  13.556  0.3053 -0.1012 -0.1585
22551W        W38625   7.945   9.656  11.627  0.1815  0.0090  0.2964
22552W        W38626   4.618   0.579   0.651 -0.0447  0.1487 -0.2246
22553W        W38627   3.698  14.675  16.294 -0.0615  0.0180  0.0247
22554W        W38628  13.475   6.889   2.043 -0.1193  0.2042 -0.0556
22555W        W38629   3.097  14.688  15.841  0.1467 -0.3231 -0.0325
22556W        W38630   2.321   5.941  14.082  0.0883  0.1257 -0.2559
22557W        W38631  15.856  16.140  15.273 -0.1856  0.0041  0.3663
22558W        W38632  15.537   8.159  12.513  0.2833  0.0783  0.0146
22559W        W38633   1.174   0.632  12.488 -0.0589  0.0403 -0.1725
22560W        W38634  16.840   1.551  16.192 -0.1172 -0.2175 -0.1240
22561W        W38635   1.245   0.981  11.450 -0.0366  0.1182  0.1036
22562W        W38636   7.902  14.362   3.001 -0.0625  0.0824  0.1472
22563W        W38637   8.851   3.915  15.787 -0.3047 -0.0123  0.0436
22564W        W38638  12.515   4.288   4.763 -0.0058  0.3219  0.0269
22565W        W38639   7.911   5.664   3.759  0.0196 -0.1176 -0.2765
22566W        W38640   8.511  10.746   5.647 -0.1304 -0.0421 -0.2402
22567W        W38641   4.147  14.079   2.775  0.1107  0.3925 -0.0874
22568W        W38642  10.296  15.514  12.414  0.2842 -0.0718  0.0293
22569W        W38643   7.841   4.521   4.527 -0.0087  0.0190 -0.5754
22570W        W38644   9.387   9.792  12.700  0.1184  0.1955 -0.0851
22571W        W38645   7.752  13.751   3.746 -0.0511  0.1786  0.0124
22572W        W38646  18.137   5.344  11.489  0.0309 -0.0799  0.1506
22573W        W38647   9.921  14.368  14.543  0.1732  0.0192 -0.1561
22574W        W38648  16.574   8.813   4.868 -0.0924  0.0102  0.2390
22575W        W38649  17.652   3.847   0.718  0.0301  0.0219 -0.2128
22576W        W38650  14.520  13.056   2.975  0.1826  0.3899 -0.1315
22577W        W38651  14.114  13.242   5.669  0.0234  0.1994  0.0027
22578W        W38652   0.056  10.889  15.110 -0.1887 -0.0809 -0.1851
22579W        W38653   4.333   8.947   1.610 -0.0557 -0.1038 -0.1595
22580W        W38654  12.128  12.176   1.512  0.0296 -0.1521  0.3112
22581W        W38655  13.090  14.712  15.208  0.0718  0.0661 -0.2625
22582W        W38656  14.898  16.387  12.200 -0.0263  0.1993  0.0977
22583W        W38657   5.963   7.586   3.820  0.3297 -0.1696 -0.4053
22584W        W38658   5.345  12.787   1.980 -0.1772 -0.2953 -0.0004
22585W        W38659   0.788   9.745   5.202  0.0242  0.0298  0.0025
22586W        W38660   4.660  15.910  12.866 -0.1522  0.0636 -0.0864
22587W        W38661   5.076  17.494   2.654  0.4676 -0.1580  0.1018
22588W        W38662   0.197   9.630  11.190  0.3478 -0.1999  0.0361
22589W        W38663  12.331  16.120  12.503  0.1168 -0.0253  0.2782
22590W        W38664   6.985   8.663  14.410  0.0530 -0.4272 -0.3313
22591W        W38665  17.078  14.482   5.461 -0.1663 -0.0025  0.0759
22592W        W38666   0.825   6.412   2.278  0.1565 -0.2160 -0.4833
22593W        W38667   9.891  12.214   3.036  0.1541  0.2870  0.0726
22594W        W38668   5.319  17.664  13.433 -0.1383 -0.2363  0.2021
22595W        W38669   4.920  10.967  13.681 -0.0626  0.0215 -0.3448
22596W        W38670  16.624   9.076   0.137 -0.1692 -0.5106  0.0162
22597W        W38671  12.657  14.256   2.659  0.1039  0.1183 -0.0449
22598W        W38672   0.177   0.087   0.688  0.1413  0.2118  0.1571
22599W        W38673  12.431   9.823  14.348  0.2399 -0.2228  0.1006
22600W        W38674  17.211   1.188  15.425  0.2564 -0.1688 -0.0612
22601W        W38675  17.313   9.451   0.415 -0.1115 -0.2201 -0.2421
22602W        W38676  10.274  17.767   0.306  0.0583  0.0663  0.1375
22603W        W38677  14.552  17.239   2.449  0.1361  0.0336 -0.0115
22604W        W38678  10.031   5.560   4.411  0.1252 -0.0656 -0.1865
22605W        W38679  17.838  14.794  15.727 -0.2803 -0.1034 -0.2746
22606W        W38680   0.548   3.620   1.371 -0.3113 -0.1849 -0.0491
22607W        W38681   1.309   5.021  16.463  0.1841  0.0734 -0.0383
22608W        W38682  16.269  10.436  13.668 -0.3959  0.0410 -0.1861
22609W        W38683   7.713   8.116  11.336 -0.0047 -0.0260  0.2480
22610W        W38684  13.260  11.820   2.379 -0.0670  0.1366  0.3648
22611W        W38685  10.372   0.166   3.674  0.0732  0.3500  0.1646
22612W        W38686  15.015  13.623  14.549 -0.0945  0.1857  0.0724
22613W        W38687   9.585   8.631  15.681  0.0285 -0.3060  0.1579
22614W        W38688   0.634   7.340  15.983  0.0267  0.0064 -0.3674
22615W        W38689   1.966  15.877   3.082 -0.3134 -0.0397 -0.0459
22616W        W38690   2.476   2.457   6.246  0.0492  0.1234  0.1788
22617W        W38691   7.419   1.646  12.286 -0.0729 -0.0664 -0.0840
22618W        W38692   1.103   4.442   4.067  0.0546 -0.1293 -0.0830
22619W        W38693   6.035   3.194   4.813 -0.3897  0.2397 -0.2788
22620W        W38694  15.746  16.824   1.126  0.1150  0.2097  0.0707
22621W        W38695   0.274   4.530   0.114 -0.0554  0.2245  0.2917
22622W        W38696   5.771   1.578  13.737 -0.3810 -0.1466 -0.1008
22623W        W38697  17.470  12.618   0.621 -0.1514  0.0492  0.0272
22624W        W38698   6.646   3.572   0.222 -0.1537  0.0724  0.4924
22625W        W38699   7.818   1.715   0.181  0.0101  0.0670 -0.0796
22626W        W38700   5.232  17.697   2.260 -0.0694  0.2713  0.0899
22627W        W38701   1.992   6.753  14.051  0.0847 -0.0498  0.0294
22628W        W38702  15.350   8.934  15.977 -0.1378 -0.2368 -0.1778
22629W        W38703  14.625   7.104  16.355  0.0147 -0.4567  0.0369
22630W        W38704  11.160   3.550   2.124 -0.0061 -0.0155 -0.2108
22631W        W38705   8.883  11.642  12.805  0.1303 -0.1334  0.1271
22632W        W38706   5.757   7.248   4.745  0.1501 -0.1233 -0.2767
22633W        W38707  16.055   0.174  14.630  0.3909 -0.1879 -0.1324
22634W        W38708  10.954  16.697   4.936 -0.0402 -0.1374  0.0651
22635W        W38709   0.340   6.303  15.107 -0.1431 -0.0305 -0.1049
22636W        W38710   2.456  11.827  14.894  0.0109  0.1783 -0.4402
22637W        W38711   9.906  11.264  13.617 -0.0534 -0.0796 -0.4543
22638W        W38712  16.016   0.808   0.274  0.3259  0.1087  0.2421
22639W        W38713  10.854   2.904  12.310  0.0666  0.4934  0.0640
22640W        W38714   0.522   6.089   0.204  0.1192 -0.1336  0.0291
22641W        W38715  11.480   2.688  14.844  0.1320 -0.0833 -0.1350
22642W        W38716   0.011   5.375   3.484 -0.4213  0.0673  0.4007
22643W        W38717  15.392   2.730  15.832  0.2445 -0.2387 -0.2417
22644W        W38718  15.285  11.723  15.992  0.0113 -0.2813  0.0022
22645W        W38719  12.871  12.186  13.553  0.0013  0.1921 -0.1768
22646W        W38720  10.159   5.484  14.225  0.0934 -0.3484 -0.1231
22647W        W38721  16.902  18.234  11.564 -0.0120  0.2512 -0.0508
22648W        W38722  14.858   5.009   0.080 -0.2053  0.0405  0.0971
22649W        W38723  15.368   0.268   1.478  0.2275 -0.0191 -0.0419
22650W        W38724   1.783  17.022   0.982  0.0812 -0.0752 -0.1224
22651W        W38725   4.037   0.283  15.238 -0.1485 -0.1289 -0.1625
22652W        W38726  11.545   3.829  14.028  0.0277 -0.2187 -0.0114
22653W        W38727   5.485  16.839  13.564 -0.0500 -0.0323  0.3019
22654W        W38728  13.197   1.170   5.841 -0.0206  0.1828 -0.0899
22655W        W38729   2.266  12.297  15.288  0.0362 -0.4064 -0.2379
22656W        W38730  15.607   7.375   0.773  0.0967 -0.1192 -0.2744
22657W        W38731  12.319  14.430  13.994  0.0557  0.2078 -0.3534
22658W        W38732   1.037   0.542  14.030 -0.2063 -0.0507 -0.3588
22659W        W38733  16.165  17.771   5.251 -0.3995  0.0481  0.0236
22660W        W38734  18.057   6.407   1.536 -0.0938  0.1946  0.0030
22661W        W38735   3.991   0.134   4.450  0.2010  0.0913  0.2104
22662W        W38736   5.349   0.351  11.413  0.0206  0.2525 -0.0457
22663W        W38737   2.814   0.478  13.776 -0.1324  0.1864 -0.0580
22664W        W38738  13.222   5.837  16.354  0.4071 -0.1620  0.0257
22665W        W38739   3.383   0.280  12.192 -0.1245 -0.3681 -0.1221
22666W        W38740   9.542   1.521   0.910 -0.0018 -0.1788 -0.2954
22667W        W38741   1.556  14.827   4.318  0.1197  0.2546 -0.3888
22668W        W38742  15.709  12.292   0.747  0.0104  0.1996  0.3075
22669W        W38743   2.230  15.656   3.513 -0.1442 -0.0472  0.0729
22670W        W38744  12.594  10.353   2.327 -0.0681 -0.0556  0.1626
22671W        W38745   6.522  13.860   0.696  0.0103  0.1076  0.0039
22672W        W38746   2.049  16.253  16.165 -0.1230 -0.2576 -0.1523
22673W        W38747   2.329   1.127  12.288  0.1669  0.1701 -0.1594
22674W        W38748  14.118   9.511   3.383 -0.0125  0.1703 -0.0475
22675W        W38749   5.246   3.182  16.020  0.1341 -0.1673 -0.2138
22676W        W38750  16.753  13.402  14.295 -0.2365  0.0354 -0.1227
22677W        W38751   8.961   0.678   4.964 -0.0109  0.0129  0.2061
22678W        W38752  11.586  11.799  12.424  0.2077 -0.1329  0.1296
22679W        W38753  11.940  16.436   4.692 -0.0075  0.0781 -0.2976
22680W        W38754   4.793   5.228  16.394 -0.1276  0.0819  0.3244
22681W        W38755  10.141   0.151   4.146 -0.1697 -0.1520  0.1137
22682W        W38756  10.773   4.694  11.742 -0.1805 -0.2308 -0.0251
22683W        W38757  11.818  12.162  13.549 -0.0974 -0.0006  0.1572
22684W        W38758   7.770  16.570  14.885 -0.1474  0.1087 -0.3307
22685W        W38759   5.310  13.219   5.835  0.2738 -0.1409 -0.1396
22686W        W38760   6.107  13.623   5.736 -0.0702 -0.0162  0.2137
22687W        W38761   6.932   7.619  11.796 -0.0839  0.1671 -0.1020
22688W        W38762   1.534   7.846   4.383  0.0428  0.5562  0.0148
22689W        W38763   8.815  14.507   0.015 -0.1374  0.2070 -0.1353
22690W        W38764  12.948   0.503   1.981  0.0011 -0.1462  0.0525
22691W        W38765  15.680   2.955   6.091 -0.1650 -0.3350  0.2230
22692W        W38766   8.678   5.822   1.950  0.4310 -0.1288  0.1151
22693W        W38767   4.391  10.504  10.599  0.0016 -0.0560 -0.1379
22694W        W38768   0.869   6.929  15.877  0.2468 -0.0141  0.1137
22695W        W38769   5.274   4.985   3.961  0.1770  0.2093  0.1876
22696W        W38770  12.199   4.208   2.189  0.1469 -0.2018 -0.0638
22697W        W38771  14.807  14.973   1.468 -0.1930 -0.0491 -0.1372
22698W        W38772  14.675   0.661  11.912 -0.1990 -0.2204  0.1377
22699W        W38773   6.931   5.404  13.789 -0.1846 -0.0720 -0.4059
22700W        W38774   9.402  12.639   5.574  0.1185  0.0973  0.3120
22701W        W38775   1.864   7.624   3.989  0.1958 -0.1828 -0.3768
22702W        W38776   8.485   6.811   4.166  0.0811  0.1575 -0.0391
22703W        W38777  12.549   6.455   0.723  0.0610  0.0314 -0.0125
22704W        W38778   2.058   4.197  11.181  0.0509 -0.0563 -0.2534
22705W        W38779  13.749  15.724   1.779  0.0910  0.0703  0.2092
22706W        W38780   2.851   1.221   4.267  0.2730 -0.0009 -0.1316
22707W        W38781   6.343  12.442  12.742  0.2243  0.2484 -0.1513
22708W        W38782   2.020  12.909   1.390 -0.0539 -0.1462 -0.2795
22709W        W38783   7.157   5.554   3.700  0.1395  0.1388  0.0194
22710W        W38784  10.319   0.396  11.956  0.3592 -0.2279 -0.1940
22711W        W38785  11.914   1.488  12.731 -0.1305  0.1289 -0.2196
22712W        W38786   1.388   5.005   0.587 -0.0333 -0.0505  0.2884
22713W        W38787  12.824  12.489  11.910 -0.1650 -0.0346 -0.4951
22714W        W38788  10.423   2.117   3.330  0.2391  0.0557  0.0436
22715W        W38789  10.615  16.611  14.450 -0.2892 -0.1930  0.1008
22716W        W38790  10.586  14.554  15.749  0.1048  0.1089  0.4098
22717W        W38791  16.552   4.904  13.875  0.0145 -0.2016 -0.0792
22718W        W38792  16.909   1.363   2.340 -0.3855 -0.3402  0.0779
22719W        W38793  10.263   3.964  13.544 -0.0506 -0.1308 -0.3318
22720W        W38794  10.829  10.990   1.809 -0.1508  0.0033  0.2669
22721W        W38795  15.079  10.571   4.223 -0.2362  0.0910 -0.0280
22722W        W38796   0.943   6.735  16.358 -0.1111 -0.0157 -0.5960
22723W        W38797  11.523  10.920  11.540 -0.0876  0.1657  0.2105
22724W        W38798   0.093  16.070  16.295  0.0857 -0.0975 -0.0991
22725W        W38799  11.277  10.692  16.401  0.0448 -0.0927  0.1303
22726W        W38800  10.441  12.898   1.402 -0.1477  0.0559  0.0134
22727W        W38801  17.585   0.149   1.904 -0.1142  0.3290  0.1242
22728W        W38802   4.676  17.078   5.799 -0.0315  0.0795 -0.2883
22729W        W38803   4.043   8.556   1.324  0.2356 -0.1275 -0.0319
22730W        W38804   8.687   0.401  13.807  0.0112  0.0583  0.0349
22731W        W38805  13.158   9.901  16.342  0.1118 -0.2052 -0.0673
22732W        W38806  10.758  17.223   3.321  0.1021 -0.1638  0.0386
22733W        W38807  16.910   8.953  15.411 -0.2105 -0.2003 -0.2094
22734W        W38808  16.872  12.429  14.667 -0.0203 -0.0403  0.3718
22735W        W38809   7.035   2.030   2.055 -0.0229  0.1900 -0.2503
22736W        W38810   4.464   9.191   4.523  0.2568 -0.0415 -0.0981
22737W        W38811   7.065   8.272  16.168  0.0715 -0.3895  0.2456
22738W        W38812  17.495  17.521   5.264  0.3024  0.1931  0.1416
22739W        W38813  11.905  14.349  15.816 -0.2538  0.1764  0.0009
22740W        W38814  14.427  17.394  13.498 -0.0451  0.0514  0.1978
22741W        W38815  14.748  14.605   1.777  0.0085 -0.1538 -0.0201
22742W        W38816   6.258   1.929   1.073 -0.1780 -0.3231 -0.1152
22743W        W38817   4.504  13.818  13.524 -0.1684  0.1989  0.1469
22744W        W38818   2.720  15.680   0.881 -0.0279 -0.1175 -0.0300
22745W        W38819   3.738   3.315  15.487  0.0957  0.3041 -0.0712
22746W        W38820  14.502  10.925  16.485 -0.2114  0.0226 -0.0899
22747W        W38821  15.385  16.566   3.524 -0.1354 -0.1719  0.0368
22748W        W38822   8.971   2.408   1.880 -0.0381 -0.1190  0.1975
22749W        W38823   4.621   2.237  13.286  0.1267 -0.0840 -0.1713
22750W        W38824   3.335  11.139  14.329  0.0155 -0.0014 -0.1027
22751W        W38825  15.565   2.092   0.357  0.0659  0.0256 -0.2331
22752W        W38826  14.085   2.841  12.190  0.3134  0.0822 -0.1239
22753W        W38827  14.988  10.348   3.813 -0.1104  0.0408 -0.1122
22754W        W38828  16.119   8.578   5.536  0.1048  0.0982 -0.0449
22755W        W38829   0.257  17.808  12.142 -0.0525  0.1075 -0.1447
22756W        W38830   2.682   4.574  15.283  0.0366  0.3710  0.0803
22757W        W38831  14.593   6.280   2.851  0.1859  0.0277 -0.1059
22758W        W38832  14.032  14.060  13.647  0.3218  0.1541  0.0345
22759W        W38833  16.075   6.724   0.503  0.2468  0.1276 -0.1735
22760W        W38834  17.731  15.015   3.487 -0.1384  0.1232  0.1197
22761W        W38835   6.111   4.843   2.497  0.0973 -0.1914 -0.1790
22762W        W38836   6.728  18.045   0.689 -0.1202  0.0251  0.0793
22763W        W38837  17.546   7.357   5.485  0.0876  0.0414 -0.0099
22764W        W38838   3.129   7.889  10.888 -0.0359 -0.0537  0.1291
22765W        W38839  10.229   5.158  13.301 -0.2821  0.2829 -0.5037
22766W        W38840   5.990  16.612  12.052 -0.1325  0.1327  0.0549
22767W        W38841  11.681   4.456   0.031 -0.0436 -0.0002 -0.1613
22768W        W38842  10.096   9.623   5.356  0.2309 -0.0388 -0.0393
22769W        W38843   0.702   2.058  15.259 -0.2455  0.2789  0.0056
22770W        W38844  14.439   8.469  12.410  0.1155  0.1653  0.0480
22771W        W38845  11.542   5.002  12.523  0.2055 -0.0824 -0.0528
22772W        W38846  13.790   5.708   1.872  0.1275  0.0015 -0.1011
22773W        W38847   4.219   8.979  11.263 -0.1967 -0.1383 -0.0022
22774W        W38848  15.112  13.720  15.371 -0.2815 -0.1500 -0.2515
22775W        W38849  11.485  10.656  12.125 -0.0028  0.1559 -0.0768
22776W        W38850  11.361   6.496   3.120  0.1355  0.0642  0.3622
22777W        W38851   9.912  11.624  11.628  0.1213  0.0629  0.1572
22778W        W38852   7.930   7.336   1.925 -0.0621 -0.2383 -0.3059
22779W        W38853  16.772   5.230   3.842 -0.1151  0.3633 -0.1438
22780W        W38854   6.597   0.192   0.196 -0.2089  0.3022 -0.0410
22781W        W38855  17.544  11.253  12.822  0.1765 -0.2508 -0.0995
22782W        W38856   9.720  10.538  13.164 -0.1741 -0.0847 -0.3326
22783W        W38857   9.381   5.763  12.613  0.0628  0.0462  0.1121
22784W        W38858  13.899   3.104   1.569 -0.2967  0.0955 -0.1263
22785W        W38859   1.924   9.822  11.894 -0.0749 -0.1843 -0.1875
22786W        W38860  12.510  12.267  13.156  0.2001  0.0781 -0.0491
22787W        W38861   6.157   2.160   5.001  0.0784 -0.1972  0.0484
22788W        W38862  13.688   8.056  11.948 -0.2149  0.0883  0.1801
22789W        W38863  16.965   9.238  14.896 -0.3476  0.3097  0.3897
22790W        W38864  13.661   9.644  13.398  0.1885  0.1516 -0.2080
22791W        W38865   7.608  14.479  14.722  0.1546  0.0488  0.5132
22792W        W38866  17.406   2.636   2.145 -0.1016  0.1365 -0.0318
22793W        W38867  15.186   3.943  14.210 -0.1161  0.0527 -0.0815
22794W        W38868   3.955   3.067  16.294 -0.2579 -0.1292 -0.0647
22795W        W38869  12.491  11.362   1.212  0.1442 -0.2576 -0.1195
22796W        W38870   4.757   8.131  12.299  0.0173  0.1366 -0.0179
22797W        W38871   2.847   3.289   4.743  0.1032 -0.1063 -0.1939
22798W        W38872   3.004   5.892   2.048  0.0837  0.1265  0.0405
22799W        W38873  10.233   7.571   2.679  0.0512 -0.1107 -0.0403
22800W        W38874   5.244   3.305   1.845  0.1418  0.3011 -0.0475
22801W        W38875   0.229   0.834  11.066 -0.0221 -0.1163  0.3221
22802W        W38876  16.637   0.087   2.916  0.2002  0.0585  0.1056
22803W        W38877   6.874  11.463   0.983  0.1919 -0.1457 -0.0017
22804W        W38878  10.547   8.702   1.694  0.0658  0.4554  0.3192
22805W        W38879   2.947   2.569   4.312  0.1220  0.1576  0.0343
22806W        W38880  15.850   9.651  16.387  0.0171  0.0432 -0.0282
22807W        W38881   7.191  14.259  16.244  0.1019  0.0313  0.1838
22808W        W38882  14.064   9.986  11.911 -0.1131 -0.2885 -0.0908
22809W        W38883   5.015   2.073  14.328 -0.0726 -0.1039 -0.1199
22810W        W38884  15.568   6.155   3.866 -0.0718 -0.1727 -0.0586
22811W        W38885   4.494   8.800  15.534 -0.3371  0.1642 -0.1257
22812W        W38886   2.688   0.709   0.087  0.2745 -0.1360  0.3976
22813W        W38887  10.020   0.078  15.393  0.2114 -0.2653  0.1769
22814W        W38888   8.827  13.478   6.054 -0.1741 -0.1424  0.2013
22815W        W38889  16.835   9.795  11.888 -0.0202  0.0603  0.1467
22816W        W38890   5.936   5.926  16.425 -0.2456 -0.1925  0.1269
22817W        W38891   8.544  14.763  11.807  0.0943 -0.4017  0.1117
22818W        W38892  10.253   6.428   3.882 -0.1021  0.1759 -0.0981
22819W        W38893   0.992  11.548  11.005 -0.2037 -0.2435  0.1516
22820W        W38894   8.690   5.621  15.852  0.0309  0.2042  0.2042
22821W        W38895   8.416  17.165  14.515 -0.0042  0.0316 -0.2619
22822W        W38896   2.487   4.166  11.525  0.0434 -0.0273  0.0971
22823W        W38897  17.212   9.641  13.961 -0.1016 -0.5130 -0.2348
22824W        W38898  14.592   8.281   5.634  0.0169  0.0721 -0.0393
22825W        W38899   9.714   1.135   0.578 -0.0465  0.0391 -0.2292
22826W        W38900   9.453  16.182   5.047  0.5661 -0.0276  0.2332
22827W        W38901  12.312   4.304   0.810  0.3299  0.0962 -0.1898
22828W        W38902  13.151  12.325   3.978  0.2076 -0.0909  0.0111
22829W        W38903  11.256  15.120  15.730 -0.0496  0.1435 -0.0933
22830W        W38904  16.705  16.050  14.148 -0.0484 -0.3111  0.5179
22831W        W38905  10.397   9.264  14.054 -0.4229 -0.1702  0.0858
22832W        W38906   6.269  17.830  12.868 -0.3741 -0.2390 -0.1623
22833W        W38907  16.434   5.402   2.892  0.1835  0.3917 -0.4242
22834W        W38908   5.166   3.999  13.023 -0.0727 -0.0213  0.4051
22835W        W38909   3.908  10.997  13.773  0.0515 -0.1332 -0.0133
22836W        W38910  13.283  13.725   4.584 -0.1813  0.2024 -0.3489
22837W        W38911   3.742   9.474  12.380 -0.1938  0.0693 -0.1949
22838W        W38912   3.406  16.643   1.986  0.0482  0.2052  0.1161
22839W        W38913  17.152   5.893  12.113  0.0029  0.0917  0.0842
22840W        W38914  17.978   5.563  11.080  0.3685 -0.1776 -0.0384
22841W        W38915  10.840   0.655   4.128  0.1554 -0.1136 -0.0696
22842W        W38916  18.194   6.109   4.093  0.0601  0.1839 -0.3141
22843W        W38917  12.503   1.456   4.463  0.0891 -0.3760 -0.0081
22844W        W38918  14.759   3.273   1.273 -0.0445  0.4920 -0.3785
22845W        W38919  10.767  10.459  14.333 -0.1591 -0.3029 -0.0007
22846W        W38920   7.142  11.234  11.233  0.2476 -0.4844  0.2395
22847W        W38921  16.805   4.464   4.843 -0.0531 -0.0570 -0.1456
22848W        W38922   7.236  12.772   3.469 -0.0859  0.0304 -0.2299
22849W        W38923  17.822  12.686   0.242 -0.1657 -0.1082 -0.2267
22850W        W38924   5.213  10.142   3.768  0.2460  0.0068  0.1754
22851W        W38925  17.275   6.108   2.005 -0.1294  0.0329  0.0351
22852W        W38926   3.592  16.990  13.819 -0.1911  0.0669 -0.0984
22853W        W38927  13.483   2.467   5.933  0.2950  0.0216  0.0290
22854W        W38928  14.534   0.534  15.657 -0.3429  0.1774 -0.4571
22855W        W38929   4.186  14.259  13.660 -0.2343  0.1928  0.5810
22856W        W38930   7.277  15.943   1.637  0.1928 -0.0770 -0.3871
22857W        W38931   4.882   3.047   2.099  0.3970 -0.3151  0.4576
22858W        W38932   1.668   0.674   5.571 -0.0364  0.4523 -0.1087
22859W        W38933   7.369   7.393   2.750  0.2091 -0.0987 -0.2246
22860W        W38934  13.759   0.190  11.906 -0.0103  0.1008 -0.3871
22861W        W38935   4.561   4.317  13.893  0.0206 -0.0401  0.1095
22862W        W38936  15.889   0.863   1.470 -0.0355  0.1855  0.1152
22863W        W38937   9.910   4.662   0.964 -0.0808  0.2750  0.1063
22864W        W38938  14.199  17.064  12.666 -0.1012 -0.2397  0.0268
22865W        W38939   5.304  18.146  14.494 -0.0811 -0.0023 -0.1893
22866W        W38940  11.380  12.479  14.837  0.0220 -0.0950 -0.1307
22867W        W38941   5.762   5.435  16.268  0.0921 -0.0149 -0.1263
22868W        W38942   5.489   7.792  15.281 -0.2800 -0.2860  0.2940
22869W        W38943   9.351   2.134  15.704  0.0194 -0.1554 -0.3507
22870W        W38944   1.510   9.423   1.959  0.3825  0.0507  0.0932
22871W        W38945  14.036   6.524  14.718  0.1559  0.1918  0.0865
22872W        W38946  10.595   1.261   2.217 -0.0776 -0.1627  0.3530
22873W        W38947   4.392  17.296  11.677  0.0117 -0.2706 -0.2139
22874W        W38948   2.802   2.518  11.690 -0.2186 -0.1484 -0.2663
22875W        W38949  17.867  15.231  12.275 -0.4385  0.0804  0.0366
22876W        W38950  12.814   4.741   0.908  0.2519 -0.0640  0.2792
22877W        W38951   5.732  16.501  14.537 -0.2135 -0.1214  0.1008
22878W        W38952  14.114   9.023   1.669 -0.1764  0.2785  0.1614
22879W        W38953   7.017  17.814  10.867  0.1200 -0.0345 -0.0029
22880W        W38954   5.508   8.138  13.308 -0.0361 -0.0380 -0.4428
22881W        W38955   8.349   5.829   3.904  0.1437  0.0757 -0.0319
22882W        W38956  12.057  16.098   0.632  0.0773 -0.0594 -0.1211
22883W        W38957   6.826   6.496  13.234  0.0175  0.3714 -0.1798
22884W        W38958   0.358  14.405   3.321 -0.1941  0.0121 -0.0665
22885W        W38959   4.131  13.458   4.031 -0.1192  0.0804  0.2141
22886W        W38960  17.264   7.199   5.827  0.0705 -0.2437  0.0496
22887W        W38961  16.078  13.736  10.942  0.0287 -0.1901 -0.4249
22888W        W38962  10.502  12.523   0.989 -0.0813 -0.0948 -0.4641
22889W        W38963   3.841  10.628  15.863 -0.3033  0.0003  0.0846
22890W        W38964  12.524  17.487  13.670  0.2387 -0.0077  0.0394
22891W        W38965  14.858  10.455  13.532 -0.0223  0.0477 -0.2614
22892W        W38966   6.606   4.899   4.790  0.0522 -0.0426  0.2378
22893W        W38967  17.924   2.239   4.508  0.1562  0.3493  0.2822
22894W        W38968  16.260  12.266   2.696 -0.1450  0.2269  0.0619
22895W        W38969  12.095   2.031   0.631 -0.3516  0.0215 -0.3122
22896W        W38970   0.183   4.492  12.474  0.0055 -0.0390 -0.0314
22897W        W38971   2.351   4.550  13.250  0.1722  0.0086 -0.1724
22898W        W38972   2.867  10.344   4.048 -0.2693  0.2256  0.2503
22899W        W38973  13.251   2.078  13.225 -0.1149 -0.1780  0.1222
22900W        W38974  11.115   1.860  15.548 -0.3445  0.2617 -0.1131
22901W        W38975   9.556   8.925  14.426 -0.1908  0.2137  0.1438
22902W        W38976   4.161  11.684   4.040 -0.2270 -0.2785 -0.0891
22903W        W38977   0.477   2.145  15.811 -0.4226 -0.0078 -0.0841
22904W        W38978  17.111   2.395  11.829 -0.2245 -0.0215 -0.0831
22905W        W38979   7.495   6.950   1.878  0.4912  0.2391  0.0047
22906W        W38980  18.232   6.416  12.908 -0.0218  0.0712  0.0103
22907W        W38981  11.943  12.779  16.217  0.0204  0.2943 -0.0923
22908W        W38982   1.461   4.146   2.243  0.1341 -0.0955 -0.2434
22909W        W38983  12.200  10.545   1.267  0.1330  0.0148  0.3567
22910W        W38984   2.068   9.590   1.176  0.0398 -0.0273  0.2087
22911W        W38985   8.991   3.481  16.095 -0.0460 -0.1417 -0.1952
22912W        W38986   4.022  10.136   0.710 -0.1121 -0.0418  0.1920
22913W        W38987   5.101  12.845   3.453  0.3108  0.2428  0.4632
22914W        W38988  16.583  13.395  13.828  0.3380 -0.1630 -0.2736
22915W        W38989   1.422   5.137   4.098  0.1629  0.1118 -0.2451
22916W        W38990   0.306  17.129   1.841 -0.1519  0.0356 -0.0170
22917W        W38991  12.243  14.487   4.387  0.0909  0.0450  0.0907
22918W        W38992  15.117   1.050  11.963  0.3220  0.2449  0.0588
22919W        W38993   3.333  16.703  16.293  0.1937  0.0163 -0.0168
22920W        W38994   8.591   9.236   3.543 -0.2898  0.0043  0.1133
22921W        W38995   0.095   2.280   3.049 -0.2117  0.1179 -0.2483
22922W        W38996   5.516   8.873   4.979  0.1303  0.2781  0.1404
22923W        W38997  16.219   1.594   5.485 -0.0296 -0.1064  0.2644
22924W        W38998  16.835   9.820   0.254  0.1454  0.0935  0.3342
22925W        W38999   5.707   7.113   0.022 -0.0726  0.0716  0.1221
22926W        W39000   6.945   5.234   1.324  0.0159 -0.2635  0.3629
22927W        W39001  16.737  12.615  13.203  0.4063  0.0117 -0.0155
22928W        W39002   7.075  10.924   1.007 -0.1820  0.3295 -0.2974
22929W        W39003   5.709  13.229   3.312  0.0253 -0.0863 -0.2701
22930W        W39004   8.902   7.925   0.325 -0.0651 -0.2871 -0.1314
22931W        W39005  12.120   3.216  15.391 -0.0255 -0.3836  0.0324
22932W        W39006   0.991   4.136  11.992  0.0706 -0.1084  0.2376
22933W        W39007   7.974  16.082   0.786 -0.4358  0.4044 -0.0887
22934W        W39008   5.300   0.199   4.787 -0.0847 -0.1732  0.0935
22935W        W39009   7.898   4.566  13.078  0.0049  0.2285  0.1692
22936W        W39010  14.290  12.775  12.802  0.0526 -0.0708  0.1816
22937W        W39011  15.853  10.185  11.492  0.2814  0.1678 -0.1993
22938W        W39012   7.410  16.802  12.212  0.3085 -0.0831  0.0979
22939W        W39013  15.760   0.174   5.492 -0.0058  0.0965 -0.3432
22940W        W39014   3.416  13.488  14.464  0.0593 -0.1291 -0.0252
22941W        W39015   3.354   7.097  15.530 -0.1500  0.3334  0.0253
22942W        W39016  10.420  17.009   4.253  0.2187 -0.1111  0.1145
22943W        W39017  11.987  10.328  15.051  0.2631  0.2538  0.1747
22944W        W39018   1.718   3.827   3.704  0.3410 -0.1904 -0.1503
22945W        W39019   0.250   1.916  15.355  0.2637 -0.0179  0.0882
22946W        W39020   0.300  10.334   4.604  0.0782 -0.0849 -0.0600
22947W        W39021   4.061  17.920  13.248  0.0475  0.3142  0.2341
22948W        W39022   5.293   3.818   4.847 -0.0630 -0.1873 -0.3894
22949W        W39023  15.939   5.166   6.013 -0.1903  0.0429  0.2842
22950W        W39024  16.584  14.761  12.123 -0.1782 -0.1335  0.0357
22951W        W39025   6.459   2.917   4.817  0.1416  0.0958 -0.0949
22952W        W39026  17.856   7.846  11.209 -0.2884 -0.0744  0.2474
22953W        W39027   0.160  16.725  13.661 -0.0998  0.3569  0.0169
22954W        W39028   9.695  14.879   2.365 -0.1511  0.1759  0.0513
22955W        W39029  13.106   0.470  13.046 -0.3723  0.0250 -0.1180
22956W        W39030   5.267   1.886   3.419  0.0116  0.0085 -0.1170
22957W        W39031  11.629   0.043   3.867 -0.0596 -0.0645  0.5092
22958W        W39032   8.363   6.467  14.321 -0.1523 -0.1308  0.3950
22959W        W39033  12.241   4.613   5.205  0.1377  0.2120  0.3445
22960W        W39034   7.357   4.240   3.284  0.2099  0.3779  0.1326
22961W        W39035   7.314   3.986   5.854  0.2305 -0.2547  0.1770
22962W        W39036  13.048   8.146  12.682 -0.2505 -0.3399 -0.0489
22963W        W39037  12.545   7.895  11.632  0.0090 -0.0215  0.0085
22964W        W39038  14.721   4.433   5.571 -0.3269 -0.0738 -0.4734
22965W        W39039   8.158  12.233   0.875  0.4439  0.0071  0.2512
22966W        W39040  12.149  14.600  12.580  0.1036 -0.3716 -0.0953
22967W        W39041   6.612  11.373   2.428  0.0099  0.0204 -0.0195
22968W        W39042   7.131  11.590   4.137 -0.1332  0.0876  0.1765
22969W        W39043  12.963   3.435  15.535 -0.1360 -0.0560 -0.2009
22970W        W39044   6.782  17.837  12.696 -0.0316 -0.1783  0.1905
22971W        W39045  12.226   2.271   3.243 -0.1481  0.0084 -0.1626
22972W        W39046   1.333   4.766   5.307 -0.1125 -0.3730 -0.1134
22973W        W39047   5.494  11.736   4.535 -0.1059 -0.2626  0.0309
22974W        W39048  10.766   3.044   0.530 -0.1856 -0.0200 -0.0967
22975W        W39049   2.571  10.547  13.914  0.3114  0.2063  0.0244
22976W        W39050  13.245  15.234  15.314  0.1654  0.1113  0.0836
22977W        W39051   1.125   6.449   1.483 -0.1008  0.0242  0.1419
22978W        W39052   9.024   6.871   5.477 -0.1520 -0.1009 -0.3768
22979W        W39053  13.964   7.058   4.647  0.1446  0.1330 -0.0522
22980W        W39054   7.095  15.916   2.582  0.1026 -0.0980 -0.2441
22981W        W39055   6.064   9.589   1.735 -0.5648 -0.3724 -0.2163
22982W        W39056   6.495   5.240  11.945  0.4388 -0.0760 -0.1861
22983W        W39057  11.910  17.142   1.741 -0.0429  0.0694  0.1766
22984W        W39058   3.554   6.710   2.307  0.0883  0.0163  0.1516
22985W        W39059  12.361   3.224  13.396 -0.2397  0.0454 -0.2583
22986W        W39060   5.362  11.204  16.456 -0.0458  0.1096  0.1409
22987W        W39061   6.493   2.558  15.292  0.0997  0.3872 -0.0888
22988W        W39062   0.900  15.419  14.290 -0.2109 -0.2002 -0.0520
22989W        W39063  14.222   4.875   1.321 -0.0349 -0.0579  0.0996
22990W        W39064   9.578   9.235  13.998  0.2004 -0.2232 -0.0799
22991W        W39065  17.794   8.094  11.776  0.1299  0.1585 -0.1261
22992W        W39066  10.556  17.317  12.254  0.2402  0.0807  0.4619
22993W        W39067  15.563   4.275  16.408  0.2448 -0.0178  0.1052
22994W        W39068   1.100   9.212  15.855  0.0415  0.4056  0.2609
22995W        W39069   4.145   4.512   0.988  0.2695 -0.3304  0.1180
22996W        W39070   7.034  18.044  11.830  0.2236 -0.2064  0.1641
22997W        W39071   2.795  14.041   1.364 -0.1184  0.0909  0.0931
22998W        W39072  16.899   1.099   3.721 -0.0179 -0.2487 -0.2221
22999W        W39073   7.691   7.862   2.922 -0.0775 -0.3567  0.1213
23000W        W39074  16.804   9.528  15.264 -0.2943 -0.1047  0.0511
23001W        W39075   9.419   5.831   0.129  0.3191  0.0729  0.3066
23002W        W39076  16.516   3.686   1.987  0.1042 -0.0917  0.1354
23003W        W39077  10.053   7.826   3.115  0.0405  0.0796  0.1640
23004W        W39078  13.593   7.225   1.075  0.0306  0.1340  0.0059
23005W        W39079   3.092  12.467   1.751  0.1015 -0.2822  0.3623
23006W        W39080   6.279   8.039   1.922  0.4423 -0.1946  0.2634
23007W        W39081  11.350   4.954   0.710  0.1194 -0.0332 -0.2934
23008W        W39082  11.019   0.705   3.628  0.0516 -0.2180 -0.0741
23009W        W39083   5.211  14.602   1.791 -0.0541 -0.1373 -0.0692
23010W        W39084   3.046   8.337   0.388  0.0157 -0.0912 -0.1053
23011W        W39085   4.346  14.186  11.739 -0.4380 -0.0095 -0.1874
23012W        W39086   4.920  15.051  15.261 -0.1795  0.0553  0.0208
23013W        W39087  12.847   7.478  15.790  0.1297  0.1459 -0.0231
23014W        W39088  17.408  12.011   0.977 -0.0161  0.0122  0.3895
23015W        W39089   8.097   3.271  14.060  0.1519 -0.0129  0.0093
23016W        W39090   8.086   1.099  10.806 -0.1211 -0.1689 -0.1283
23017W        W39091   9.164  14.663   2.109 -0.0785 -0.2286  0.1076
23018W        W39092   8.238  10.588   2.425 -0.3312  0.0401  0.1240
23019W        W39093   5.215   0.056  16.136 -0.0685 -0.1585  0.0880
23020W        W39094   2.707  14.259  14.496 -0.0077 -0.1348  0.0050
23021W        W39095  11.951   6.656  14.540 -0.0318  0.1047  0.0997
23022W        W39096  15.488  14.760  15.013  0.2323  0.3152  0.2500
23023W        W39097  13.708   6.330   4.534 -0.2746  0.1642  0.3563
23024W        W39098  18.214   1.116   1.639  0.3163  0.1671 -0.0843
23025W        W39099  17.701  10.804  11.682 -0.1518 -0.1997  0.0231
23026W        W39100   4.463   4.487  15.493  0.0589 -0.0203  0.0672
23027W        W39101  11.502   1.547   1.630 -0.2525 -0.1234 -0.0250
23028W        W39102  12.427   9.194   3.986 -0.2414  0.0519 -0.0689
23029W        W39103  15.500  13.628   4.046 -0.1841  0.1956 -0.1211
23030W        W39104  15.470   9.315  13.081 -0.0643  0.1143 -0.0023
23031W        W39105   7.586   0.415   0.259 -0.2922  0.0696 -0.1157
23032W        W39106  13.954  11.779  15.730  0.2882 -0.0516  0.1892
23033W        W39107  10.316   3.906   3.086  0.1173 -0.0576 -0.0410
23034W        W39108  11.415   3.092  16.263  0.0941 -0.2185  0.2943
23035W        W39109  12.595   5.387   3.633 -0.0097  0.2766 -0.2283
23036W        W39110   1.083   2.688   6.028 -0.3026 -0.1106  0.1263
23037W        W39111   5.278   7.470   1.214 -0.2547  0.2691  0.2277
23038W        W39112  15.722  17.037  14.779 -0.1894 -0.1163 -0.0611
23039W        W39113   6.912   9.413   3.863  0.0513  0.5879 -0.0449
23040W        W39114   4.320  13.345   0.871  0.1037 -0.0780 -0.0629
23041W        W39115   4.570   6.672   4.493  0.0452  0.3059  0.3175
23042W        W39116  13.162  10.988  14.068 -0.2031  0.2881  0.1504
23043W        W39117   4.108  18.183  15.705 -0.1853 -0.4153  0.2485
23044W        W39118   5.670   8.405   3.314 -0.0946  0.0418  0.4199
23045W        W39119   5.124   0.533  15.862  0.2911  0.0845 -0.0423
23046W        W39120   2.679  11.364   3.064 -0.1671  0.0491  0.0814
23047W        W39121  13.488   2.002   5.690  0.0421 -0.1410 -0.1452
23048W        W39122  14.554  18.192   5.627 -0.1856  0.1567  0.0708
23049W        W39123  12.065  16.116   6.513 -0.2095  0.4962  0.0775
23050W        W39124   5.811   0.398   4.828 -0.3426  0.0597  0.1952
23051W        W39125  13.035   5.045   3.711  0.2354  0.0626  0.1974
23052W        W39126  13.916   7.824   2.254 -0.0817 -0.0940 -0.3211
23053W        W39127   8.824   8.543  14.937  0.1243 -0.0718  0.1840
23054W        W39128   3.086  17.951   0.792  0.1249 -0.0907 -0.1149
23055W        W39129  13.918   4.397  11.507 -0.0419  0.0305 -0.1230
23056W        W39130   2.411  13.953   2.913  0.0133  0.1022 -0.2039
23057W        W39131  11.205  11.038   5.095 -0.0678 -0.0714  0.0412
23058W        W39132  14.364  12.954  12.037  0.0597  0.6394 -0.0020
23059W        W39133  15.015  10.365  14.012  0.1176 -0.1497 -0.2298
23060W        W39134  16.280  14.599  15.236  0.1902 -0.2713 -0.1830
23061W        W39135   9.051  12.725   1.250  0.0849  0.2295 -0.0530
23062W        W39136   0.192   5.312   4.513 -0.1655  0.2654 -0.1289
23063W        W39137   3.049   9.861  16.011 -0.3009 -0.0240  0.1860
23064W        W39138   9.858   3.008   2.842  0.2011  0.0437 -0.0572
23065W        W39139  12.267  13.244  11.361 -0.1753 -0.3711  0.3552
23066W        W39140   6.275   3.488  12.077 -0.2862 -0.1727  0.1060
23067W        W39141   2.868   1.685   2.176 -0.1595 -0.1448  0.0583
23068W        W39142   9.527  12.630   1.141 -0.0838  0.0350 -0.1877
23069W        W39143   5.891  16.491  11.481  0.1696  0.4874  0.1261
23070W        W39144  15.824   6.517  14.292 -0.1145  0.0235  0.1276
23071W        W39145   2.545   2.288  13.335  0.0847  0.0256 -0.1347
23072W        W39146   6.403   9.170  14.655  0.0426 -0.0296  0.0552
23073W        W39147   3.478   0.885  12.401  0.2675  0.0363 -0.0043
23074W        W39148  17.489  14.972  12.489  0.0860  0.0800 -0.4227
23075W        W39149   1.015  12.778  15.128 -0.0954 -0.1999  0.0597
23076W        W39150  14.704  17.781  15.097  0.1524  0.1965  0.3131
23077W        W39151  14.870  17.361   3.456  0.0336  0.0511  0.0386
23078W        W39152   3.723   3.372  16.004 -0.0989 -0.2967  0.2702
23079W        W39153   8.368   2.711  12.052 -0.1618  0.3160  0.2650
23080W        W39154  10.685  18.048  13.800 -0.0062  0.0981 -0.0017
23081W        W39155   7.614  15.932   5.501  0.0468  0.2446  0.1894
23082W        W39156   5.680   2.309  15.763 -0.0048 -0.4032  0.1897
23083W        W39157  16.467   2.144  12.225  0.1890 -0.3195 -0.3499
23084W        W39158   3.392  16.937  15.503  0.1746 -0.0501 -0.1182
23085W        W39159  10.633  10.649   1.287  0.2389  0.2014  0.2087
23086W        W39160  10.845  16.973  12.550  0.1089 -0.0718 -0.2242
23087W        W39161  16.620  11.739   2.695  0.0429  0.2546 -0.0070
23088W        W39162   7.615  15.924   3.698 -0.0266  0.1307  0.0072
23089W        W39163  10.269  17.589  12.575 -0.1015  0.3074 -0.0958
23090W        W39164  16.120  16.485  13.482 -0.0964  0.1130 -0.3791
23091W        W39165  13.923   7.424  14.274 -0.2424 -0.3075 -0.1853
23092W        W39166  15.818   3.992   0.668 -0.1355  0.3513 -0.1650
23093W        W39167  18.166   6.314   0.024  0.1236  0.2441  0.1052
23094W        W39168   2.231  11.030  16.054 -0.2979 -0.1825  0.1126
23095W        W39169   8.183   8.769   3.787 -0.0471 -0.0116 -0.1320
23096W        W39170   7.169   4.289  14.705 -0.0287 -0.0077 -0.0018
23097W        W39171   6.653  13.012   3.083 -0.0022  0.0920  0.2244
23098W        W39172  13.414   5.463   0.205 -0.1626  0.1358  0.0132
23099W        W39173   9.232  14.742  12.534  0.2618  0.2577 -0.3012
23100W        W39174  15.056   2.873  14.854 -0.0425 -0.0353  0.0744
23101W        W39175  14.213   8.609  14.721 -0.1435 -0.0233 -0.1012
23102W        W39176   9.653   1.714   1.786 -0.1964 -0.1167 -0.0116
23103W        W39177  11.379  13.101   4.964  0.1027 -0.1482 -0.0081
23104W        W39178   0.287  12.696   4.334 -0.1104 -0.4236 -0.2774
23105W        W39179   0.726   7.969  11.916  0.1079 -0.1408  0.0070
23106W        W39180  10.253   5.708   5.315 -0.0603  0.1120 -0.0648
23107W        W39181   6.443   9.266   3.889  0.0181 -0.0991  0.0374
23108W        W39182  13.445   7.215   3.014  0.2053  0.5330  0.1430
23109W        W39183  15.445  10.336   3.494  0.1740  0.2722 -0.0034
23110W        W39184  14.191   4.833  14.010 -0.1765  0.2782  0.1869
23111W        W39185  17.252   4.223   0.497  0.1578  0.0262 -0.2872
23112W        W39186  10.856  17.004   2.661  0.1698  0.3269  0.1767
23113W        W39187   3.650   7.519   1.926  0.0433  0.1402  0.2943
23114W        W39188  16.605  15.378   3.690  0.2091 -0.1477 -0.1245
23115W        W39189  15.853   2.623   3.549 -0.1205  0.3106 -0.2022
23116W        W39190   3.995   9.021  12.418 -0.0768  0.2899 -0.0753
23117W        W39191   3.324  10.841  12.063 -0.0531 -0.0448  0.1516
23118W        W39192   8.411  17.347   2.703  0.2208  0.0656 -0.0188
23119W        W39193  10.621  15.151  12.260  0.0398 -0.0190 -0.0595
23120W        W39194   9.324   4.280  15.763 -0.4315 -0.3045  0.1000
23121W        W39195  12.702   6.374   3.078  0.3152 -0.0863 -0.0641
23122W        W39196   2.982   4.441  15.886  0.2877  0.0446 -0.1386
23123W        W39197   6.579   9.338   4.355  0.0054 -0.0938  0.2579
23124W        W39198   7.449   2.720  15.829  0.1677  0.2663 -0.2075
23125W        W39199   9.609   9.560   6.056 -0.2231 -0.0324 -0.0066
23126W        W39200  17.155   1.733   0.969 -0.0728 -0.0155 -0.1827
23127W        W39201  17.780  17.213  11.005 -0.1377 -0.0539 -0.1967
23128W        W39202  11.414  16.321  15.442 -0.1671 -0.1234 -0.1471
23129W        W39203   3.400  14.687  14.130  0.0110 -0.2307 -0.2240
23130W        W39204   8.767  18.208   1.401  0.1118  0.0548  0.0917
23131W        W39205  12.982  16.877   3.342  0.0343 -0.0740 -0.0351
23132W        W39206  12.459   5.247  16.408  0.3064  0.2133  0.1538
23133W        W39207  13.444  15.681  15.413 -0.1042 -0.2208 -0.0958
23134W        W39208  13.779   2.816   5.717  0.0376 -0.0539 -0.0972
23135W        W39209  14.000   9.987   1.561  0.0101  0.3361 -0.2295
23136W        W39210   5.585   0.260   3.996  0.1178 -0.1110 -0.1385
23137W        W39211  10.479   1.017  14.042  0.0127  0.4413 -0.2409
23138W        W39212   2.261   3.401  12.697 -0.1953 -0.0574  0.0440
23139W        W39213  11.235  14.624  13.491  0.2481  0.4564  0.2058
23140W        W39214  10.883   2.734  14.066 -0.1154  0.1782 -0.1830
23141W        W39215  14.616   9.458   2.830 -0.0201 -0.0046 -0.0720
23142W        W39216   9.548   1.919  12.499  0.1577 -0.0997  0.3076
23143W        W39217  15.705   7.473   5.245 -0.1615  0.1293 -0.0797
23144W        W39218   6.325   4.701   5.119  0.3236  0.0193 -0.0320
23145W        W39219  16.678  15.903  16.049 -0.0356  0.1789 -0.0601
23146W        W39220   0.115   4.664  16.082 -0.0776  0.1376  0.2517
23147W        W39221  17.485   5.503  15.396  0.1150  0.0196  0.1605
23148W        W39222  15.238  15.163   1.218 -0.0387 -0.0789 -0.0810
23149W        W39223   6.197   7.515  11.546 -0.1137  0.0349  0.0364
23150W        W39224  17.492  15.921   1.817 -0.0701 -0.1205  0.0068
23151W        W39225  10.389  11.054   1.527  0.1155  0.3292 -0.1589
23152W        W39226   0.345   6.317   2.301  0.1950  0.0270 -0.2517
23153W        W39227   5.478   4.933  14.811 -0.0259 -0.0145 -0.0107
23154W        W39228  12.414   5.312  13.963 -0.3289  0.0071  0.1815
23155W        W39229   0.190   6.586  12.443 -0.2805  0.0202  0.0894
23156W        W39230   4.909  15.758   4.450 -0.2751 -0.1252 -0.1009
23157W        W39231   6.777  17.207   4.808 -0.1891 -0.1601  0.0368
23158W        W39232   8.938  10.351  11.741  0.0998  0.0222  0.1320
23159W        W39233  16.705   4.346  16.092  0.0584  0.4316  0.1224
23160W        W39234   6.896   2.453  12.547 -0.0781 -0.2082 -0.1097
23161W        W39235   8.848   1.995   4.705  0.0177 -0.1010  0.3350
23162W        W39236  16.505   1.284  12.354 -0.0416  0.1279  0.1837
23163W        W39237  17.750  11.939  13.830  0.2574 -0.0202  0.1529
23164W        W39238  17.960   9.894   2.633 -0.2211  0.0900 -0.3460
23165W        W39239   1.023   1.790  11.706 -0.1144  0.1006  0.0184
23166W        W39240   8.972   6.870  14.751  0.2178  0.4019  0.1243
23167W        W39241  11.433  14.529   3.313  0.0014 -0.0158  0.1427
23168W        W39242   9.341  16.910  13.208 -0.2757 -0.1898 -0.2622
23169W        W39243  12.290  14.593   3.037 -0.0204 -0.2086 -0.2137
23170W        W39244   9.211  14.666   1.537 -0.0724  0.2660 -0.0389
23171W        W39245  16.018   5.280   2.128  0.0252 -0.0442 -0.1280
23172W        W39246  15.721  14.451  15.492 -0.1722 -0.0775 -0.1849
23173W        W39247  11.920   9.668  14.458  0.0910  0.0952  0.0189
23174W        W39248  17.735   7.704  12.983  0.0601 -0.0320  0.0917
23175W        W39249  14.484   2.579   3.008  0.3124  0.1292 -0.0940
23176W        W39250   1.172   1.669   3.072 -0.2659  0.0609  0.0232
23177W        W39251  14.017   1.860  13.992  0.2413  0.1456 -0.0665
23178W        W39252  12.265   0.077   0.054 -0.0486 -0.2389  0.0459
23179W        W39253   9.306   4.747   0.269  0.0617 -0.2146  0.2292
23180W        W39254   9.063   6.962  16.209  0.1457 -0.0834 -0.2287
23181W        W39255   7.019  11.745  16.265  0.0286 -0.0534 -0.0269
23182W        W39256  14.928   3.382   1.794  0.1182  0.0482 -0.0772
23183W        W39257  14.799  14.188   3.877  0.2416 -0.1518 -0.1167
23184W        W39258  10.026  16.550   2.423 -0.0199  0.2492  0.0840
23185W        W39259   9.060   2.687   3.311  0.1848 -0.1067 -0.0386
23186W        W39260   5.482  15.322   3.058 -0.1968 -0.1715 -0.0922
23187W        W39261   1.225   4.101  13.353 -0.0952  0.1824  0.1383
23188W        W39262   3.843   9.907  12.175 -0.0434 -0.0850  0.1788
23189W        W39263  15.318  16.629   2.002  0.0791  0.1113  0.0137
23190W        W39264  17.947  13.451   4.849 -0.0240  0.1801  0.3592
23191W        W39265   5.016  10.773  11.238 -0.3841 -0.2313  0.2266
23192W        W39266   8.224  17.979   1.310 -0.0008  0.0332 -0.0115
23193W        W39267  10.059  15.982   4.066 -0.0991  0.0882  0.0272
23194W        W39268  17.296   2.703   4.014 -0.0041 -0.2133  0.1190
23195W        W39269   8.547   3.763  16.200 -0.0405 -0.0154  0.2929
23196W        W39270  17.479   6.748  15.544 -0.0439  0.0833 -0.1174
23197W        W39271  11.778  18.011   5.644 -0.1197 -0.0351 -0.1246
23198W        W39272   4.375   0.428  13.167 -0.1405 -0.2735  0.2937
23199W        W39273  12.096  12.222   0.395 -0.2126 -0.0144  0.0512
23200W        W39274   4.530  17.735   3.824  0.1386  0.1266 -0.1128
23201W        W39275   9.682   4.950   2.526 -0.1910 -0.0002  0.3422
23202W        W39276  12.151   8.075   1.416 -0.1312 -0.0837 -0.2772
23203W        W39277   8.302  16.286   4.357 -0.1124 -0.1383 -0.1037
23204W        W39278   6.103   8.226  13.287  0.0211 -0.0898  0.0933
23205W        W39279  15.369   4.205   0.394 -0.1095 -0.0775  0.0224
23206W        W39280   3.353  16.801  11.783  0.1188  0.0426  0.1320
23207W        W39281   6.620  11.914  15.016  0.2691  0.1407 -0.2423
23208W        W39282   9.864   2.792  14.518  0.1198 -0.1483 -0.2147
23209W        W39283   3.134  10.694   2.704 -0.0684  0.1437 -0.1513
23210W        W39284   4.551  14.495   2.107  0.0585 -0.3968 -0.0221
23211W        W39285   4.726   6.477  13.653  0.3843 -0.3025 -0.0804
23212W        W39286  15.361   8.893   4.990  0.0591 -0.0987  0.2003
23213W        W39287  13.498  12.438   6.135 -0.0436  0.1415  0.1564
23214W        W39288   4.443   5.473  14.649 -0.0008  0.1021 -0.0337
23215W        W39289   6.696  16.108  14.812  0.2165  0.0988  0.0401
23216W        W39290  16.055   4.536  12.345 -0.3502 -0.1542  0.1018
23217W        W39291  13.320  10.881  14.507  0.0928 -0.3489 -0.0019
23218W        W39292   1.394   5.236  14.853 -0.1475 -0.0592  0.1145
23219W        W39293   8.676   1.059   5.847  0.1256 -0.1511 -0.1491
23220W        W39294  14.058  17.880   1.208 -0.3358  0.1571  0.1989
23221W        W39295  15.818  11.839  12.045 -0.0200 -0.1588 -0.2656
23222W        W39296   9.484  14.034   0.222  0.1159  0.1528  0.1520
23223W        W39297  15.806   7.972  14.182 -0.2063 -0.0654  0.1230
23224W        W39298  14.845   2.495  15.739 -0.1016  0.0338  0.0049
23225W        W39299  18.128   5.119   1.523 -0.1334  0.1380 -0.0732
23226W        W39300   8.010   2.884  11.758  0.0229 -0.1390 -0.1640
23227W        W39301  11.506   8.152  12.572 -0.3806 -0.1823 -0.2693
23228W        W39302  10.968   4.031   1.767 -0.0151 -0.0809  0.1673
23229W        W39303  11.031   8.226  15.707  0.3177  0.0370 -0.0098
23230W        W39304  10.566  15.448  14.180  0.3854  0.3065 -0.1003
23231W        W39305  16.683   1.332  11.886  0.1032 -0.1156  0.0313
23232W        W39306  12.753   6.234  15.535 -0.1945  0.1120 -0.0316
23233W        W39307  17.880  12.909  11.680  0.2315  0.1551 -0.1177
23234W        W39308   9.756  16.799   0.512 -0.0854  0.4127  0.0020
23235W        W39309   6.385   6.440   2.681 -0.3925  0.1369  0.0120
23236W        W39310   3.965  10.916   4.595  0.0711 -0.1863 -0.2736
23237W        W39311  15.864  10.546   4.312 -0.0952  0.4383 -0.0734
23238W        W39312   8.645   4.291   1.917  0.0444  0.0625 -0.0460
23239W        W39313   2.510   1.820  14.277  0.2497  0.1481 -0.0452
23240W        W39314   1.762  15.182  14.209 -0.2775  0.2001  0.0624
23241W        W39315   0.702  13.903  12.158  0.0957  0.0969  0.0350
23242W        W39316   4.583  13.233   2.973 -0.0146  0.1346  0.4360
23243W        W39317   6.099  12.550  14.202 -0.2156 -0.0092  0.0373
23244W        W39318   4.241   9.246   5.010  0.0864  0.3548  0.0116
23245W        W39319  18.081   9.445   5.720  0.4053  0.2356  0.1674
23246W        W39320  16.413  15.783   4.922 -0.1357 -0.0658  0.1033
23247W        W39321  18.078  11.835   2.215 -0.0270  0.0274  0.0056
23248W        W39322   7.872   3.850   4.221  0.0725  0.1314 -0.1070
23249W        W39323   3.377  14.657   3.993  0.4765  0.3123  0.0702
23250W        W39324  13.658   0.732  12.985 -0.1630  0.1516  0.1281
23251W        W39325  11.722   8.547  11.553 -0.0766 -0.1358 -0.1597
23252W        W39326   8.795   7.263   1.466  0.0795 -0.1829 -0.1814
23253W        W39327   3.104   5.998  13.559 -0.0425  0.0785  0.2690
23254W        W39328  15.866   9.721   0.532 -0.0242 -0.2036  0.1354
23255W        W39329   8.936   3.911  13.398 -0.0603 -0.1828 -0.4527
23256W        W39330   6.496  16.324   4.943 -0.0108 -0.1370 -0.1281
23257W        W39331   6.081  17.707   5.839  0.3147 -0.0462  0.0947
23258W        W39332   6.483   4.758   3.840  0.1277 -0.1129 -0.1819
23259W        W39333  13.247  10.370   5.132 -0.2966 -0.1775  0.1512
23260W        W39334  15.064  11.723  11.999  0.2140  0.1902  0.1458
23261W        W39335  13.905  16.679   3.671 -0.0659  0.1681  0.2837
23262W        W39336  14.038  11.366   1.639 -0.1272 -0.0028 -0.0464
23263W        W39337   2.827   2.676  15.712 -0.0678 -0.2740  0.2481
23264W        W39338   1.682  10.224  14.059  0.1359  0.2124 -0.2684
23265W        W39339   7.522   4.578  14.625 -0.1675 -0.2810  0.1713
23266W        W39340  14.211   8.147   1.014 -0.3426 -0.0582  0.0449
23267W        W39341  14.278   2.877  15.401 -0.4213 -0.1311 -0.0632
23268W        W39342   6.947  14.044   1.285  0.0789 -0.3096  0.2920
23269W        W39343   2.467   0.042   1.819  0.1040  0.2567  0.0748
23270W        W39344   0.268  12.247   4.593 -0.0443  0.3138 -0.0139
23271W        W39345  14.547   9.832   3.305  0.0580  0.1898  0.1277
23272W        W39346  16.145  12.587   0.599  0.0046  0.0759 -0.0053
23273W        W39347  15.248   0.246   3.057  0.0578  0.0816  0.1986
23274W        W39348   8.571   4.475   5.176 -0.2170 -0.2189  0.0890
23275W        W39349  15.793  15.079  16.023 -0.0757 -0.0163 -0.0934
23276W        W39350  16.865   2.974  13.938 -0.0133  0.0077 -0.1020
23277W        W39351  11.579  16.739   1.070  0.1384 -0.1852  0.0439
23278W        W39352  13.630  15.177   2.390 -0.2897  0.0061 -0.0249
23279W        W39353   6.706   0.416   3.262  0.1733  0.1314  0.3321
23280W        W39354  11.586  10.172  12.277 -0.1751  0.1175 -0.0615
23281W        W39355   9.270   0.456  13.294  0.1906  0.2444 -0.2622
23282W        W39356   2.248   4.512  13.798 -0.1424  0.0125  0.1259
23283W        W39357   2.802  17.225  13.432 -0.2410  0.1912 -0.0829
23284W        W39358  13.863  12.725   0.199 -0.0425  0.2180  0.0256
23285W        W39359  14.362   4.640   4.451 -0.2259 -0.0535  0.0611
23286W        W39360  12.294   6.348  13.678  0.1582  0.1917 -0.0809
23287W        W39361  12.135  18.247  14.835 -0.0051 -0.1931 -0.1553
23288W        W39362   4.194   2.565   0.300  0.1715  0.2263  0.3665
23289W        W39363   9.088   9.981   4.541 -0.2132  0.0186 -0.1757
23290W        W39364   4.377   7.464   3.044 -0.2139  0.1474  0.0743
23291W        W39365  16.275   4.345   5.032  0.0454  0.1554  0.1350
23292W        W39366  17.873  14.154   4.039 -0.1281 -0.2910  0.2700
23293W        W39367  16.110   2.809  11.908  0.1391  0.1970  0.0438
23294W        W39368  18.023  12.398  15.787 -0.0697 -0.3546  0.4598
23295W        W39369   5.189  11.851  11.930 -0.1110 -0.3563 -0.1143
23296W        W39370   9.697  11.183   3.716  0.2665 -0.0273 -0.2467
23297W        W39371   1.577  17.150   4.699 -0.1632  0.0191  0.2582
23298W        W39372  13.338   5.314   2.816  0.1474  0.1344 -0.0872
23299W        W39373   4.157   5.177  14.329 -0.1840 -0.1388  0.4092
23300W        W39374   9.496   1.341  15.706 -0.1309  0.0270  0.0552
23301W        W39375   2.552   2.866  10.316 -0.0058 -0.0918 -0.1368
23302W        W39376  10.791   5.751  14.855  0.0971 -0.2751  0.0257
23303W        W39377   9.923  11.623   2.997  0.2342 -0.1630  0.1833
23304W        W39378  12.706  17.417  15.962 -0.4904 -0.2273  0.0973
23305W        W39379   3.760  12.117   0.423  0.4486  0.0523  0.1592
23306W        W39380   4.219  10.125   2.305 -0.4099  0.2618  0.0845
23307W        W39381  17.163   4.241   1.380 -0.1822 -0.1487  0.0917
23308W        W39382  16.028   4.444  16.409  0.1420  0.1757  0.2438
23309W        W39383   5.489   6.213   3.055  0.1714 -0.2820 -0.1716
23310W        W39384  11.531   3.622  16.191 -0.1132  0.1568 -0.0244
23311W        W39385   0.152   7.255   3.377 -0.0099 -0.3366 -0.0718
23312W        W39386   5.960   0.737   5.188 -0.2657  0.1458 -0.1389
23313W        W39387  13.558  11.273   1.463 -0.0095  0.0601  0.0100
23314W        W39388  17.514  13.358  15.174  0.1192  0.1155 -0.1047
23315W        W39389   7.968  11.170  13.525 -0.2353 -0.0463 -0.0322
23316W        W39390  14.699   3.828  14.036 -0.0789 -0.2026  0.0049
23317W        W39391   3.037   1.006  11.697  0.0536 -0.1663 -0.2412
23318W        W39392  16.678   7.042   5.734  0.1722 -0.0879  0.0348
23319W        W39393   6.076  11.420  11.949  0.0429  0.0307 -0.0647
23320W        W39394  14.403  13.490   0.354 -0.1028  0.1104  0.2005
23321W        W39395   1.576  14.843  16.267 -0.1456  0.2833  0.2802
23322W        W39396   1.079  10.695  14.329  0.3567  0.0003  0.1642
23323W        W39397   2.244  17.776  15.911  0.0461  0.0104 -0.2737
23324W        W39398   4.404   4.865   0.077 -0.3629 -0.2813 -0.2402
23325W        W39399  10.683  17.126  15.317  0.1749  0.1452 -0.1838
23326W        W39400   6.307  15.359  16.091 -0.0959 -0.1880 -0.2020
23327W        W39401  13.956  10.127  13.288 -0.3700  0.1178 -0.0219
23328W        W39402   8.708  16.684   5.718 -0.0024 -0.0354  0.0237
23329W        W39403   2.297   5.152   3.584 -0.2852 -0.1888  0.1283
23330W        W39404  17.398  12.792   3.968  0.2862  0.1231 -0.2461
23331W        W39405  16.340   2.972  14.574  0.1514  0.1455 -0.0637
23332W        W39406   1.007   0.072  16.415  0.1755 -0.2297 -0.0854
23333W        W39407  11.891  10.020  11.467  0.0506  0.0780  0.0198
23334W        W39408   2.299  15.000  13.799  0.2048 -0.0600  0.0661
23335W        W39409   5.582  17.977   1.241  0.0061 -0.0666  0.0620
23336W        W39410   8.552   1.559   2.470 -0.1111  0.0644  0.2473
23337W        W39411   6.314  16.243  16.275  0.0008  0.1837 -0.0306
23338W        W39412  11.824   4.362   5.296 -0.1738 -0.1316  0.1624
23339W        W39413  16.032   6.822  13.922 -0.2848 -0.0961 -0.1741
23340W        W39414  14.495   3.191   1.826 -0.3079  0.1853  0.3840
23341W        W39415   7.094   1.397   2.631 -0.2414  0.0066 -0.1977
23342W        W39416   5.588   5.012  12.846 -0.0615  0.1249  0.1010
23343W        W39417   8.100  12.323   0.067 -0.4302 -0.1526  0.0494
23344W        W39418  10.778  12.128  15.940 -0.0673 -0.0984  0.2911
23345W        W39419   8.532   3.359  10.760  0.0643 -0.2554  0.0987
23346W        W39420   4.684   6.895  14.971  0.0303 -0.2221 -0.1712
23347W        W39421   9.868  12.607  13.992  0.3842  0.0454  0.0587
23348W        W39422   3.336  16.703  12.341 -0.0437  0.1408  0.1027
23349W        W39423  14.518   0.084   4.969  0.2142  0.0861  0.0135
23350W        W39424   5.223   9.953  16.430 -0.0726 -0.1136 -0.1206
23351W        W39425  10.047   1.275   4.413  0.0685 -0.1889  0.0408
23352W        W39426  13.834  16.788   5.351 -0.0021  0.3203  0.0734
23353W        W39427   5.075  13.155  13.103  0.2774  0.0987 -0.1032
23354W        W39428  12.674  10.720   3.397 -0.2794  0.0050  0.1760
23355W        W39429  17.014  17.008  13.619  0.1029  0.2643  0.0712
23356W        W39430   6.275   7.668   0.427  0.0292 -0.2331  0.1843
23357W        W39431   7.498  12.805   4.274 -0.2214  0.2348  0.2060
23358W        W39432  16.636   6.750   2.753 -0.0842 -0.2228 -0.0303
23359W        W39433  12.717  13.972  12.054 -0.1914  0.0467  0.0147
23360W        W39434   1.900  10.260   2.212  0.1055 -0.1635 -0.0439
23361W        W39435   5.265   4.292  11.816 -0.1553 -0.0796 -0.3076
23362W        W39436   9.138   6.390   0.929  0.1511  0.2430 -0.3400
23363W        W39437   6.188   4.559  13.405  0.0591  0.4789 -0.2252
23364W        W39438  10.776   6.447   2.073 -0.0698  0.0413 -0.4241
23365W        W39439  17.765   8.150  12.307 -0.1758 -0.2342 -0.2787
23366W        W39440  15.841  11.473   5.413 -0.1555 -0.2568  0.2574
23367W        W39441   0.120  11.926  13.212 -0.0980  0.0409 -0.0174
23368W        W39442  16.505  14.008  15.947 -0.0492 -0.3406  0.0787
23369W        W39443   5.013   4.731  15.580 -0.3198  0.0706 -0.0077
23370W        W39444   0.527   5.106  11.634  0.3865  0.3955 -0.2503
23371W        W39445  14.162   1.434   0.629 -0.1213  0.0632  0.2011
23372W        W39446   6.935  16.120   3.956  0.1686  0.0219  0.0855
23373W        W39447   4.788  11.209  13.167  0.0091 -0.2125  0.0979
23374W        W39448  14.293   5.620  13.449  0.1730  0.0198 -0.0773
23375W        W39449  12.862   4.261  11.160 -0.0024  0.2611 -0.4282
23376W        W39450  13.615  17.486   5.525 -0.0759  0.1680  0.0809
23377W        W39451   2.617  10.556  12.416 -0.1559  0.0428 -0.2028
23378W        W39452   7.126   4.278  12.469 -0.0850 -0.1209  0.2547
23379W        W39453   0.305  11.666   0.445 -0.4784 -0.0465  0.0661
23380W        W39454   2.867   1.772  15.075 -0.0323  0.0629  0.0572
23381W        W39455   4.010  13.834   3.655  0.0781  0.1768  0.0082
23382W        W39456   5.225  14.668  12.263 -0.1414 -0.0358 -0.5218
23383W        W39457  14.604  13.460   1.254 -0.0482  0.0715  0.2130
23384W        W39458   1.606   8.916   2.224  0.0576  0.2576  0.0050
23385W        W39459   8.020   8.295  16.169 -0.0922  0.4413  0.0639
23386W        W39460   2.228  12.809  11.617  0.0100 -0.0542 -0.1596
23387W        W39461  11.777   7.779  14.102  0.0496 -0.0492 -0.2472
23388W        W39462   0.985  18.132  14.653  0.2273  0.1404 -0.3224
23389W        W39463   7.210  17.220  15.482 -0.0487 -0.0358 -0.0400
23390W        W39464  12.340  17.097   0.734  0.0709  0.1041  0.0729
23391W        W39465  14.995  17.960  13.988  0.0895 -0.1598  0.1013
23392W        W39466   8.816  11.492   1.108  0.0589  0.1999 -0.0375
23393W        W39467   9.252   5.773  15.026  0.1050 -0.3888  0.0745
23394W        W39468  18.034   4.638  11.527 -0.1146  0.0596 -0.2199
23395W        W39469  10.549   4.343  15.246 -0.1119 -0.1316  0.0668
23396W        W39470   5.077   7.893  10.872 -0.1461 -0.1458  0.0683
23397W        W39471   4.435   3.890   4.315  0.2340 -0.0500 -0.0623
23398W        W39472  16.907   8.099   1.983  0.0927  0.0540  0.1013
23399W        W39473  11.629   1.657  16.214 -0.2554  0.0470 -0.0052
23400W        W39474   7.833  11.132   2.178  0.1488 -0.2610 -0.2771
23401W        W39475  11.458  17.739  14.421 -0.4792 -0.2966  0.0359
23402W        W39476   3.491  10.412   5.185  0.0983  0.1669 -0.2732
23403W        W39477  12.310  16.372  11.950  0.0932 -0.2198  0.2334
23404W        W39478   5.968  13.549   2.581  0.1062 -0.1094 -0.0666
23405W        W39479  13.098  14.981   5.164 -0.0778 -0.2357  0.4586
23406W        W39480  16.906   2.431   0.972  0.1271 -0.4341 -0.1540
23407W        W39481   6.380   0.328  11.817  0.3492  0.1932  0.1343
23408W        W39482  15.792  16.255  15.767 -0.2287 -0.2208 -0.1497
23409W        W39483   9.205   0.291  13.859 -0.2698 -0.0519 -0.2693
23410W        W39484   1.434   1.414  15.629  0.2147  0.0419 -0.1983
23411W        W39485   8.984  16.876   4.787 -0.5058 -0.1229  0.0325
23412W        W39486  17.023   2.362   4.327 -0.0638 -0.1150 -0.2358
23413W        W39487  12.679  11.249   3.434  0.3246 -0.1091  0.4297
23414W        W39488   2.153  11.053   1.100 -0.2978 -0.3812  0.3035
23415W        W39489   2.436  12.429  15.759 -0.0036 -0.1517 -0.0217
23416W        W39490  16.889   7.458   0.014 -0.3300  0.1026  0.1928
23417W        W39491  14.442  10.982  16.018  0.0689  0.0610 -0.0940
23418W        W39492  18.168  13.023   0.337 -0.0629 -0.0239  0.0893
23419W        W39493   9.730   3.393   0.373 -0.1686 -0.2978 -0.0104
23420W        W39494   9.014   5.893  15.507  0.3113 -0.0376  0.1263
23421W        W39495  15.746   1.142   5.680  0.4437 -0.0625  0.2452
23422W        W39496  10.494   9.077  15.302  0.1634 -0.2697  0.0146
23423W        W39497  10.332  17.054   3.667  0.0449 -0.2920 -0.1406
23424W        W39498   2.469   6.165  12.251  0.1514 -0.0093  0.2976
23425W        W39499   7.877   1.618   4.997  0.0531 -0.1033  0.0573
23426W        W39500   6.260   1.331   1.891  0.0973  0.0584  0.0851
23427W        W39501  12.639   4.732  11.840 -0.0092  0.0273  0.2490
23428W        W39502  11.046   8.960   5.989  0.2801 -0.0254 -0.1321
23429W        W39503  14.820   9.880   1.535  0.0973  0.1014  0.2107
23430W        W39504  10.800   1.992   5.427 -0.2274  0.0872  0.0005
23431W        W39505   7.308   9.143   5.469 -0.3368 -0.1029  0.3512
23432W        W39506   1.480   0.510  11.471  0.3993  0.1827  0.0457
23433W        W39507  12.236  17.516  12.604 -0.0283  0.0921 -0.0075
23434W        W39508  16.881   6.405  11.869  0.0976 -0.2275 -0.0414
23435W        W39509   4.363   2.653  11.131  0.2100  0.4547 -0.5453
23436W        W39510   0.568  15.008  11.836  0.1289 -0.4464  0.1353
23437W        W39511   1.361   6.531  11.151 -0.1419 -0.1985 -0.1778
23438W        W39512  15.279   0.473  13.622  0.0973 -0.1454 -0.0489
23439W        W39513   0.036   4.829   4.121  0.0170 -0.2534 -0.0372
23440W        W39514  17.837   1.829   3.742 -0.1924 -0.0748  0.3093
23441W        W39515  12.883  15.290   2.194 -0.0259 -0.0205 -0.0443
23442W        W39516  15.614   8.634  15.500  0.1425 -0.3484 -0.0489
23443W        W39517   1.535   3.181  11.686  0.4935  0.0465  0.1286
23444W        W39518   5.055  12.744   3.956  0.0415 -0.1528  0.0986
23445W        W39519   2.869   9.070   2.688 -0.1297  0.2933  0.3710
23446W        W39520   2.814   5.083  11.645  0.2484  0.1463 -0.2105
23447W        W39521   5.919   5.211   2.150  0.2806 -0.1569  0.1075
23448W        W39522  10.278  11.272  12.458 -0.3738  0.0079 -0.1271
23449W        W39523  17.455  14.798   1.367  0.0084  0.2030  0.0626
23450W        W39524  13.028   3.890  13.099 -0.1930  0.1366  0.0419
23451W        W39525  12.134  11.339  16.295  0.1449 -0.4138 -0.1293
23452W        W39526  12.993   7.981  13.247 -0.2565  0.0919  0.1828
23453W        W39527  10.860  15.156  10.659 -0.0925 -0.0915 -0.0887
23454W        W39528  15.966   7.231  13.493 -0.0393  0.1484  0.0481
23455W        W39529   8.237   2.004  14.315  0.0655 -0.0199  0.3705
23456W        W39530  16.639  17.600   3.873 -0.1184  0.0773 -0.1310
23457W        W39531  15.877   6.534   2.657  0.3011 -0.1444  0.2238
23458W        W39532   7.193   4.381  14.196 -0.0367  0.1027 -0.1123
23459W        W39533  14.161   6.588  14.034 -0.2881  0.1344  0.0178
23460W        W39534  10.359   5.216  14.690  0.1162 -0.4967 -0.1418
23461W        W39535   5.323  11.622  11.251  0.2597  0.0579 -0.1613
23462W        W39536  10.669  10.201   3.499 -0.0067  0.1025 -0.1483
23463W        W39537  17.026  16.129  14.911  0.0627 -0.0953 -0.0606
23464W        W39538   5.769  10.652  11.476 -0.2972 -0.0389  0.0920
23465W        W39539   1.917  14.620  15.452 -0.0018  0.1197  0.3020
23466W        W39540   7.548   2.766  11.674  0.0917  0.0749  0.0000
23467W        W39541   8.220  15.332   1.542 -0.2348 -0.1288 -0.2154
23468W        W39542   7.983   9.945   0.102 -0.0900  0.0976 -0.0181
23469W        W39543   7.808   7.794   5.150  0.0320 -0.0538  0.3963
23470W        W39544   6.288   8.999  12.694  0.0962 -0.0694 -0.1420
23471W        W39545  17.669  11.623   5.683  0.2591 -0.1568  0.3791
23472W        W39546   6.815  17.394  12.452 -0.0994  0.1314 -0.3215
23473W        W39547  15.422   6.942  14.954  0.1393 -0.0476 -0.3095
23474W        W39548   8.405   7.296   1.812 -0.1338 -0.2811 -0.0452
23475W        W39549  13.659   0.177  15.678 -0.1411 -0.3210 -0.0970
23476W        W39550  16.819   1.860  13.664  0.0146 -0.2140  0.2643
23477W        W39551  17.444   8.433  15.416  0.2159  0.0264  0.0695
23478W        W39552   4.116   6.233   4.816  0.1326  0.2587 -0.1975
23479W        W39553  13.253   9.405  12.631  0.2139  0.0643 -0.0026
23480W        W39554  14.905  10.065  12.740 -0.4434 -0.0349 -0.2834
23481W        W39555   2.321   5.108  15.999  0.1528 -0.0717 -0.0138
23482W        W39556   7.255   8.117  12.047  0.4141  0.2989  0.0715
23483W        W39557   4.550   7.458   0.749  0.2479 -0.1437 -0.2438
23484W        W39558  14.395   4.752   3.578 -0.1537 -0.0737 -0.0221
23485W        W39559  12.048   9.667  15.543  0.2970  0.1969 -0.0163
23486W        W39560   5.566   2.029  16.122  0.2044  0.2455 -0.0911
23487W        W39561   5.875  13.286  14.770 -0.5417 -0.1696 -0.1365
23488W        W39562  15.172   3.818   0.620  0.0054 -0.3031  0.2978
23489W        W39563   6.705  16.389   4.350 -0.0278 -0.1308 -0.1359
23490W        W39564  18.112   7.750   3.277 -0.2173 -0.2242  0.0481
23491W        W39565  13.945  14.668   0.552 -0.0209  0.2169  0.2272
23492W        W39566   9.526  12.755   4.293  0.1952  0.3835 -0.1057
23493W        W39567   6.188  10.762   3.662 -0.1755  0.0894  0.2997
23494W        W39568   8.711   5.198   5.779  0.1029 -0.0973  0.0775
23495W        W39569  16.160   3.347  11.769 -0.0076  0.1396  0.0190
23496W        W39570  16.718  15.759  12.667  0.0410 -0.2986  0.0235
23497W        W39571  15.208  16.172   5.934  0.0596 -0.0916 -0.2190
23498W        W39572  14.183   6.308   0.171  0.1429  0.0917  0.0933
23499W        W39573  17.267   4.256  14.770 -0.1933 -0.3987  0.0183
23500W        W39574   6.773  17.144   6.627  0.2562  0.0180  0.1070
23501W        W39575  13.315  12.488   4.412  0.0482 -0.1606  0.2964
23502W        W39576   8.010  10.066   5.120  0.1840 -0.2792  0.3376
23503W        W39577   1.649  18.062   9.852 -0.2416  0.0894 -0.0210
23504W        W39578   2.515   6.734  16.322  0.2322 -0.0042 -0.0644
23505W        W39579   0.152   2.776  12.260  0.3249 -0.0098  0.2386
23506W        W39580   3.173  17.374   3.175 -0.0614  0.3934  0.2606
23507W        W39581  12.254   8.308   4.245 -0.0015  0.2512 -0.2562
23508W        W39582   1.597   5.200   4.968  0.0837 -0.0449 -0.1538
23509W        W39583  15.328   0.209  11.710  0.0153 -0.0178  0.0144
23510W        W39584   9.719  16.666   2.985  0.0046  0.0478  0.1996
23511W        W39585  14.821   7.650  12.952 -0.0779 -0.1112  0.0997
23512W        W39586   8.902   0.735   1.833 -0.3542 -0.0716 -0.3674
23513W        W39587   2.848   4.662  14.810 -0.2451  0.0957  0.2205
23514W        W39588   5.744   5.764  13.285 -0.0823  0.2909 -0.0626
23515W        W39589   1.429  16.915  10.860  0.0184  0.0087 -0.2134
23516W        W39590  10.588   0.677  16.218 -0.1440 -0.0885  0.0345
23517W        W39591  12.144  15.878   0.175 -0.1281 -0.2683 -0.2872
23518W        W39592   2.780  15.882  13.440 -0.1733 -0.0904 -0.3325
23519W        W39593   7.738   9.365  15.215  0.1081  0.0008  0.1257
23520W        W39594   3.912   7.966  11.295  0.0541 -0.3025  0.1337
23521W        W39595   9.167  13.087  15.994 -0.1228  0.0859  0.0730
23522W        W39596   6.601  17.808  14.440 -0.2096  0.1291 -0.2597
23523W        W39597   9.104  13.342   3.264  0.1929  0.2879  0.1724
23524W        W39598   7.705  15.943  12.746  0.0265  0.1675  0.1394
23525W        W39599  15.328  16.997  15.633  0.2028  0.0219 -0.2126
23526W        W39600   0.106  10.655   1.368  0.1309  0.0215 -0.0416
23527W        W39601   1.866  10.730  14.802  0.0442  0.2870  0.1139
23528W        W39602   5.197  17.230  14.883  0.0025  0.3848  0.2282
23529W        W39603   2.223   9.360  14.274 -0.2844 -0.0199 -0.2552
23530W        W39604  10.543  12.126   3.674 -0.0576 -0.1511 -0.2009
23531W        W39605   5.245  11.665  16.345  0.1271  0.1968 -0.1508
23532W        W39606  14.644  10.608  14.831 -0.1188  0.1431 -0.0455
23533W        W39607   3.629  10.468  11.831  0.1705  0.0886 -0.2571
23534W        W39608  17.306   0.149  11.336 -0.4317 -0.0095  0.0836
23535W        W39609   0.693  10.620   2.864 -0.1817  0.1156  0.1518
23536W        W39610   2.212  12.968   0.247 -0.1043  0.1363  0.1052
23537W        W39611  12.134   9.633   2.576 -0.1722  0.1379  0.4694
23538W        W39612   5.717   7.818  16.114 -0.0759  0.1398 -0.1609
23539W        W39613   7.612  15.607   3.272  0.0431 -0.1660 -0.2315
23540W        W39614   7.592  18.052  14.467 -0.1811  0.1035 -0.1363
23541W        W39615  15.895  17.902  12.583  0.1693 -0.0792  0.0661
23542W        W39616   9.171  16.891  14.047  0.0331  0.1326 -0.1431
23543W        W39617  10.943   6.429   1.638 -0.0936 -0.0670  0.2810
23544W        W39618   3.682  16.308  15.146  0.1252  0.0588  0.0892
23545W        W39619   6.782   5.339  11.504 -0.1380 -0.1857 -0.0292
23546W        W39620   4.120   6.552  11.808 -0.1828 -0.0016 -0.0032
23547W        W39621   5.069   9.303   5.016  0.0909 -0.2578 -0.0455
23548W        W39622  17.516  18.077   1.438  0.2861  0.1370  0.1520
23549W        W39623   0.851   9.101  13.504 -0.0189  0.3488  0.2037
23550W        W39624   2.698   7.144  13.453 -0.2026  0.1943 -0.2565
23551W        W39625  15.110  15.545   4.539 -0.2577  0.1144 -0.0070
23552W        W39626  10.055  11.502  16.348 -0.0964  0.0339 -0.1515
23553W        W39627  15.167   0.802   3.176 -0.0642  0.0365 -0.1133
23554W        W39628   4.939  13.423   1.748  0.1633  0.0875  0.0568
23555W        W39629   8.216  16.038   6.248 -0.0684 -0.2487 -0.1503
23556W        W39630  14.749   5.352  13.554 -0.2829 -0.0301 -0.2676
23557W        W39631   3.082  16.644  15.805  0.0359 -0.2038 -0.0983
23558W        W39632  14.145   5.583  14.148 -0.0237  0.0633 -0.0890
23559W        W39633   1.985   3.340   0.410  0.0295 -0.3720  0.0197
23560W        W39634   2.938   8.857  14.751  0.0920 -0.0623 -0.4706
23561W        W39635  17.046  15.539   3.612  0.0008 -0.2071 -0.0729
23562W        W39636  15.233  14.679  13.134  0.1472 -0.0621 -0.1455
23563W        W39637  10.192   4.805  13.624 -0.2227 -0.4677  0.1343
23564W        W39638   8.182  17.107  15.816 -0.1373 -0.2412 -0.0923
23565W        W39639   8.095   1.289   4.080  0.2979 -0.1263  0.3525
23566W        W39640   9.987  14.326   0.875  0.1338 -0.0713  0.2586
23567W        W39641  16.677  17.046   4.676  0.2038 -0.0533  0.1701
23568W        W39642   3.993  17.417  12.465 -0.0470  0.2100  0.1538
23569W        W39643   3.521   7.202   2.444  0.1217 -0.1736 -0.0288
23570W        W39644   0.906   6.556  11.466 -0.0629  0.1306 -0.2942
23571W        W39645  17.611   1.605  11.477 -0.2139 -0.1177  0.2906
23572W        W39646  15.214   6.067  13.142  0.0260 -0.4102  0.3315
23573W        W39647   8.793  18.035   5.298  0.0084 -0.0397 -0.0462
23574W        W39648   3.224  15.884   0.791 -0.0086 -0.1403  0.0432
23575W        W39649  11.175  18.087   3.960  0.0683 -0.1023  0.1806
23576W        W39650  13.989   6.588  15.834 -0.2431 -0.2238  0.0856
23577W        W39651   8.616  11.212  11.865 -0.2849  0.0392 -0.1009
23578W        W39652  13.219   9.173   3.573  0.1770  0.1158  0.1403
23579W        W39653   3.825   6.221   2.415 -0.3467  0.2821  0.2146
23580W        W39654   4.156  13.352  14.905 -0.0820 -0.1625 -0.0024
23581W        W39655   6.219  17.436  15.435 -0.2298  0.1085  0.4181
23582W        W39656   4.598   1.825  11.349  0.0922 -0.3080 -0.0557
23583W        W39657   2.718   3.557  16.090 -0.0939  0.0528 -0.0287
23584W        W39658   6.052   3.325   0.403 -0.1996  0.5326 -0.2097
23585W        W39659   3.608  16.488  14.377  0.0157 -0.2777  0.3396
23586W        W39660   1.154  13.390  15.277 -0.1727 -0.1491  0.2214
23587W        W39661  11.022   0.604  14.421 -0.0929 -0.2773  0.0550
23588W        W39662   4.612   4.025  14.842 -0.0068  0.2657 -0.1767
23589W        W39663   6.749   9.560  14.641 -0.2201  0.0975 -0.0857
23590W        W39664   9.720  10.955  15.615 -0.1736 -0.0839 -0.3638
23591W        W39665  14.735   0.141  14.798 -0.1582 -0.2272 -0.0527
23592W        W39666  17.363   8.861  15.128 -0.1414 -0.0589 -0.1823
23593W        W39667  12.352   1.172   0.783 -0.2499  0.0378 -0.1205
23594W        W39668   0.266   1.807  16.251 -0.2072 -0.2014 -0.0933
23595W        W39669   2.163   8.736  12.862 -0.2924  0.0002 -0.0902
23596W        W39670   4.451   3.864  15.499  0.0261  0.3684  0.1308
23597W        W39671  10.108   7.790   5.407 -0.6801  0.0077 -0.0145
23598W        W39672  12.437   8.395  13.310  0.0642 -0.1217 -0.0892
23599W        W39673   1.334  11.206   2.987  0.0277 -0.2948  0.1160
23600W        W39674  10.736  10.664  11.245 -0.1135  0.1159  0.0132
23601W        W39675  18.108  13.101   1.806 -0.2146 -0.1200  0.2053
23602W        W39676   5.474  15.059  11.632 -0.0725 -0.0063  0.2840
23603W        W39677   0.254   3.226  14.493 -0.1066  0.0214 -0.0377
23604W        W39678   6.314   9.626  15.199 -0.1335  0.0441 -0.2083
23605W        W39679   1.909  12.018  10.197  0.0729 -0.0582  0.2798
23606W        W39680   8.574   3.499  11.907  0.1096  0.0577 -0.0407
23607W        W39681   4.810   6.227   1.521  0.1165 -0.1905  0.0560
23608W        W39682   6.436   6.632   1.845  0.0852  0.0628  0.0166
23609W        W39683  15.638   5.527   4.358 -0.0059 -0.1113  0.2505
23610W        W39684   0.575   3.757   3.638 -0.1349 -0.1763 -0.3366
23611W        W39685  14.664   7.169   3.520 -0.2121 -0.0225 -0.1226
23612W        W39686  17.903  10.704  12.862 -0.2018 -0.2824  0.2845
23613W        W39687  13.226  13.406  12.502 -0.1760 -0.0033 -0.2931
23614W        W39688  10.571  11.207   5.421  0.1140  0.1814 -0.0020
23615W        W39689  15.545  13.527  12.107 -0.1331 -0.1094 -0.0775
23616W        W39690   6.162  16.652  14.299  0.0504  0.4548 -0.2431
23617W        W39691   1.520   6.984  12.792  0.2984 -0.3112 -0.0748
23618W        W39692  13.093  16.300  16.128 -0.1249  0.0872  0.1504
23619W        W39693  13.626   1.035   0.253  0.0380  0.1673 -0.0899
23620W        W39694   5.643   2.860   4.935 -0.0072  0.1219 -0.0965
23621W        W39695   1.227   4.016  15.989  0.2560  0.0517  0.1322
23622W        W39696  10.064   1.344  13.150 -0.2075  0.1673  0.2794
23623W        W39697  16.599   1.710   2.614 -0.1811 -0.2076  0.3758
23624W        W39698  10.928  14.284  13.102 -0.0537 -0.0179  0.1405
23625W        W39699  10.017   9.993   2.278  0.1309 -0.0561 -0.2289
23626W        W39700  16.191   5.126   5.576  0.0480  0.2043 -0.0449
23627W        W39701  10.523  10.144   1.531 -0.0609 -0.1484 -0.1647
23628W        W39702  14.413   0.587  10.697 -0.1514 -0.2136  0.1646
23629W        W39703  10.929   6.265   4.773 -0.4032  0.1263 -0.1494
23630W        W39704  17.893   4.982  13.047 -0.4097  0.2066 -0.2166
23631W        W39705  15.179   0.561   1.118  0.0828 -0.0376  0.0113
23632W        W39706  12.524   4.849  13.999 -0.0536  0.0665  0.0664
23633W        W39707   3.316   5.839  14.157  0.1127  0.1209  0.0193
23634W        W39708  15.651  11.402   4.342  0.0969 -0.1713 -0.2891
23635W        W39709   3.263   1.946  11.159  0.1094  0.2305  0.0411
23636W        W39710   1.747   4.766   4.837 -0.0774 -0.1765  0.0135
23637W        W39711   3.139  12.208  10.832 -0.0878 -0.0275 -0.0470
23638W        W39712   3.903  14.789  11.465  0.0640 -0.1543  0.2598
23639W        W39713  17.506  12.946  14.824 -0.1690 -0.3061  0.0971
23640W        W39714  12.705  12.764   2.786  0.2351  0.1297  0.1526
23641W        W39715  15.051   3.087   4.550 -0.0141  0.1829  0.2096
23642W        W39716  16.037   2.426   2.178  0.0158  0.0328 -0.1747
23643W        W39717  10.399   8.047  11.692 -0.1972  0.0164  0.2805
23644W        W39718   1.672   9.458   5.375  0.3628  0.2222 -0.2406
23645W        W39719   4.797  15.983   5.053 -0.1682 -0.0367 -0.0246
23646W        W39720  13.645  15.042   3.874 -0.2193  0.0584  0.3484
23647W        W39721  16.614   1.402   4.590  0.0410 -0.0548 -0.2227
23648W        W39722  16.355  14.831   4.389  0.0649  0.0551  0.1594
23649W        W39723  10.535   3.382  15.189 -0.1576 -0.2913  0.3234
23650W        W39724  12.517  14.224  12.504 -0.0933  0.1078 -0.0964
23651W        W39725  11.373   3.149  14.121  0.1205 -0.1341 -0.0079
23652W        W39726   5.772   8.777  11.019  0.2546 -0.0201 -0.1502
23653W        W39727  10.017  11.014   4.125 -0.3607 -0.1320 -0.4499
23654W        W39728   6.545  16.418   3.230 -0.0141  0.1211  0.2387
23655W        W39729   6.573  12.644   5.470  0.1654 -0.2150  0.2252
23656W        W39730   1.511   0.357  15.569  0.0981 -0.0751 -0.2234
23657W        W39731  12.122  15.428  15.466  0.1050  0.0836 -0.0313
23658W        W39732   8.597   8.281  15.965  0.1290  0.0364 -0.3335
23659W        W39733   8.737  12.291   3.770 -0.0843 -0.2187  0.0051
23660W        W39734   7.133  12.618   1.619  0.2459 -0.2024 -0.0936
23661W        W39735  14.602   6.889   4.421 -0.1547  0.2710  0.0753
23662W        W39736   2.792   6.895   5.830  0.0118  0.1595 -0.0607
23663W        W39737   5.207   8.172  11.554  0.1633  0.0945 -0.1132
23664W        W39738   7.253   2.167   4.155 -0.1719  0.2041  0.0302
23665W        W39739  12.744   7.285  14.175  0.0438 -0.1703 -0.0281
23666W        W39740   8.151  12.910  12.178  0.3151 -0.3274 -0.3388
23667W        W39741  12.480   9.222  10.071  0.1020  0.1593 -0.0135
23668W        W39742   8.041   8.140  14.785  0.0720 -0.1933  0.1242
23669W        W39743  10.953   6.872   2.810  0.0375  0.1175  0.0065
23670W        W39744   8.758  16.329   0.226  0.1996 -0.0398 -0.0915
23671W        W39745   8.725   9.332  15.455  0.0913 -0.1019  0.1118
23672W        W39746  11.115   0.586  16.173  0.0717 -0.0292  0.6058
23673W        W39747   1.281   6.326   3.311  0.1265  0.2444 -0.3854
23674W        W39748  11.703   0.436   2.239 -0.1580  0.4223  0.0495
23675W        W39749   2.349   1.890  15.400 -0.0218 -0.0031 -0.0739
23676W        W39750  14.539  10.573   4.177 -0.3441  0.1859  0.0210
23677W        W39751   2.793  10.474   0.036  0.1163  0.0356 -0.1808
23678W        W39752   3.077   6.273   1.621  0.0520 -0.0005 -0.0229
23679W        W39753   5.073  10.734   2.323  0.0403  0.1525  0.1163
23680W        W39754  15.916   0.870  12.321  0.0493 -0.2077 -0.0777
23681W        W39755  10.791  18.112  15.160 -0.3076  0.0547  0.0727
23682W        W39756   9.592  15.125   5.874 -0.0277 -0.2471 -0.0345
23683W        W39757  10.366  14.271   2.805  0.0226  0.0188 -0.0481
23684W        W39758  16.669  11.491  16.121  0.0005  0.0159 -0.1828
23685W        W39759   4.423  14.727  11.581  0.0144  0.0678 -0.0062
23686W        W39760  18.016  17.969   1.521  0.3255  0.0614  0.0230
23687W        W39761   0.521  14.728   4.234 -0.0658 -0.3043  0.1225
23688W        W39762   9.076   2.031  16.207 -0.0109  0.2041  0.0081
23689W        W39763   8.924  11.118   3.248  0.3451  0.1771 -0.2093
23690W        W39764  17.724   4.192  11.392 -0.3075  0.0918  0.3379
23691W        W39765  12.778  10.761   4.806  0.3194  0.2384  0.2097
23692W        W39766  15.229   2.233  16.015  0.1317  0.2637  0.0195
23693W        W39767   6.061  11.040  14.215  0.0891  0.0800 -0.3745
23694W        W39768  13.524  17.958   0.230  0.0905 -0.1605 -0.0221
23695W        W39769  16.219  12.082  15.505 -0.2482  0.1718  0.0687
23696W        W39770  11.604   1.627   4.387 -0.2529  0.0897 -0.0392
23697W        W39771  17.263  17.024   2.955 -0.0100  0.1259  0.1543
23698W        W39772  17.610   2.526  13.628  0.1461  0.1120 -0.0509
23699W        W39773   5.312  14.900   0.223  0.4057 -0.1885 -0.2545
23700W        W39774  11.490  16.092  11.603 -0.0048  0.1280  0.0886
23701W        W39775  17.123  10.273   0.179 -0.0017  0.3012  0.1810
23702W        W39776   6.707   4.576  13.146  0.3776 -0.1687 -0.0536
23703W        W39777   7.709   7.720   1.629 -0.1320 -0.2787 -0.2327
23704W        W39778   0.341  15.909  12.023 -0.1089 -0.0013  0.1300
23705W        W39779  15.005  12.183  11.861  0.0485  0.2088  0.2437
23706W        W39780   0.029   0.163   0.250 -0.0404  0.0906  0.4081
23707W        W39781   8.778  12.384  12.821  0.1661  0.0376 -0.0375
23708W        W39782   5.777  11.242  11.544 -0.1008 -0.3191  0.0337
23709W        W39783  10.778  17.656   1.089 -0.0284  0.1920 -0.0413
23710W        W39784  11.194   0.799  13.477 -0.0372 -0.2592  0.1163
23711W        W39785   3.896   2.955   1.018 -0.1220  0.0518  0.0454
23712W        W39786   2.315   1.452   5.206 -0.1632  0.1945 -0.2568
23713W        W39787   4.307   9.367   2.128  0.0260  0.0554 -0.0591
23714W        W39788   8.068   1.572   1.855  0.5252  0.1111 -0.0403
23715W        W39789  10.198  13.172   0.585 -0.0457  0.0918 -0.2923
23716W        W39790   9.650   5.778  16.170  0.1317 -0.2780 -0.0931
23717W        W39791   5.178   2.082  14.955 -0.3247 -0.1841  0.3358
23718W        W39792  17.551   9.883   0.256  0.2637 -0.1170  0.0642
23719W        W39793  10.256  17.112   0.372  0.1095 -0.1278 -0.3065
23720W        W39794   5.674   5.933   3.865  0.1066  0.1529 -0.3890
23721W        W39795   5.272  17.561  16.025  0.1602 -0.0084 -0.2292
23722W        W39796  17.590   1.092  11.584  0.1032  0.0982 -0.2066
23723W        W39797   0.641   6.235  14.429 -0.0076 -0.0419  0.2152
23724W        W39798   7.616   1.354  14.206 -0.0540 -0.3626 -0.1436
23725W        W39799   3.706  15.224   4.940 -0.0156 -0.5541  0.4273
23726W        W39800   1.268  11.722  14.290 -0.2221  0.2367 -0.2260
23727W        W39801   6.533  12.389   0.753 -0.0805  0.1741 -0.4569
23728W        W39802   5.790   3.950  14.385  0.0925 -0.0846  0.0338
23729W        W39803  11.225  17.159   4.818 -0.1073  0.3497  0.0986
23730W        W39804   9.376  14.138  11.610  0.0035  0.1602  0.0020
23731W        W39805   5.254  15.279  14.025 -0.3526 -0.1104  0.0106
23732W        W39806   1.109   3.886   3.423 -0.1235  0.0340 -0.1394
23733W        W39807   1.385  10.918  11.696 -0.0957  0.1894  0.2252
23734W        W39808   1.158  16.641  13.497  0.1069 -0.0223 -0.0196
23735W        W39809   7.907  16.208   3.240 -0.2186 -0.0909 -0.4648
23736W        W39810   8.109   0.654   1.362 -0.1804 -0.0958 -0.4480
23737W        W39811  13.945   0.252  16.097 -0.2755 -0.1337  0.1659
23738W        W39812   9.663   6.730   3.306  0.1565  0.0926  0.0404
23739W        W39813  14.007  10.731   4.736  0.1331  0.0380  0.2941
23740W        W39814   8.694   0.156   3.518 -0.2771  0.0036 -0.0382
23741W        W39815   6.548   8.491  15.508  0.0380  0.1723  0.0014
23742W        W39816   2.524   8.814   1.463 -0.2188 -0.0633  0.2661
23743W        W39817   1.642   7.211   1.999 -0.1217  0.3434  0.4014
23744W        W39818   7.427   4.551   4.818  0.2641  0.3695 -0.0302
23745W        W39819   7.110   9.965   0.120  0.4396  0.0462 -0.2472
23746W        W39820  11.148   2.051  12.715  0.2649  0.0799  0.4261
23747W        W39821   1.300   1.871   4.941 -0.1115  0.1432 -0.0928
23748W        W39822   7.083   1.746   1.639  0.2074 -0.2327 -0.1922
23749W        W39823   0.819  15.742  15.917  0.1451 -0.0334  0.0620
23750W        W39824  13.722   2.667   1.077  0.2796 -0.1945 -0.2563
23751W        W39825   5.863   1.608   0.738  0.0475 -0.0843  0.1470
23752W        W39826   0.550  10.873  13.033 -0.1166 -0.2461  0.1976
23753W        W39827   8.901   1.418  15.667 -0.0566 -0.0310  0.3170
23754W        W39828  10.483   6.296  15.136 -0.1302  0.2141 -0.0861
23755W        W39829   8.743   1.120  15.212  0.1369  0.2012 -0.2811
23756W        W39830   5.080  15.794  12.613  0.5191  0.1244 -0.1782
23757W        W39831  14.417  10.124  13.477  0.1270  0.3911 -0.1860
23758W        W39832   7.270  10.217   2.178 -0.2122 -0.2981  0.3182
23759W        W39833  13.892  16.189   2.186 -0.1135  0.1503 -0.0306
23760W        W39834  14.137  15.422  14.266 -0.1766  0.3031  0.4453
23761W        W39835   7.401   7.619   3.256 -0.0394 -0.1793  0.1368
23762W        W39836   9.898   2.300  12.662  0.0192  0.0109 -0.0032
23763W        W39837  15.933  12.345  10.869  0.2671 -0.0993 -0.5474
23764W        W39838  17.184   3.732   0.563  0.3627  0.0600 -0.0873
23765W        W39839   0.522  10.963  12.495  0.1808  0.1067 -0.0289
23766W        W39840   5.766   2.401   3.740 -0.1282 -0.4155  0.0059
23767W        W39841  11.758  11.472  15.122  0.2085 -0.1601  0.0157
23768W        W39842   9.464  11.049   0.316  0.1508  0.1706  0.3097
23769W        W39843  12.239   0.127  13.935  0.1726 -0.1369  0.0217
23770W        W39844  11.332  13.230   3.649  0.1681  0.0635 -0.0216
23771W        W39845   1.870   2.207  14.605  0.1392  0.1486 -0.0599
23772W        W39846   9.332   5.128  11.562  0.0937  0.2069  0.0879
23773W        W39847  11.490   3.848   3.608  0.0914  0.0161 -0.1380
23774W        W39848  17.171   2.845   4.512  0.0270 -0.2249  0.1828
23775W        W39849   1.827  14.468   3.576 -0.1140  0.0310  0.2814
23776W        W39850   3.019  15.534   5.454 -0.0894 -0.1510  0.1025
23777W        W39851   9.693   2.882   5.115  0.2932 -0.3342  0.2792
23778W        W39852   4.685   0.930  12.358  0.0283 -0.2143 -0.2861
23779W        W39853  14.977   7.247   2.187  0.2479 -0.2553 -0.1083
23780W        W39854   4.889  13.337  14.792  0.2736 -0.2119 -0.0093
23781W        W39855  11.856   4.624   0.828  0.1241 -0.1360  0.0004
23782W        W39856   5.988   7.196   1.779 -0.0506  0.1418 -0.1283
23783W        W39857  16.048   8.687   1.371 -0.0334 -0.0071 -0.3541
23784W        W39858   4.597  12.465  12.125  0.0235  0.4042  0.4658
23785W        W39859  10.121   5.964  14.501  0.5887  0.1293  0.2319
23786W        W39860   4.425   2.044   5.782  0.2347  0.3157 -0.0729
23787W        W39861  16.006   3.770   3.257  0.3507 -0.2767  0.0610
23788W        W39862   9.307   3.714  11.742  0.2372 -0.0151 -0.1382
23789W        W39863   5.662  17.219   6.624 -0.2574 -0.0603  0.1413
23790W        W39864  11.930   7.895  13.184 -0.2563 -0.0870  0.0700
23791W        W39865  13.617   8.083  16.117 -0.1058 -0.2532 -0.2225
23792W        W39866   2.693  11.824  14.425 -0.0198 -0.4277  0.1135
23793W        W39867   3.493  18.198   4.356 -0.0160  0.2084 -0.2605
23794W        W39868  12.807  15.772   3.397 -0.0231  0.1057 -0.1853
23795W        W39869  16.602   2.965   3.642 -0.2886  0.0786 -0.0021
23796W        W39870  11.010  15.994  13.286  0.0219 -0.1817 -0.2230
23797W        W39871   6.034   2.131  14.841  0.1183 -0.0491 -0.1449
23798W        W39872  18.060  12.144   4.554  0.1868  0.1610 -0.1226
23799W        W39873  17.716   6.211  12.412 -0.4452  0.0296 -0.1588
23800W        W39874  10.191  10.977   2.005 -0.0018  0.2914  0.5664
23801W        W39875   3.238  11.683  13.188  0.1574  0.2032  0.1777
23802W        W39876   9.945  10.573   2.188 -0.0440 -0.0718 -0.1368
23803W        W39877  15.118  14.456  16.398 -0.0706  0.0702  0.0634
23804W        W39878  17.732   6.729   4.375  0.1589  0.0405  0.0980
23805W        W39879   8.299   3.879  13.725 -0.4791  0.4589  0.0796
23806W        W39880  18.038   3.597   3.944  0.0407  0.2340 -0.0790
23807W        W39881   4.096   5.869  14.720  0.2004 -0.2819  0.0357
23808W        W39882  14.857  11.446   1.510  0.0241  0.0526  0.3315
23809W        W39883   9.185  14.643   0.602  0.4117  0.0485 -0.1526
23810W        W39884  10.858   8.176  14.336 -0.0742  0.3088 -0.0368
23811W        W39885  13.269   3.568  14.057  0.0734 -0.0767  0.1097
23812W        W39886  16.654  12.936  14.247 -0.1232 -0.3336 -0.0990
23813W        W39887   7.365   8.283   5.837  0.0263 -0.1249 -0.1085
23814W        W39888   8.785   3.466   6.522  0.4553  0.1247  0.2224
23815W        W39889   6.863   9.963  15.853  0.0066  0.0769  0.0058
23816W        W39890  12.538  11.605   2.138  0.0453  0.1295  0.2294
23817W        W39891  10.842  14.880  16.079 -0.0225 -0.2351 -0.1153
23818W        W39892  16.751  14.043   4.014  0.2900  0.1054  0.2433
23819W        W39893  11.159   4.285   2.281  0.2646 -0.1455  0.0231
23820W        W39894   9.149   2.082   5.194 -0.1721 -0.1808  0.0518
23821W        W39895   2.807   2.778   1.584  0.3508  0.3360  0.0934
23822W        W39896   0.040  16.450  12.390 -0.2144 -0.1248  0.0995
23823W        W39897  17.940   7.990   0.055 -0.4187  0.2381 -0.4458
23824W        W39898   2.515  14.755   5.344 -0.1717 -0.2432  0.2466
23825W        W39899   9.231  10.398   5.068  0.0128 -0.1047  0.0364
23826W        W39900   5.047  15.663   1.911 -0.2060 -0.0597  0.0025
23827W        W39901  10.561  14.627  13.879 -0.2004  0.0213 -0.0543
23828W        W39902  18.192   0.555   3.750 -0.0707 -0.0531  0.2358
23829W        W39903   0.832   9.460  15.522  0.1869 -0.0195  0.2857
23830W        W39904   7.282   9.397   2.698  0.1033  0.0142 -0.2150
23831W        W39905   8.690  12.955  12.270 -0.0739 -0.0451 -0.3074
23832W        W39906  12.842   1.156   1.119 -0.2268  0.0498  0.1039
23833W        W39907  13.387   0.665  14.403  0.1274 -0.2354 -0.3069
23834W        W39908   1.334  17.571  14.170  0.1563  0.0984  0.0907
23835W        W39909  15.823  12.445  15.645  0.0332 -0.4269  0.1587
23836W        W39910  13.698  15.983  15.077 -0.1558  0.0518 -0.2935
23837W        W39911   1.376   6.347  14.739 -0.3218  0.0875 -0.0410
23838W        W39912   8.073  10.004  11.952  0.2807 -0.2242 -0.1562
23839W        W39913   0.979   5.534  11.753 -0.0590  0.0826  0.3016
23840W        W39914  11.144  12.636   4.972  0.0608 -0.1156  0.2774
23841W        W39915   5.230  14.027   1.621 -0.1849  0.1586 -0.0054
23842W        W39916  14.456  14.651   0.157 -0.0322  0.0357  0.0930
23843W        W39917   7.495  14.948  14.649 -0.0218  0.0037 -0.1551
23844W        W39918   0.014  12.561   1.802  0.2665 -0.2050 -0.0948
23845W        W39919   9.210   2.988   2.529  0.1262 -0.0967  0.4333
23846W        W39920  15.307  10.029   2.669 -0.0116  0.0595 -0.0360
23847W        W39921   8.754   0.053  16.000  0.1286  0.0682 -0.1838
23848W        W39922  14.632   7.374  12.134  0.0637  0.0622 -0.0958
23849W        W39923  16.048   3.742   2.388 -0.0141  0.2600  0.1209
23850W        W39924  10.388  16.491   3.733  0.0078  0.0457  0.0383
23851W        W39925   5.378   6.287   4.729  0.4779 -0.0299  0.1322
23852W        W39926   5.912  10.000   4.366 -0.2237  0.4738 -0.0662
23853W        W39927  14.974   3.992  11.717  0.0276 -0.2298  0.2362
23854W        W39928   2.171  14.692   2.029  0.1008  0.2456 -0.0090
23855W        W39929  11.468  15.777   2.680 -0.3241  0.5599  0.1070
23856W        W39930   9.813  17.220   4.134  0.0153 -0.1612  0.0419
23857W        W39931  10.653   1.641  15.731 -0.0583 -0.0943  0.2762
23858W        W39932   7.021   3.413   1.716 -0.0246 -0.1400 -0.2456
23859W        W39933   1.305   3.597  11.413  0.0237 -0.0895 -0.2050
23860W        W39934  10.206  16.408   4.762 -0.0031 -0.0661  0.2512
23861W        W39935  15.808   2.916   5.111 -0.0487  0.2626  0.2834
23862W        W39936  16.112  11.122  14.016 -0.0322 -0.1856  0.2063
23863W        W39937   7.865  14.440   5.290 -0.4189  0.2326  0.1129
23864W        W39938   0.454   2.936   1.526 -0.1454  0.1761 -0.0300
23865W        W39939  11.817  14.548   3.827 -0.0574  0.1406 -0.1001
23866W        W39940  16.551   8.281  14.057 -0.2070  0.3160 -0.1257
23867W        W39941  16.067  11.799  12.498  0.0986  0.3096  0.1955
23868W        W39942  17.547  14.892   4.630  0.3499 -0.3773 -0.0590
23869W        W39943   0.451  16.690  12.479 -0.3875 -0.3142  0.0299
23870W        W39944  17.151   5.922   3.884  0.1658 -0.1799 -0.0118
23871W        W39945  16.043   9.514   3.514 -0.0705  0.3485  0.1165
23872W        W39946  14.252  15.686   4.562  0.1769  0.0070 -0.6313
23873W        W39947   2.521  10.491   5.046  0.0877 -0.1038  0.1734
23874W        W39948   1.219  17.263   3.183  0.1377 -0.0579 -0.0321
23875W        W39949   5.497   0.532   6.552 -0.0162  0.0532  0.1100
23876W        W39950  14.934   8.216  15.964  0.2482  0.0336  0.0845
23877W        W39951   6.667  10.232  15.447 -0.0561 -0.2112  0.0462
23878W        W39952   9.112   7.672   1.065  0.1092 -0.3590  0.1896
23879W        W39953  15.313  12.548  13.022  0.2285  0.0366 -0.2214
23880W        W39954  17.474  11.173  15.201 -0.4310 -0.3194 -0.2525
23881W        W39955  18.052  17.015   1.233  0.2458 -0.1044 -0.1437
23882W        W39956  10.383  14.378  15.332  0.1156 -0.1911  0.1156
23883W        W39957   8.140   4.564   1.937  0.1060 -0.3296 -0.1979
23884W        W39958  17.149   7.766   2.284 -0.1580  0.1516  0.0594
23885W        W39959  15.352  12.686   3.206  0.5704 -0.0205 -0.1749
23886W        W39960   5.448  15.341   1.581 -0.0298 -0.0610  0.3271
23887W        W39961   7.793   8.480   4.247  0.1303 -0.2931  0.2999
23888W        W39962   7.436   5.072   5.549  0.1406  0.1024 -0.2455
23889W        W39963  10.816   4.018  13.272 -0.1526 -0.1258  0.3005
23890W        W39964   2.790  14.783   0.669 -0.0546  0.1077  0.0540
23891W        W39965   1.656   5.627  13.065 -0.2847  0.0531 -0.1499
23892W        W39966  16.552   0.576   5.229 -0.2015 -0.0022 -0.0213
23893W        W39967   0.424   6.617   0.887  0.1723 -0.1163  0.4075
23894W        W39968   7.463  15.482   2.653 -0.0411 -0.1948 -0.0176
23895W        W39969   9.822   4.962  11.582  0.0429  0.1391  0.0902
23896W        W39970  12.573   9.927   0.045  0.1178 -0.0133 -0.0498
23897W        W39971  14.326   3.785  13.271  0.2417  0.2102 -0.3919
23898W        W39972   4.673   2.295   3.768  0.0778 -0.0098 -0.0041
23899W        W39973   7.800   4.193  11.981  0.3470  0.0480  0.4119
23900W        W39974   0.381   2.911   0.948  0.0635  0.1169 -0.0530
23901W        W39975   0.156  17.232   5.051  0.3314 -0.3141  0.1864
23902W        W39976  13.290   6.308  12.302  0.1293 -0.0575 -0.0707
23903W        W39977  10.454  10.221   5.432  0.2383  0.0846  0.0927
23904W        W39978  17.152   8.898   0.155 -0.0868 -0.0793  0.1662
23905W        W39979  11.057   6.022  15.929 -0.1439  0.2155 -0.0489
23906W        W39980  13.100   6.114   2.476  0.3699  0.1040 -0.3316
23907W        W39981  11.090   2.210   5.064 -0.0150  0.1169 -0.0789
23908W        W39982   4.643  14.497   3.324 -0.1091  0.3197 -0.2157
23909W        W39983   6.654   1.790   5.398 -0.0135  0.2794  0.0460
23910W        W39984   8.974   8.391  16.444  0.0456 -0.0740 -0.3155
23911W        W39985  12.342   6.050  12.176  0.1393  0.0064  0.3340
23912W        W39986  13.810   7.778  15.267 -0.1570  0.0767 -0.1049
23913W        W39987   0.857   1.065  13.263 -0.0457  0.2612  0.3570
23914W        W39988   8.921   2.968   4.582 -0.1024  0.0247 -0.0823
23915W        W39989  17.662  14.230  12.046 -0.3787 -0.1239 -0.1475
23916W        W39990   6.780  15.959   0.569  0.1487 -0.2493  0.2517
23917W        W39991   7.250   0.085  14.231 -0.1485  0.1704  0.1427
23918W        W39992   8.528   7.870  12.586 -0.0495 -0.2519  0.3645
23919W        W39993   3.747   7.057   4.885  0.1045 -0.2104 -0.0608
23920W        W39994   5.570   0.640   4.337 -0.0374  0.0631  0.0526
23921W        W39995  15.573  15.092  13.595  0.1398  0.2886 -0.0199
23922W        W39996  17.050   4.806   1.911 -0.0512 -0.1880 -0.2823
23923W        W39997  16.159   2.300   3.282 -0.1727  0.1471  0.2857
23924W        W39998   8.813  13.769   0.084  0.0862 -0.0209  0.2279
23925W        W39999  17.940  12.407   3.260  0.4159  0.3159 -0.0898
23926W        W40000   5.356   4.933   2.067  0.0005 -0.0324 -0.3872
23927W        W40001  10.675  12.965  11.637 -0.1039  0.1594 -0.0663
23928W        W40002   8.845   9.295   2.219  0.3064 -0.2182 -0.1096
23929W        W40003   4.204   6.993   2.953  0.1290 -0.1076 -0.1017
23930W        W40004   6.838  17.191   5.681 -0.1776  0.0621  0.3812
23931W        W40005  15.834   2.209   4.634  0.1574 -0.0929 -0.1463
23932W        W40006  15.631   3.131  11.829  0.0590  0.0256  0.0560
23933W        W40007   1.060  11.974  15.667 -0.3143  0.0453  0.4599
23934W        W40008   8.518  10.400   3.289 -0.0010  0.0964  0.0020
23935W        W40009   0.763   8.812   1.434 -0.3443 -0.2147  0.0992
23936W        W40010   4.964  15.127  16.274 -0.0328 -0.0729  0.2344
23937W        W40011   6.031   9.377  15.519 -0.4194 -0.1869 -0.2153
23938W        W40012  14.723   3.280  13.884 -0.2677  0.0127 -0.0081
23939W        W40013   3.574  12.118  15.907 -0.0313 -0.2926 -0.1364
23940W        W40014  10.868  12.074  11.280 -0.1148 -0.0586 -0.0263
23941W        W40015   1.093   1.643   2.496  0.2373  0.0756 -0.1528
23942W        W40016  13.511   9.002  12.690 -0.2279  0.0798 -0.0835
23943W        W40017   3.501  16.647   0.276  0.1034 -0.0661  0.2280
23944W        W40018   6.685  17.822  13.185 -0.0785 -0.0550 -0.0492
23945W        W40019   5.830  13.503  15.361  0.3518 -0.0180 -0.0061
23946W        W40020   8.402  11.351  15.607 -0.4819  0.0055 -0.5063
23947W        W40021   0.876  13.372   5.514  0.1948  0.0267  0.1726
23948W        W40022   4.126  14.241  14.148 -0.3629  0.0781  0.1300
23949W        W40023  15.093  15.140   3.763  0.0977  0.2697 -0.1188
23950W        W40024  17.199  10.598  15.728 -0.0687 -0.1707  0.2583
23951W        W40025  15.955   5.447   2.951  0.0313  0.1132  0.3742
23952W        W40026  14.300   8.357  16.110 -0.0976 -0.1411  0.2175
23953W        W40027   9.212  13.928  14.115  0.1109 -0.1549  0.1453
23954W        W40028  15.126   2.256   0.572 -0.3536 -0.2450  0.1752
23955W        W40029   3.589  13.056   2.159  0.2465  0.3042 -0.0236
23956W        W40030  11.013  16.653  13.690 -0.2492 -0.0994  0.0246
23957W        W40031   1.209   6.356  12.220 -0.0401  0.1789  0.1438
23958W        W40032   7.995   1.096   2.687 -0.1899 -0.2760 -0.2044
23959W        W40033  14.865   0.309  12.435 -0.0943  0.0724  0.1280
23960W        W40034  16.674  17.655   3.351  0.0452 -0.1622 -0.0933
23961W        W40035   3.833  10.475   4.047 -0.1674 -0.1471  0.1530
23962W        W40036   3.679  13.656   1.351  0.2181 -0.1375  0.1878
23963W        W40037  15.837   0.708   2.917  0.1809 -0.1564 -0.0637
23964W        W40038  12.829   4.644   2.950  0.0694  0.0423 -0.2121
23965W        W40039   3.627  10.768  14.160 -0.3178 -0.0254  0.4110
23966W        W40040  11.118  16.637   0.759  0.1911 -0.2240 -0.0820
23967W        W40041   4.330   7.153   1.117  0.0435 -0.0650 -0.0979
23968W        W40042  12.503   8.217  12.457 -0.3085 -0.1503  0.0106
23969W        W40043   6.557  16.950  14.090  0.0387 -0.0383  0.2460
23970W        W40044  10.808  11.535  16.051  0.0113  0.0352 -0.1219
23971W        W40045   3.535   0.819   4.047  0.0798  0.1216 -0.1510
23972W        W40046  15.227  11.638  12.796  0.0579 -0.0232 -0.0162
23973W        W40047  14.574  10.454   0.138 -0.0671  0.1127  0.1905
23974W        W40048  12.619   6.238  14.970 -0.0883 -0.0296 -0.0421
23975W        W40049   0.753  17.730  13.482  0.2404 -0.1074  0.0223
23976W        W40050  13.312  14.491  14.803  0.2376 -0.0132 -0.2122
23977W        W40051  15.002  16.486  13.924  0.2518 -0.0583  0.3431
23978W        W40052   0.027   5.827   4.557  0.0655 -0.0701  0.2109
23979W        W40053   6.271   4.590   3.413 -0.0024  0.2816 -0.0482
23980W        W40054   9.472  10.898   2.498  0.1429  0.1588 -0.1164
23981W        W40055   0.499   0.749   2.172 -0.0884 -0.1995  0.4815
23982W        W40056  14.115   8.216  11.534  0.2184  0.2018 -0.2583
23983W        W40057  12.260  10.026   2.135  0.1160  0.2704  0.1107
23984W        W40058   1.499  17.516   5.850 -0.1083  0.1379 -0.0383
23985W        W40059   0.812  13.643   2.822  0.0363 -0.2456 -0.0534
23986W        W40060   8.458  18.106  13.826 -0.0020 -0.3155  0.0639
23987W        W40061  11.059   8.262   0.253 -0.2423 -0.1514  0.2638
23988W        W40062   3.386  16.863   0.698  0.0952  0.1941 -0.0221
23989W        W40063  15.280  17.254   5.046 -0.1315  0.1273 -0.3760
23990W        W40064   1.096  16.147   1.158  0.0980  0.0731 -0.1173
23991W        W40065   8.672   1.549   1.371 -0.2421 -0.0970  0.1519
23992W        W40066   7.856  15.993  11.506  0.2776  0.1973 -0.0880
23993W        W40067   3.144   4.346  12.229  0.0028  0.1525 -0.3666
23994W        W40068  14.172   9.563  13.298 -0.2439  0.1954 -0.0774
23995W        W40069  15.470   9.211   0.547  0.2149  0.2799 -0.0956
23996W        W40070   7.416   0.852   4.134  0.0317 -0.0255  0.0812
23997W        W40071   0.288   3.667  11.673 -0.0480  0.0534 -0.1000
23998W        W40072   9.471   3.458  15.805 -0.1036 -0.1155  0.2784
23999W        W40073  14.959  18.206   4.045  0.1646  0.0677  0.0259
24000W        W40074  13.288  12.276  16.211  0.2681  0.1396  0.2129
24001W        W40075   4.834  15.806  14.707 -0.0333 -0.0505 -0.2118
24002W        W40076   8.496   7.120  15.155  0.3003 -0.0111 -0.2557
24003W        W40077  11.629   0.543   0.579 -0.2506 -0.0758  0.1003
24004W        W40078  14.903  12.536   4.781  0.1459 -0.2308 -0.2068
24005W        W40079   2.376  16.694  11.743 -0.4283 -0.1135 -0.0915
24006W        W40080  10.375  18.173   0.691 -0.0919  0.2463  0.0463
24007W        W40081   9.345   2.123   2.603  0.2566  0.0046  0.3508
24008W        W40082   6.339   0.836  15.039 -0.0374 -0.0193 -0.2393
24009W        W40083   7.455   7.292  14.341  0.0072 -0.0205 -0.0367
24010W        W40084   5.690   6.732  13.407  0.3745  0.1633 -0.2534
24011W        W40085   8.142   4.557  16.017  0.0243 -0.1588 -0.0067
24012W        W40086  13.018   4.594   3.962 -0.1417  0.2909 -0.0262
24013W        W40087   2.261  16.466   3.888  0.1771 -0.1575 -0.3393
24014W        W40088   8.342   0.559   6.570 -0.3684  0.0506 -0.0171
24015W        W40089   5.063   5.999   4.500 -0.1950  0.0549 -0.2910
24016W        W40090  15.575   5.017  15.808 -0.3652  0.1162 -0.1320
24017W        W40091   9.908   0.914   2.976 -0.2331  0.4748 -0.0257
24018W        W40092  15.054   6.044  14.048  0.5624  0.0004  0.0438
24019W        W40093   1.489  13.375   0.591  0.1357  0.0395  0.0293
24020W        W40094  13.099   7.528  14.727  0.1674  0.4259  0.0133
24021W        W40095  17.080  12.224   4.674 -0.2043  0.1259 -0.2404
24022W        W40096   7.087  15.889  15.926 -0.2873 -0.2764 -0.0052
24023W        W40097   3.270   2.982   0.257  0.1064 -0.2392  0.3258
24024W        W40098   8.121   9.603   3.674  0.1146  0.2545  0.1563
24025W        W40099   4.719  17.241   4.853 -0.0246 -0.0890 -0.1545
24026W        W40100  15.078   3.334   5.000 -0.1392 -0.0787 -0.1766
24027W        W40101   2.670  14.736   2.921 -0.0406 -0.1176 -0.2931
24028W        W40102   2.357  13.261   4.124  0.2143 -0.1364 -0.0064
24029W        W40103   0.184   1.462   3.338 -0.0266  0.1267  0.0591
24030W        W40104  12.575   2.415   4.104  0.3028 -0.2184 -0.0430
24031W        W40105   2.718   4.650  11.371  0.1872 -0.1913 -0.2591
24032W        W40106   7.202   3.364  14.964 -0.0099 -0.2401 -0.0381
24033W        W40107   8.053   8.922  14.553 -0.1904  0.1907  0.1511
24034W        W40108   7.099   2.461   4.537 -0.2016 -0.0249  0.2653
24035W        W40109   8.737  16.360   3.886  0.1039 -0.2683  0.3284
24036W        W40110  11.073   1.031  15.930  0.1270 -0.0634 -0.1529
24037W        W40111  13.285   0.040  11.888  0.1710 -0.0430  0.0580
24038W        W40112  15.056  14.610  12.079  0.1972 -0.0495  0.0084
24039W        W40113  13.626   1.504  14.789 -0.0299 -0.2604 -0.2305
24040W        W40114  10.491   6.329   4.555  0.0332  0.1832 -0.0627
24041W        W40115   6.583  14.302   1.608 -0.0296  0.0267  0.3923
24042W        W40116  10.324   1.514  12.685 -0.5885  0.0261 -0.0085
24043W        W40117  13.795  16.016  15.578  0.0462  0.0934  0.2300
24044W        W40118   4.280  13.205   4.858  0.0767  0.2661 -0.0291
24045W        W40119   3.836   5.098   5.410  0.2191  0.0511  0.3655
24046W        W40120  14.801  11.886  16.111  0.2695  0.1239 -0.2857
24047W        W40121  14.991   5.150   2.879 -0.2436  0.1510 -0.0375
24048W        W40122  16.695   7.212   0.901 -0.1036 -0.0018 -0.2320
24049W        W40123  16.165   5.915   2.906 -0.1979 -0.0069  0.0827
24050W        W40124   5.061   9.945   1.627  0.1924  0.3265  0.0972
24051W        W40125  13.449  16.984  14.876  0.0119 -0.3300  0.2485
24052W        W40126  16.121   7.587   4.940  0.0208 -0.2132 -0.0880
24053W        W40127   7.427  10.818   5.491 -0.0728 -0.0125  0.1786
24054W        W40128   6.365   9.405  12.462 -0.2181  0.0523  0.1243
24055W        W40129   7.205   9.869   5.082  0.0244 -0.1457  0.1149
24056W        W40130   0.770   9.858   3.427 -0.0453 -0.1129 -0.0133
24057W        W40131   3.272  15.662  11.539  0.2933  0.3994  0.0823
24058W        W40132  12.110  17.333  15.077 -0.0702 -0.1945 -0.0618
24059W        W40133  12.417   3.800   1.968  0.1263  0.1636 -0.0970
24060W        W40134   6.014  15.176  13.283  0.0095 -0.2312 -0.0796
24061W        W40135  13.759   4.508   2.694  0.1471 -0.3669  0.0792
24062W        W40136  13.573   2.655   0.557 -0.1586 -0.3146 -0.0146
24063W        W40137   9.624   0.036  15.011 -0.1630 -0.1264 -0.1347
24064W        W40138   0.407   3.545   0.364  0.1328 -0.1006  0.1217
24065W        W40139  15.273  10.995  12.209 -0.0596  0.1503  0.0445
24066W        W40140  15.143  13.908   1.516 -0.0259 -0.1246  0.0692
24067W        W40141   3.992   1.704   5.079  0.1219 -0.1471  0.0582
24068W        W40142  14.032   0.034  12.550  0.0017  0.3619  0.2052
24069W        W40143   6.630   4.430  12.564  0.2825  0.2971  0.0511
24070W        W40144   7.158   3.388   6.116  0.2153  0.5180 -0.3036
24071W        W40145  12.041   8.408   1.708 -0.0581 -0.0269 -0.2259
24072W        W40146   7.639  13.877   1.643  0.2052 -0.0793 -0.0419
24073W        W40147  16.157   1.225  14.397  0.0742  0.1773  0.0545
24074W        W40148  17.676  13.170   1.360  0.0314  0.1904 -0.2148
24075W        W40149   7.420   4.765  11.276  0.2574 -0.1811 -0.0239
24076W        W40150  14.547   8.485   3.779  0.0510  0.1607 -0.0067
24077W        W40151   1.532  10.121   3.216  0.0809 -0.2439  0.1894
24078W        W40152   0.884  12.448  14.732 -0.2283  0.0072  0.0858
24079W        W40153   7.292   4.716   5.255  0.0107 -0.1155  0.2249
24080W        W40154   8.474  14.271  15.764 -0.1014  0.0278  0.1462
24081W        W40155  15.364  11.454   5.469  0.0984  0.1410 -0.0619
24082W        W40156  10.060  13.828   0.906 -0.3867  0.1371  0.5557
24083W        W40157   2.650   2.187   0.819  0.1220  0.1512  0.0649
24084W        W40158   0.902  15.721   0.394  0.0873  0.5343  0.0352
24085W        W40159   7.702   2.311   2.384  0.0774 -0.0808  0.1790
24086W        W40160  17.642  17.878   2.410  0.0846 -0.0994 -0.3694
24087W        W40161  14.569   3.276  12.935 -0.0841 -0.0994 -0.1241
24088W        W40162  13.456   8.451  15.075 -0.1271  0.1258  0.0737
24089W        W40163  15.084   7.646  13.369 -0.0689  0.0655 -0.0175
24090W        W40164  16.176   4.097   4.603  0.2305 -0.3218 -0.1122
24091W        W40165   3.913  13.663  12.431  0.2080  0.0218  0.1656
24092W        W40166  17.591  11.863  10.830 -0.0719 -0.1204 -0.4024
24093W        W40167   6.858  12.932  16.281 -0.0565  0.2623  0.1129
24094W        W40168  15.307  17.286   0.026 -0.0083 -0.0297  0.1702
24095W        W40169   5.761   5.066   3.846  0.0200 -0.1592 -0.1739
24096W        W40170  15.719   9.123   1.450  0.0131  0.0701  0.2026
24097W        W40171   2.393  14.994   3.958  0.0510 -0.0623  0.0265
24098W        W40172  13.159   0.707  12.644 -0.2442  0.2462  0.0478
24099W        W40173   5.269  10.982  10.738  0.2971 -0.0203 -0.1157
24100W        W40174   4.727   5.201   5.158 -0.1656  0.0237  0.1407
24101W        W40175   7.476  15.846   4.650  0.3123 -0.3763  0.3862
24102W        W40176   1.759  17.763  14.102 -0.1173  0.3375  0.1939
24103W        W40177  13.407  13.332  16.293  0.2512  0.1737 -0.1300
24104W        W40178   1.555   1.155   5.360 -0.3348  0.0750 -0.1371
24105W        W40179  11.864   6.506  13.511  0.2492  0.0264 -0.0444
24106W        W40180   1.473  17.303   5.344 -0.0793 -0.2416  0.1615
24107W        W40181  11.728   2.347   0.408  0.1596 -0.0239 -0.4129
24108W        W40182   3.889   5.754   4.872 -0.1327 -0.0171 -0.2578
24109W        W40183  13.008  11.711   1.988  0.1654  0.0341  0.4710
24110W        W40184   6.258   4.130   4.371 -0.0864  0.1424 -0.1461
24111W        W40185   6.536   3.423   4.997  0.2658  0.0245 -0.2151
24112W        W40186  11.157  15.873   4.199 -0.0233 -0.0969 -0.1080
24113W        W40187   9.321  14.061  15.691 -0.0808  0.1167  0.4059
24114W        W40188   2.284  13.223   3.153  0.1295  0.0872  0.3555
24115W        W40189  14.057   2.713  14.912  0.0586 -0.2007 -0.1571
24116W        W40190   0.040   6.064   5.760  0.0593 -0.0314 -0.2379
24117W        W40191  15.643   4.076   4.849  0.2758 -0.3425  0.0456
24118W        W40192  16.113  15.418  11.833 -0.1234 -0.1317  0.0052
24119W        W40193   2.414   4.236  14.796  0.0767  0.0391 -0.0930
24120W        W40194   4.221   1.899   0.340  0.1967  0.2249  0.3061
24121W        W40195  11.505  17.478   1.797  0.1673  0.2324  0.0704
24122W        W40196  18.079  14.428  12.566 -0.1467  0.0604 -0.1260
24123W        W40197   4.483   3.852   0.004 -0.0352  0.0962 -0.3760
24124W        W40198  10.851   0.231   3.775  0.1613  0.2075 -0.1065
24125W        W40199  17.619  15.789  16.172  0.1665 -0.2805  0.2236
24126W        W40200   1.362  11.668   6.026  0.0295 -0.3220 -0.0465
24127W        W40201   2.449   2.112  13.873  0.1435 -0.0920  0.1196
24128W        W40202   6.608  13.360  13.959  0.0402 -0.1504 -0.1740
24129W        W40203   5.343  12.981   0.574 -0.1985 -0.1536  0.1135
24130W        W40204   5.519  10.824  12.628 -0.0351  0.0824 -0.0127
24131W        W40205   9.683   9.566   3.635 -0.1062  0.0119 -0.2263
24132W        W40206   5.080  11.951   0.325  0.0114  0.3306  0.2697
24133W        W40207  17.542  16.192  12.019 -0.1705  0.1058  0.2111
24134W        W40208  15.957   2.683   4.707 -0.1912  0.1073 -0.1662
24135W        W40209   1.659   6.166  11.903  0.1095 -0.1272 -0.0926
24136W        W40210   3.908  17.975  15.281 -0.0138  0.4989  0.0705
24137W        W40211  13.910   3.196  11.309 -0.2563 -0.2462  0.2599
24138W        W40212  12.287  10.299  12.288  0.0872 -0.2671  0.0534
24139W        W40213  15.418   2.669   0.439 -0.3770 -0.0405  0.2584
24140W        W40214   1.609  10.606   0.838  0.2861 -0.0064  0.1070
24141W        W40215  14.141   9.992   4.931  0.0400  0.3931 -0.1337
24142W        W40216  14.726  11.568   0.353  0.3498  0.0168 -0.1853
24143W        W40217   4.769  16.434   2.034 -0.0712 -0.0779 -0.1166
24144W        W40218   5.127   7.145   3.787 -0.0247  0.2098  0.0689
24145W        W40219   5.618   2.124   2.069  0.1332  0.2601  0.0829
24146W        W40220   4.040  13.371  11.838 -0.1693  0.0465  0.0406
24147W        W40221  10.504   7.776   1.879  0.3497  0.0820 -0.1508
24148W        W40222  11.920  17.699  14.310  0.1079  0.1465 -0.0771
24149W        W40223   8.999   1.740  14.386 -0.0745  0.0420  0.0175
24150W        W40224   8.905   3.912   0.778 -0.0646  0.3880 -0.2696
24151W        W40225  16.817   9.659  14.759  0.0495 -0.1960 -0.0157
24152W        W40226  17.294   8.507  11.124  0.0697  0.0863 -0.6266
24153W        W40227  18.006   9.295   1.571  0.1206  0.0280 -0.3546
24154W        W40228   8.286   6.209  11.992  0.0969  0.1300 -0.3064
24155W        W40229   0.082  17.280   4.051  0.2910  0.1405 -0.2052
24156W        W40230  14.340  13.993   1.190 -0.2224  0.0161 -0.0144
24157W        W40231  12.265  11.838   4.033  0.0726  0.1888 -0.0250
24158W        W40232   8.247  16.425  15.002  0.0553  0.0093  0.1079
24159W        W40233  16.813   3.592  12.797 -0.1275  0.0033 -0.3250
24160W        W40234  18.249  13.420  15.813  0.0270 -0.0536 -0.2964
24161W        W40235   2.426   0.279   6.384  0.1334 -0.3715  0.0479
24162W        W40236  16.134  10.804  12.695 -0.0475 -0.3554  0.1275
24163W        W40237   0.561   5.229   5.465 -0.0955 -0.1115  0.1898
24164W        W40238  16.903  16.285  12.683  0.0949  0.4050 -0.2626
24165W        W40239   6.435  12.659  16.320 -0.2603  0.0329  0.1898
24166W        W40240  15.180   2.479   1.217  0.0497 -0.4430 -0.3215
24167W        W40241   7.562  16.953   3.725 -0.3433 -0.0911 -0.0993
24168W        W40242   4.899  12.941   1.396 -0.1415 -0.0741  0.0661
24169W        W40243   3.961  16.473  16.260 -0.1832  0.0004 -0.1035
24170W        W40244   6.357  12.624  10.457  0.1039  0.1123 -0.2868
24171W        W40245   8.525   3.189   2.472  0.1209 -0.2075  0.1169
24172W        W40246  10.652  13.738  16.123 -0.0312  0.1990  0.2025
24173W        W40247   9.031   2.313  15.280 -0.1041  0.0665  0.1393
24174W        W40248  12.848   8.093   0.537 -0.0926  0.0436 -0.0751
24175W        W40249  12.750   7.661   4.840  0.2844 -0.4171 -0.1000
24176W        W40250  12.457  12.819  12.179  0.2243 -0.0412 -0.1792
24177W        W40251   0.605  16.026  12.841 -0.1216  0.1185 -0.1571
24178W        W40252   6.818  17.852   1.762 -0.1002 -0.1610  0.2031
24179W        W40253  12.474  15.849   3.820 -0.0569  0.0374  0.2210
24180W        W40254   0.476  15.460   0.397  0.2211  0.1236 -0.0966
24181W        W40255   6.458   4.514   2.855  0.0083  0.0913 -0.2353
24182W        W40256   4.437   3.823   1.945  0.2690  0.0726 -0.1103
24183W        W40257  17.978  10.247   1.318  0.3751  0.4093 -0.0011
24184W        W40258   5.376  14.927  14.543  0.0727 -0.3588 -0.2779
24185W        W40259  14.184  10.729  15.043  0.1350  0.6703 -0.1847
24186W        W40260  12.745   3.262  13.691  0.3571 -0.0667  0.0684
24187W        W40261   0.740  17.643  12.535  0.1645 -0.0590 -0.0247
24188W        W40262   3.205  12.225  13.863  0.0156  0.2939 -0.1470
24189W        W40263   8.270   8.153  15.619  0.1214 -0.1686  0.1028
24190W        W40264  10.207  10.988  14.317  0.1205 -0.1184  0.3756
24191W        W40265   6.094   5.794   6.056  0.2440 -0.1044 -0.3393
24192W        W40266   3.276   3.037   3.609 -0.0380 -0.3463 -0.0557
24193W        W40267  11.423   8.891  13.107 -0.2587 -0.0462  0.1122
24194W        W40268   9.828  10.841   0.769  0.1774 -0.5153  0.0302
24195W        W40269   6.410   5.086   1.194 -0.4867  0.2629  0.1527
24196W        W40270   5.113  15.850  15.708 -0.0663 -0.0076  0.2537
24197W        W40271  17.136  17.987  16.064 -0.2827 -0.3910  0.0209
24198W        W40272  16.950  11.909  16.058  0.0400 -0.0636  0.0093
24199W        W40273  15.735   9.011   1.968 -0.0278  0.0536 -0.1615
24200W        W40274  13.395  10.567  15.500  0.2265  0.4331  0.1405
24201W        W40275  14.561   8.950   2.610  0.2361 -0.0631 -0.0509
24202W        W40276  10.844  10.327   4.004  0.0366  0.0594  0.2504
24203W        W40277   2.290   6.235  11.387  0.2138 -0.1647 -0.0041
24204W        W40278  13.540   2.211  14.097 -0.1347 -0.0881 -0.2067
24205W        W40279   2.118   2.489  15.083  0.1738  0.0580  0.3230
24206W        W40280   5.598  14.500  15.406  0.1988 -0.1593  0.0516
24207W        W40281  18.055  10.442  10.288  0.3907  0.1093  0.1432
24208W        W40282   2.168   1.045   2.372 -0.1780  0.1948  0.1110
24209W        W40283   3.565   8.997   5.637  0.0150 -0.2150  0.0519
24210W        W40284  18.010   0.628   1.103  0.1123 -0.2204 -0.0907
24211W        W40285  11.073   4.828   2.109 -0.2836  0.0322 -0.5009
24212W        W40286   7.384  17.232  14.293  0.0407 -0.1089 -0.0735
24213W        W40287  11.504  17.056  14.990 -0.0641 -0.0649 -0.3211
24214W        W40288   8.593   0.754   1.388 -0.0973  0.1430 -0.1584
24215W        W40289  17.752   9.825  15.060  0.2009  0.2250 -0.0842
24216W        W40290   8.035  10.319   1.375  0.3802  0.1259 -0.0054
24217W        W40291   1.397  13.685   0.178 -0.0625 -0.2082 -0.2342
24218W        W40292  15.372  16.485  11.757  0.0420  0.0461  0.0457
24219W        W40293   3.414   5.845  12.689  0.0710 -0.0131 -0.3552
24220W        W40294  14.203  12.119   5.657 -0.0607  0.1640 -0.2258
24221W        W40295  11.552   3.772  15.684  0.3588 -0.0791 -0.1576
24222W        W40296  11.626   8.206  15.559 -0.1713  0.0890  0.1461
24223W        W40297   9.293  14.148   0.755 -0.1383  0.2857 -0.0511
24224W        W40298  15.958   7.923  13.231  0.1744 -0.1977  0.0686
24225W        W40299   8.550   0.442   5.168  0.1160  0.1134  0.1487
24226W        W40300  12.740   6.603  13.641 -0.0651  0.2221  0.0813
24227W        W40301  12.235  12.222   3.594  0.0835 -0.2105  0.1454
24228W        W40302  13.601   3.165  14.105 -0.5210  0.1088  0.0985
24229W        W40303  13.731  16.689   0.862 -0.0142 -0.0622  0.0305
24230W        W40304  12.323  16.811   3.778  0.3126  0.0832 -0.2494
24231W        W40305   6.633  14.275   0.468 -0.2083  0.2238  0.0658
24232W        W40306   6.412  14.529   3.788  0.0908 -0.1515 -0.0809
24233W        W40307   2.260  15.849   2.576 -0.0082  0.2207  0.0133
24234W        W40308   1.290   7.225   2.393  0.0353 -0.2486 -0.2542
24235W        W40309  17.175  14.710   2.212 -0.1501 -0.3437 -0.1097
24236W        W40310  16.319   8.559  16.218 -0.2898 -0.1883 -0.0068
24237W        W40311   1.618   7.398  13.491  0.3538 -0.0599 -0.1656
24238W        W40312  11.142   6.241   3.570  0.2926 -0.1047 -0.1016
24239W        W40313  10.387  14.854  15.291  0.5546  0.1565 -0.0282
24240W        W40314   2.385  12.890  13.438  0.1269  0.0084  0.4078
24241W        W40315   1.293   3.737   2.912  0.2040  0.0638 -0.0513
24242W        W40316   6.593  11.042   3.483 -0.1033 -0.2819 -0.2269
24243W        W40317  18.043   0.597   3.249  0.2642  0.0306 -0.0904
24244W        W40318   4.115  16.039  14.781  0.3374  0.0344 -0.0709
24245W        W40319  15.666   5.615   5.249  0.0443  0.1229  0.0495
24246W        W40320   2.235   7.816  12.773  0.0545  0.0460  0.0104
24247W        W40321   9.871   0.421   3.700 -0.1124  0.2935  0.1931
24248W        W40322   5.775  13.885   1.660  0.2278 -0.2452 -0.1893
24249W        W40323  10.310   0.490  15.433 -0.2937 -0.2377 -0.0863
24250W        W40324   0.217  11.367   4.012  0.0225 -0.0592  0.0575
24251W        W40325   0.518   5.765   4.566  0.0134  0.2232  0.0044
24252W        W40326   1.020   4.571  14.637 -0.0485  0.0382  0.3154
24253W        W40327  11.832  17.224  14.583  0.1441 -0.0531 -0.2008
24254W        W40328   1.394  14.670   5.096 -0.1031  0.0862 -0.0442
24255W        W40329  13.343   7.399  11.505 -0.1441  0.1815  0.0122
24256W        W40330  12.755  15.365  16.017 -0.6002  0.1827 -0.0128
24257W        W40331  13.386  14.566  13.562  0.1701 -0.4184  0.0994
24258W        W40332   7.887   0.799   5.649 -0.4257 -0.0964 -0.1344
24259W        W40333  11.243  16.943  16.384 -0.1257 -0.4449  0.3637
24260W        W40334   0.302  17.553  13.293  0.2581 -0.0004 -0.0115
24261W        W40335   3.433   4.338   3.038  0.1536  0.3649  0.2095
24262W        W40336  13.398  11.948   3.844 -0.1230 -0.0851 -0.0068
24263W        W40337   2.568   2.968   3.060  0.1130  0.1031  0.1706
24264W        W40338   3.238  12.694  12.131  0.1147  0.0194  0.1619
24265W        W40339   7.979  10.446  14.126 -0.0810  0.0477 -0.4757
24266W        W40340  10.017  11.354   1.708 -0.2309 -0.0364 -0.2204
24267W        W40341  13.217  16.776  13.419  0.0381  0.2089  0.0870
24268W        W40342  11.929  17.827   4.606 -0.0996 -0.1130  0.0694
24269W        W40343  10.709   6.985   3.782 -0.2341 -0.3423 -0.0442
24270W        W40344   2.885  16.384   4.218 -0.0441 -0.1547 -0.0135
24271W        W40345   7.962  17.030   0.960  0.1133 -0.0963  0.1129
24272W        W40346   2.194  10.614   3.596  0.1029  0.0980  0.0097
24273W        W40347   3.339   9.055   2.019 -0.3753  0.0521 -0.1308
24274W        W40348   1.234   8.245   3.600 -0.2916 -0.1156  0.2907
24275W        W40349   8.528  13.410  12.272  0.1052 -0.0266  0.0491
24276W        W40350   8.917   1.105   1.478 -0.1523 -0.3149 -0.0622
24277W        W40351  14.342  17.912  16.134 -0.0608  0.1059  0.1659
24278W        W40352   9.236   1.697   1.284  0.1063 -0.1490 -0.0482
24279W        W40353   7.208   4.400  12.962 -0.1222 -0.2332  0.1575
24280W        W40354  14.959  15.591  11.838  0.1756 -0.0809 -0.0328
24281W        W40355  15.719  16.486   3.000 -0.1124  0.1643 -0.2268
24282W        W40356   5.817  18.247  13.704 -0.0116  0.2526 -0.0293
24283W        W40357  15.931  11.985  14.143 -0.1743 -0.0761 -0.1258
24284W        W40358   7.046  17.732  15.516 -0.2844  0.2083  0.0651
24285W        W40359   7.788   8.770  13.141 -0.1223 -0.1594  0.2039
24286W        W40360   1.492   9.477  11.051 -0.0628  0.3214 -0.1991
24287W        W40361  12.593   0.357  11.744  0.0872  0.1643 -0.2336
24288W        W40362   3.076  10.571  15.239 -0.0812 -0.1670  0.2071
24289W        W40363  16.591   6.613   1.963  0.2539 -0.2935 -0.1870
24290W        W40364   9.293  15.196   0.539 -0.0076  0.5265 -0.1762
24291W        W40365  11.094   3.012  14.489  0.1606 -0.0520 -0.3515
24292W        W40366  14.441  14.532  12.061 -0.1189 -0.0760 -0.1080
24293W        W40367   6.354  10.642   5.425 -0.2289 -0.1853 -0.1606
24294W        W40368   9.239  10.262  13.916  0.0434 -0.0977  0.1102
24295W        W40369  11.832   9.998   6.244 -0.3295  0.2313 -0.0176
24296W        W40370   2.198  16.983   4.658 -0.2115  0.0223  0.1719
24297W        W40371   7.138   0.522   1.294 -0.0312 -0.0089 -0.0524
24298W        W40372  10.104   4.709   4.058 -0.0090 -0.0326 -0.0853
24299W        W40373   3.208   9.764  14.683 -0.1943 -0.0403  0.1372
24300W        W40374  13.000  11.301   4.340  0.1426  0.0512  0.0861
24301W        W40375  14.779   1.123   2.293 -0.1180 -0.1131 -0.0522
24302W        W40376   3.843   6.307   6.451  0.1107  0.3050 -0.0892
24303W        W40377  17.127   6.066   1.481 -0.1557 -0.1297 -0.1534
24304W        W40378  17.116   0.058   0.784  0.1119  0.0847 -0.1940
24305W        W40379   5.737   6.074  12.822 -0.3356  0.2884 -0.2794
24306W        W40380  15.300  13.861  13.282  0.0615  0.0635 -0.0696
24307W        W40381   5.900   2.961   2.230 -0.1942  0.0816  0.0375
24308W        W40382   6.595  14.237  14.033  0.2137  0.1990  0.0572
24309W        W40383  15.339  17.496   3.652  0.2418  0.0895 -0.1594
24310W        W40384   4.578  15.829  15.509 -0.0710 -0.0781  0.1041
24311W        W40385   8.891   3.268   4.983 -0.0746 -0.1713  0.1049
24312W        W40386   1.782   1.583  13.276 -0.0244 -0.1865 -0.0220
24313W        W40387   9.465   5.578  15.705  0.0136  0.0193 -0.0674
24314W        W40388  14.888  13.636  15.813 -0.1017 -0.0593  0.0066
24315W        W40389  12.082   2.666   1.878 -0.1427  0.0778  0.1553
24316W        W40390  14.020  13.417   5.191 -0.2403  0.0859  0.0000
24317W        W40391   3.764  12.334  14.950 -0.1088 -0.1623  0.0697
24318W        W40392  10.300  10.330  15.223 -0.0786  0.0226  0.1190
24319W        W40393  13.754  12.261  11.979  0.0369  0.0175 -0.0587
24320W        W40394   9.924   9.624   3.147 -0.1937 -0.1242 -0.2054
24321W        W40395   8.901   8.778  10.950 -0.3081  0.0070 -0.2792
24322W        W40396   8.263  14.279   4.920  0.0394 -0.0129 -0.0358
24323W        W40397  13.366   2.867   5.459  0.0445 -0.1677  0.3364
24324W        W40398   3.149   1.267  14.811 -0.1368 -0.2290  0.0236
24325W        W40399  10.075  12.462   3.447  0.0686  0.0706 -0.1531
24326W        W40400  16.497  15.716   2.158  0.0877  0.0525 -0.1063
24327W        W40401  10.230  10.457   3.645  0.2899  0.1053  0.1560
24328W        W40402   8.849  16.493  16.039  0.1814 -0.1006  0.0986
24329W        W40403   9.463   7.086  14.969  0.1258 -0.0573  0.4058
24330W        W40404  16.526  14.267  13.878  0.0059 -0.1065 -0.2198
24331W        W40405   7.789  12.621  15.151 -0.2064  0.1713  0.0672
24332W        W40406  15.476   4.817   1.446  0.2005 -0.1404  0.0111
24333W        W40407  16.479   6.101  13.107  0.0356  0.3804  0.0513
24334W        W40408   1.832  15.007   1.175 -0.0069  0.3628 -0.0933
24335W        W40409  10.057   8.391   4.782 -0.0593 -0.3096 -0.4847
24336W        W40410   3.100   3.666   4.417 -0.0269  0.0333  0.1829
24337W        W40411   7.988   5.427   4.863  0.2274  0.0081  0.3546
24338W        W40412  14.819  17.545   4.372 -0.3359  0.1219  0.0766
24339W        W40413   4.429   6.482   1.748 -0.0006  0.1244  0.2561
24340W        W40414   7.687   9.399   3.647 -0.2120 -0.2079 -0.1721
24341W        W40415  10.203  10.395  13.958 -0.1614 -0.1081 -0.1989
24342W        W40416   8.430   3.965  11.471 -0.3240  0.0751 -0.1565
24343W        W40417  13.869  16.871  13.962 -0.0634  0.1454  0.2595
24344W        W40418   8.073  15.963   3.938 -0.0930 -0.0972 -0.1096
24345W        W40419   6.400   6.613   4.792 -0.0329 -0.2090 -0.0596
24346W        W40420   9.423  16.924  14.842  0.1030 -0.1924  0.0788
24347W        W40421   6.942  15.687  13.727 -0.2692 -0.1181  0.1179
24348W        W40422   9.716  13.847   0.573  0.1195 -0.3821  0.0051
24349W        W40423  11.559  15.243   2.974 -0.2210  0.1638  0.1226
24350W        W40424  13.894  14.816   4.265 -0.0328  0.1368 -0.2207
24351W        W40425   6.257   8.878   4.208  0.1285 -0.0929 -0.1939
24352W        W40426  13.692   8.770   2.224  0.0208  0.1997  0.2464
24353W        W40427   3.756  17.047   5.420 -0.1279 -0.1749  0.0072
24354W        W40428   3.294   4.573   1.497 -0.3074 -0.0658  0.1366
24355W        W40429   1.070  12.108   3.283  0.2535  0.1971  0.3814
24356W        W40430   2.831  12.220   0.393  0.0095 -0.2683 -0.1967
24357W        W40431   6.614   2.930   0.345  0.0757 -0.1683  0.1727
24358W        W40432  14.940   1.915   6.063 -0.0817 -0.1401  0.1018
24359W        W40433   6.135  12.896   2.680 -0.0285 -0.1095  0.0103
24360W        W40434  15.330   1.068   2.199  0.0774 -0.0530  0.1636
24361W        W40435  12.968   3.954   2.101  0.0521 -0.0107  0.0909
24362W        W40436  15.438   9.631  13.455 -0.2325 -0.1460  0.2689
24363W        W40437  10.896   9.221  11.698 -0.2111 -0.2853  0.2347
24364W        W40438   9.677  13.713   3.179  0.0851 -0.0615  0.4370
24365W        W40439  13.577   9.501  14.938 -0.0283  0.0301  0.1337
24366W        W40440   6.030  10.520   5.008 -0.1572 -0.0432 -0.2945
24367W        W40441  11.847  15.862   2.229  0.0429 -0.2841 -0.1918
24368W        W40442   3.208  14.960   1.334  0.2083 -0.2189 -0.0466
24369W        W40443   6.579   3.630   1.749 -0.2011  0.1149 -0.1641
24370W        W40444  17.456   4.226  13.643  0.1123  0.0071 -0.5159
24371W        W40445   3.817  14.125   1.239  0.1261 -0.0934 -0.0870
24372W        W40446  16.529  10.857   5.397  0.0272  0.3536 -0.1145
24373W        W40447   1.839  13.310  15.316 -0.3846 -0.1125 -0.0662
24374W        W40448   2.233  15.591   0.990  0.0660  0.1110 -0.0324
24375W        W40449  13.252   6.647   3.410  0.0926  0.0036  0.1731
24376W        W40450  16.578  15.680  10.147  0.0478  0.0984  0.3769
24377W        W40451   7.111   9.930  14.926 -0.2060 -0.1011 -0.3453
24378W        W40452   9.613   1.816   2.984  0.0616  0.1030  0.0027
24379W        W40453  13.318   8.869  11.728 -0.1256 -0.0851  0.0059
24380W        W40454  10.309   5.623  13.460  0.0783 -0.0758  0.1376
24381W        W40455   6.433   9.817   4.495  0.0682  0.0943  0.2212
24382W        W40456   2.655   1.383  16.067  0.1159 -0.3651  0.3184
24383W        W40457   8.791   1.377  14.714 -0.0673  0.0870  0.2432
24384W        W40458   9.979  10.926   0.008 -0.1023 -0.1893 -0.0855
24385W        W40459   6.118   0.854  13.985 -0.3341  0.1693 -0.0085
24386W        W40460   4.898  10.769  14.704  0.0500  0.0811  0.3159
24387W        W40461   4.113   1.018   2.972  0.1290  0.7208  0.0062
24388W        W40462   8.504   0.373  14.757  0.2708 -0.1577  0.0415
24389W        W40463   5.920   2.320  15.276 -0.3351  0.1960  0.3191
24390W        W40464   6.664   5.511   3.455 -0.0258 -0.0135  0.2343
24391W        W40465   5.848   0.133  15.631  0.4169  0.0391 -0.3893
24392W        W40466  10.444   2.661   4.147  0.2503  0.3332  0.1785
24393W        W40467  14.101   2.270  15.057 -0.0047  0.1383 -0.2505
24394W        W40468  14.271   3.389  11.677  0.0296  0.2151  0.0946
24395W        W40469  15.267  17.752   0.802  0.0393 -0.2001 -0.0422
24396W        W40470   6.965  12.005  14.003  0.1806  0.0440 -0.0760
24397W        W40471  16.930   5.180  13.128  0.2991  0.0265  0.0203
24398W        W40472  17.571  17.779   3.221  0.0738 -0.1134 -0.4326
24399W        W40473   5.419   3.782   1.771  0.0472 -0.0223  0.0744
24400W        W40474   4.195   4.269  15.124  0.1270  0.2751 -0.0500
24401W        W40475  13.101  17.860   1.119 -0.1851 -0.0649 -0.3329
24402W        W40476  15.444  11.887   3.653 -0.2121 -0.3752  0.1242
24403W        W40477   6.507  16.297  14.313  0.1255  0.1987  0.0524
24404W        W40478   7.995   6.912   0.525 -0.3701 -0.0068 -0.0623
24405W        W40479  11.875   7.617   4.422  0.2336  0.0386  0.1226
24406W        W40480   2.525   6.190   0.157 -0.1470  0.0070  0.1198
24407W        W40481  12.852  16.844   5.105 -0.0060  0.0810 -0.4061
24408W        W40482  11.195  15.356  13.985 -0.1417  0.2165 -0.2028
24409W        W40483  12.179   8.423   5.875 -0.0633 -0.1131 -0.4807
24410W        W40484  13.924  10.764   2.340  0.0001 -0.2531 -0.0013
24411W        W40485  17.061  11.896   2.357  0.0857  0.0202 -0.1322
24412W        W40486  10.564  11.842   2.401  0.0005 -0.1345 -0.0677
24413W        W40487  12.685  11.445   0.637  0.1039  0.0440 -0.0688
24414W        W40488  12.429   9.894   0.951 -0.0772 -0.1562  0.1649
24415W        W40489   8.545   7.000  13.260  0.2151 -0.1622 -0.2671
24416W        W40490  11.541  10.152   0.553  0.1441 -0.1887 -0.0312
24417W        W40491  16.336  14.619   2.917  0.1003  0.2438 -0.2769
24418W        W40492   0.772  16.316   2.857  0.2632  0.0878 -0.2006
24419W        W40493  18.144  16.851   4.845  0.0428  0.0943  0.1863
24420W        W40494  16.531   3.728  14.240  0.1849  0.0007  0.2015
24421W        W40495   1.588  13.099  14.099 -0.1808 -0.0023 -0.1270
24422W        W40496   2.291  10.578   2.987  0.1369 -0.1904  0.0485
24423W        W40497   3.823  10.325  12.821  0.4049 -0.0608  0.2705
24424W        W40498   4.130   5.649  15.208 -0.2181 -0.1879 -0.0278
24425W        W40499   6.436  16.004   4.555 -0.0365 -0.1927  0.1226
24426W        W40500   4.832   2.762   4.509  0.1350  0.0191 -0.2312
24427W        W40501  17.818  12.483  12.514 -0.0438  0.3482 -0.0479
24428W        W40502  13.137   5.162  12.659  0.0527  0.2163 -0.1113
24429W        W40503  12.317  14.412   5.358 -0.0199  0.1208  0.2403
24430W        W40504  18.103  13.891   0.259 -0.3676  0.2436  0.2456
24431W        W40505   5.319  12.357  13.606 -0.1043  0.6103  0.0619
24432W        W40506  16.034   4.993  15.395  0.1224  0.0516 -0.1275
24433W        W40507   8.487   4.460  15.653 -0.0677 -0.2125 -0.0892
24434W        W40508  16.625   9.165   2.168  0.0927  0.3364 -0.1893
24435W        W40509  10.285   3.824  11.739 -0.1862  0.0953  0.1303
24436W        W40510  12.265  17.246   3.009 -0.1820 -0.1044 -0.0017
24437W        W40511  12.652  17.014   4.621  0.1030  0.2883 -0.0593
24438W        W40512  13.869  16.153   3.648  0.1399  0.1676 -0.0593
24439W        W40513   5.120  16.948   2.735  0.0446  0.1252  0.0502
24440W        W40514  11.665  13.138   4.526 -0.1962 -0.0318  0.1251
24441W        W40515   7.289   3.079   3.705 -0.1252 -0.2242  0.0394
24442W        W40516   2.592  10.563  13.372  0.0634 -0.1210  0.0382
24443W        W40517   6.068  12.124  15.116  0.0600  0.1687 -0.0634
24444W        W40518  10.789   4.842   2.963  0.1612 -0.1546  0.0768
24445W        W40519   2.048  10.018   1.462 -0.2432 -0.1239  0.1349
24446W        W40520  17.263   3.217   0.534  0.3451 -0.3564 -0.1675
24447W        W40521   5.939   4.804  12.041  0.0058  0.0527 -0.2292
24448W        W40522  11.619   7.774  12.871 -0.1374 -0.1470  0.1256
24449W        W40523   3.876  12.908   4.652 -0.0931  0.0585 -0.0261
24450W        W40524  14.852  16.652   4.479 -0.0623  0.1832 -0.1304
24451W        W40525  10.799  13.201   3.722  0.0231 -0.0056  0.2593
24452W        W40526   2.713  12.067  11.093 -0.0648  0.0152  0.1516
24453W        W40527   6.921   3.046   3.055 -0.0070  0.1787 -0.2204
24454W        W40528  17.259   5.300   1.414  0.0634  0.0036 -0.1585
24455W        W40529  16.643  11.224  15.633  0.0713 -0.0055  0.0437
24456W        W40530  13.566  13.155  14.552 -0.1532  0.2366 -0.2878
24457W        W40531  14.274   9.120  11.921  0.0018 -0.2390  0.5390
24458W        W40532  17.739   4.686   0.535  0.0439 -0.2876 -0.3517
24459W        W40533   0.273   0.185   1.551  0.2767  0.1322  0.1487
24460W        W40534   0.169   9.426   1.148 -0.0158 -0.0379  0.0917
24461W        W40535  15.799  15.426  12.229  0.2556 -0.3714 -0.2008
24462W        W40536   6.382   1.257  14.791  0.0287  0.0305  0.2611
24463W        W40537   5.627   9.594   4.248  0.0564  0.0869  0.1262
24464W        W40538  10.471  16.451   0.250  0.3372  0.1793 -0.2994
24465W        W40539   1.143   8.766   4.279 -0.0276  0.1843  0.1503
24466W        W40540   0.638   8.762   4.659  0.2251 -0.1016 -0.2061
24467W        W40541   9.319  14.569   0.052  0.2296  0.1216 -0.2127
24468W        W40542  15.074   4.646   1.173  0.0230  0.1216  0.1073
24469W        W40543  17.755  13.657  12.965 -0.0064  0.0497 -0.1146
24470W        W40544  13.531   9.058   5.208 -0.2967 -0.0358  0.0034
24471W        W40545  15.335   0.975  13.693  0.1509  0.1003 -0.0638
24472W        W40546   6.310  17.433  12.408 -0.0082 -0.1214 -0.2252
24473W        W40547   4.207   8.264  13.178 -0.0842  0.3120 -0.1529
24474W        W40548   9.160   2.812  15.124  0.2956 -0.1097  0.0631
24475W        W40549  10.824   5.972   4.267 -0.2306 -0.2661  0.2241
24476W        W40550  17.188  14.702  15.058 -0.1499  0.1581 -0.1584
24477W        W40551  13.017  15.670  15.162 -0.0676 -0.0406 -0.2378
24478W        W40552   4.674   1.188   1.557 -0.0587 -0.3770  0.3278
24479W        W40553   3.142   0.025  11.690  0.0647 -0.2399  0.2057
24480W        W40554   3.646  18.094   3.540 -0.1200  0.1129  0.1446
24481W        W40555  11.153   5.336   3.289  0.0110 -0.0024  0.2615
24482W        W40556   6.047  17.189   3.684 -0.0261 -0.0490  0.2526
24483W        W40557  15.146   8.453  13.375  0.0592 -0.0896  0.2092
24484W        W40558  14.033   2.436   2.873  0.0796  0.2627 -0.0332
24485W        W40559  14.789   7.201  11.689 -0.1014  0.1813  0.3854
24486W        W40560  12.450  14.106  15.825 -0.0552  0.1004 -0.1170
24487W        W40561  15.446  10.145  12.477  0.1991 -0.0427 -0.0181
24488W        W40562  14.224   7.824   5.101 -0.1244 -0.5301 -0.1052
24489W        W40563   1.563  13.543   2.591  0.2510 -0.1311  0.2011
24490W        W40564  15.928   9.052   1.023  0.0785 -0.0724 -0.1012
24491W        W40565  12.346  10.461   5.110 -0.0749  0.0783 -0.0697
24492W        W40566   7.820   8.811   3.479 -0.2229 -0.2439  0.2532
24493W        W40567  15.877   6.548   0.927 -0.2533 -0.1424 -0.2015
24494W        W40568  10.304  12.035   1.103  0.0533  0.1924  0.0887
24495W        W40569   2.848  16.336   2.490 -0.1257 -0.0722  0.2518
24496W        W40570  16.352  12.800  16.017 -0.3371 -0.1673  0.1025
24497W        W40571  15.057   9.837   4.640  0.0446  0.1323  0.0174
24498W        W40572  18.086   7.969   0.599  0.2007 -0.0116 -0.2296
24499W        W40573   8.676   2.918  15.990  0.1072 -0.2080  0.1593
24500W        W40574  17.645   9.900   2.227  0.0450  0.1953 -0.0818
24501W        W40575   3.845  14.130  16.337 -0.1563  0.0955 -0.1721
24502W        W40576   3.959  10.415  10.232  0.3113 -0.0607 -0.1123
24503W        W40577   6.750  12.221  12.418 -0.0915  0.0303  0.0610
24504W        W40578  15.184  13.374  14.974  0.4362  0.3670 -0.0874
24505W        W40579  10.321  16.920   1.177  0.0450  0.1668 -0.1568
24506W        W40580  16.660  17.116   4.119 -0.4049  0.0832 -0.1833
24507W        W40581   2.789  10.078  14.829  0.0906  0.2060  0.1313
24508W        W40582   6.365   0.429   4.876 -0.1560  0.2563 -0.0814
24509W        W40583   7.667  16.551   0.940  0.0117 -0.0475  0.1981
24510W        W40584   0.536   9.746   1.216  0.2612 -0.2544 -0.0737
24511W        W40585   4.590   1.431   0.751  0.1130  0.0359  0.2087
24512W        W40586   2.784  11.824  13.902 -0.0220 -0.0210 -0.0444
24513W        W40587   4.768  11.763   2.218 -0.0225 -0.3203  0.1252
24514W        W40588   2.092  15.642  15.668 -0.2841 -0.2461  0.2746
24515W        W40589  17.275  16.967  14.049 -0.0662  0.1804 -0.2240
24516W        W40590   9.658  18.178  12.870 -0.2954 -0.0580  0.2194
24517W        W40591  10.267   6.665  13.491  0.0822 -0.1388 -0.0340
24518W        W40592   8.695   9.143   5.172  0.1116 -0.0291  0.0287
24519W        W40593   9.817   9.612  13.277  0.0751  0.2575 -0.2473
24520W        W40594   6.681   9.378   3.387  0.4242  0.2173 -0.0034
24521W        W40595   0.973  10.754  15.329 -0.1136 -0.0070 -0.0219
24522W        W40596  16.060  14.361   0.016 -0.0049 -0.0174  0.1412
24523W        W40597  17.978   5.798  11.883  0.0241 -0.1404 -0.1983
24524W        W40598   4.105   0.649  15.621 -0.1783  0.1221  0.3772
24525W        W40599   6.663  15.677   1.062  0.0398  0.3444 -0.0668
24526W        W40600  11.772   2.280  16.171 -0.0446  0.0313  0.2304
24527W        W40601  15.258  11.524  11.524  0.0860  0.1437 -0.1747
24528W        W40602   7.968   4.061   5.087  0.0968 -0.1677 -0.0999
24529W        W40603  14.746   8.338  12.054 -0.5349 -0.2816 -0.2593
24530W        W40604   6.540   2.304   5.381 -0.1178  0.0007 -0.1220
24531W        W40605   3.743   5.600   5.440 -0.2080  0.2561 -0.0217
24532W        W40606  17.669   4.751   3.810 -0.1203 -0.2053 -0.0047
24533W        W40607  13.789   9.026  14.685  0.0688  0.0550  0.1728
24534W        W40608  15.555  15.415   0.882  0.1848 -0.1601  0.1602
24535W        W40609   6.374   9.863  15.669 -0.1401 -0.1234  0.1514
24536W        W40610   0.664  11.800   2.569  0.0425  0.0083 -0.3802
24537W        W40611  12.456  11.296   5.700 -0.0036  0.0213  0.1636
24538W        W40612   0.109   0.979   0.848 -0.0472 -0.4535 -0.1031
24539W        W40613   5.028   5.090  15.160 -0.0923  0.3844 -0.0960
24540W        W40614   9.962   6.374  11.792 -0.2196  0.1050  0.2323
24541W        W40615   1.547  12.340  11.799  0.0276 -0.0456 -0.0673
24542W        W40616   4.490   3.886  13.416 -0.0499  0.0915 -0.2045
24543W        W40617   6.088  14.452  14.122 -0.1462 -0.0635 -0.1958
24544W        W40618   9.318  15.865  15.775  0.1329  0.1104  0.2011
24545W        W40619  11.439   7.891  13.741  0.2225 -0.0340  0.0843
24546W        W40620   0.278  17.034  14.481 -0.3362 -0.1854  0.1166
24547W        W40621   7.422   0.484  14.033  0.3427  0.1763  0.3702
24548W        W40622  12.873  12.960   3.286 -0.1608  0.0044  0.3395
24549W        W40623  11.975   7.909   1.979 -0.1955  0.0587  0.1023
24550W        W40624   0.227   7.155  13.971 -0.3592  0.0068 -0.0965
24551W        W40625  10.787  12.843  12.115  0.2227 -0.1400 -0.0623
24552W        W40626   9.745   2.623   5.979  0.3407  0.1350 -0.0194
24553W        W40627   5.513  16.176   2.625 -0.1876 -0.3147 -0.0611
24554W        W40628   2.609  16.466  15.682 -0.2487  0.2290 -0.0466
24555W        W40629   8.354   5.716  12.029  0.1020 -0.0996  0.1110
24556W        W40630   0.397  17.188   2.915 -0.0997 -0.1407  0.0332
24557W        W40631  13.007   3.900  15.190  0.3963  0.2601 -0.0669
24558W        W40632  11.725   7.213   5.359  0.2083 -0.1563  0.0031
24559W        W40633  16.276  13.468   4.479 -0.0527 -0.1193  0.2043
24560W        W40634  15.076   8.418   3.516 -0.2123 -0.0646 -0.1936
24561W        W40635  16.016   0.730   3.434  0.0910 -0.0042 -0.0705
24562W        W40636   9.573  15.103   3.212 -0.1876  0.0267 -0.1605
24563W        W40637   9.105  15.554  14.335 -0.0443  0.1473 -0.0042
24564W        W40638   9.554   6.110  11.837  0.1807 -0.2347 -0.1561
24565W        W40639   6.130  15.607  11.866  0.2429  0.2220 -0.2040
24566W        W40640   4.311  10.423  15.995  0.1590 -0.0122  0.2100
24567W        W40641  10.103   8.057   1.615 -0.0648 -0.0688 -0.0902
24568W        W40642   8.645   7.749   1.905 -0.2164  0.3670  0.1327
24569W        W40643   5.073  10.196   4.454  0.1969 -0.2250 -0.1686
24570W        W40644   3.132   4.608   0.481 -0.5344 -0.0449  0.1740
24571W        W40645  14.964   7.618   4.157 -0.0914 -0.3072  0.0340
24572W        W40646   3.148   5.990  11.710  0.2371 -0.1214 -0.1238
24573W        W40647   5.680   7.434   1.530  0.0229 -0.2551  0.2244
24574W        W40648  12.068   4.776   0.031 -0.1078 -0.0978 -0.1759
24575W        W40649   4.780   5.794  14.493  0.1310  0.0671 -0.0179
24576W        W40650   1.614   4.280   4.189 -0.2235  0.1119 -0.0923
24577W        W40651  10.860  10.785   4.179 -0.0844  0.0473 -0.1430
24578W        W40652  13.108   9.924   1.130  0.3228  0.0474  0.1414
24579W        W40653   8.065  14.495  15.864 -0.1228 -0.1136 -0.1089
24580W        W40654  15.825  16.563  16.212  0.1691  0.1818 -0.0053
24581W        W40655  13.759   9.477   0.388  0.1322 -0.0793  0.1038
24582W        W40656   7.267   7.991   1.576  0.1883 -0.0437  0.1500
24583W        W40657   5.213   9.144  11.040  0.0900  0.1369 -0.3930
24584W        W40658  10.805  17.350   4.422  0.0047 -0.0685  0.1757
24585W        W40659   1.447  13.420   4.504  0.1465  0.3661 -0.2026
24586W        W40660   8.047  11.355   6.270  0.1697  0.2426 -0.2219
24587W        W40661  14.871  10.038  13.210  0.1365 -0.0279 -0.0267
24588W        W40662  11.619  12.341  12.203  0.0075 -0.1370 -0.0745
24589W        W40663   3.472  10.019  11.819  0.1497  0.1823  0.4623
24590W        W40664  17.475   6.811   1.904  0.3124  0.3599 -0.0566
24591W        W40665   2.622  16.634   1.758  0.1364  0.2241  0.0493
24592W        W40666  16.095   0.384  15.981  0.1329  0.3573 -0.1337
24593W        W40667  15.036   9.969  13.641  0.1315  0.0528 -0.1125
24594W        W40668  13.652  10.036  15.449 -0.1200  0.2941  0.0865
24595W        W40669   0.418  14.804  13.742  0.3500 -0.1103  0.2184
24596W        W40670  17.305  16.870  11.079 -0.0075 -0.2026  0.0009
24597W        W40671   4.682  15.227  14.814  0.4490 -0.0286  0.3628
24598W        W40672  12.369  13.506   3.512 -0.1888 -0.0986 -0.2334
24599W        W40673   7.936  17.942   5.410 -0.1325 -0.1456 -0.0820
24600W        W40674  15.613  15.165   1.992  0.3158 -0.3419 -0.1378
24601W        W40675  15.420   0.392  12.561  0.0325  0.0944  0.0708
24602W        W40676   6.120  17.528   3.015 -0.0329 -0.1931 -0.0927
24603W        W40677   1.004   8.253  16.392  0.0779  0.1775  0.0566
24604W        W40678   5.227   5.838  13.157  0.1406 -0.0600  0.4781
24605W        W40679   5.564  17.148   3.817  0.0308 -0.1431  0.4674
24606W        W40680   2.923  12.594   2.654  0.1813  0.1025 -0.0028
24607W        W40681  14.212   8.916  13.155  0.1231  0.2316 -0.2237
24608W        W40682  16.326   5.228  16.370 -0.3135  0.0249  0.1655
24609W        W40683  14.778  18.160  13.492 -0.2655 -0.0475  0.2630
24610W        W40684   0.157  14.457  14.001 -0.0266 -0.0740 -0.2744
24611W        W40685  16.214  17.461   3.104 -0.3260 -0.0201  0.4188
24612W        W40686   3.147  11.132  12.712 -0.1067  0.0059  0.0388
24613W        W40687  12.550   3.671  12.387 -0.1477  0.1169  0.1028
24614W        W40688   5.735   4.894   0.693  0.1689  0.1673 -0.1836
24615W        W40689  10.614  17.225   2.305  0.2267 -0.2159 -0.2039
24616W        W40690   6.509   7.669  13.607 -0.1003  0.2117 -0.1268
24617W        W40691   6.829   7.220   2.017 -0.1250 -0.0540 -0.0891
24618W        W40692  13.415  12.282   4.951 -0.1163 -0.0436  0.0792
24619W        W40693   3.652   4.620   5.085  0.0812  0.1386  0.1472
24620W        W40694  11.770   2.127   5.888 -0.0880 -0.0768 -0.0450
24621W        W40695  12.829  13.919   1.145 -0.1705  0.0298  0.3383
24622W        W40696  10.321   1.978  14.997  0.0250  0.1359  0.0204
24623W        W40697   3.361   3.518  14.104  0.0414  0.1001  0.3560
24624W        W40698  10.620  12.510   4.054  0.0457  0.0013 -0.0735
24625W        W40699  11.277   9.921   2.207 -0.1140  0.0231  0.0513
24626W        W40700  15.660   7.119  15.407  0.1542 -0.0590 -0.1554
24627W        W40701   4.523  16.591   0.681 -0.2770 -0.2132  0.3230
24628W        W40702  10.994  15.347   1.128  0.2893  0.2382 -0.1063
24629W        W40703   4.329  13.003  16.391  0.4612  0.2130 -0.0560
24630W        W40704  11.706   6.763   5.668  0.2312  0.2126  0.1139
24631W        W40705   8.572   3.581   5.487 -0.3666  0.2292  0.0796
24632W        W40706  14.496   4.085  15.395  0.1821  0.0497  0.3352
24633W        W40707   6.932  17.128   3.655 -0.0829 -0.1482  0.0780
24634W        W40708   9.198  11.637   4.194  0.4507 -0.0930  0.4424
24635W        W40709   9.931  16.991  14.810  0.0313 -0.1055  0.4529
24636W        W40710  14.908  12.557   2.012  0.1848  0.0052 -0.0625
24637W        W40711   1.774  14.687  11.837  0.4311  0.1883 -0.2156
24638W        W40712   2.948   2.623   4.829  0.4172 -0.0049  0.1986
24639W        W40713   1.984  14.446   1.630 -0.0001  0.1542  0.1947
24640W        W40714   9.548  10.072   5.922 -0.0505  0.1917  0.2475
24641W        W40715   2.066  15.521   5.501  0.3513 -0.1410  0.2018
24642W        W40716   1.660   1.740   0.378  0.1349 -0.0017  0.0357
24643W        W40717   7.470  14.754  16.126 -0.1906  0.0414  0.0799
24644W        W40718   2.254  10.289  14.823 -0.2771  0.0628  0.2610
24645W        W40719   2.438   2.187  14.814 -0.0120  0.2482 -0.2353
24646W        W40720   3.196   4.058   2.445  0.0780  0.4522  0.1743
24647W        W40721   5.805  13.569   1.203 -0.0715 -0.1848 -0.2110
24648W        W40722   3.011  11.136  15.568  0.1084 -0.0765  0.0895
24649W        W40723   6.316   6.718  13.102  0.1991 -0.2807 -0.0495
24650W        W40724  15.137   2.509  12.911  0.0300  0.0585 -0.3763
24651W        W40725   7.512   3.640   3.896  0.2133 -0.6072 -0.1115
24652W        W40726   1.209  12.734  14.379  0.0401 -0.1566 -0.2973
24653W        W40727  15.467  17.841  14.161 -0.3582  0.0599 -0.3396
24654W        W40728  13.971   8.254  15.267 -0.3505 -0.1304 -0.1676
24655W        W40729  18.095  14.313   0.648 -0.3351 -0.0892 -0.0510
24656W        W40730   3.422   6.842  13.161 -0.1591 -0.1758 -0.0144
24657W        W40731   0.530  12.008  14.972  0.2117  0.2737  0.1675
24658W        W40732  13.988   0.490  15.432 -0.0051  0.0353  0.2246
24659W        W40733  16.793   4.745  15.241  0.0544  0.0993  0.1589
24660W        W40734   4.502  17.445   0.933 -0.0101 -0.0635  0.3652
24661W        W40735   7.104   7.124   1.600  0.0540  0.1434 -0.0945
24662W        W40736   9.785  17.625   0.620  0.3191  0.0043 -0.1947
24663W        W40737   6.460  17.958   3.865  0.1408  0.2376 -0.0257
24664W        W40738  16.857  13.513   4.469  0.0246 -0.1783 -0.0215
24665W        W40739  12.919   0.456  15.238 -0.0851  0.1219 -0.2248
24666W        W40740   7.295   4.522   1.212  0.0197  0.1968 -0.0288
24667W        W40741  11.855  14.834   5.878 -0.1117 -0.1620 -0.0226
24668W        W40742   4.832   8.663   3.501 -0.0246 -0.1487 -0.1393
24669W        W40743  17.979  12.858   5.777  0.2474 -0.2494  0.0667
24670W        W40744   2.194   8.272  11.021 -0.0771 -0.0539  0.3136
24671W        W40745   2.853  17.153   1.979 -0.1052  0.1613  0.1753
24672W        W40746  12.358   2.740   3.324  0.2832  0.1855  0.1199
24673W        W40747   1.948  14.241  13.698 -0.0848 -0.1487  0.1069
24674W        W40748   4.010   1.223   3.408  0.0621  0.1599  0.3275
24675W        W40749   5.661   9.437  12.880 -0.0495 -0.3822  0.1162
24676W        W40750  18.134  12.860   3.275 -0.1988 -0.5168 -0.3319
24677W        W40751   2.624   7.175   0.603 -0.0301  0.1033  0.0104
24678W        W40752  15.040   0.633  15.132 -0.1555  0.0160  0.1575
24679W        W40753   5.248  16.447  11.799  0.0162  0.0459  0.2483
24680W        W40754  11.652  16.113   4.313  0.0432 -0.2262  0.2036
24681W        W40755  15.796  16.639   4.717 -0.2302  0.0587  0.0372
24682W        W40756  16.393   6.921  13.532 -0.0555 -0.1257 -0.1580
24683W        W40757   1.061  15.819   2.094  0.0582  0.1329 -0.1670
24684W        W40758   6.639  12.128   5.391  0.0905  0.1709  0.0900
24685W        W40759   4.870  16.433   3.966 -0.1248  0.0905  0.1804
24686W        W40760  15.575   7.433  15.013 -0.1454 -0.3174  0.0405
24687W        W40761   1.937  18.169   2.701  0.2267  0.1988 -0.1175
24688W        W40762  12.312   9.485   0.014 -0.1534  0.0841  0.1211
24689W        W40763   2.762   6.056  14.945 -0.1220 -0.0101  0.0607
24690W        W40764   6.175  13.604  11.226 -0.0242 -0.0548  0.1143
24691W        W40765   7.552   6.233  13.031  0.1907 -0.2143  0.3616
24692W        W40766   2.658   4.050  11.043  0.0119  0.0025  0.2858
24693W        W40767  17.726  15.621  13.760 -0.1376  0.0783 -0.3496
24694W        W40768   0.460  15.873   5.571 -0.4538 -0.0281  0.0687
24695W        W40769   8.820  10.771  14.413  0.0099  0.0172  0.1386
24696W        W40770  14.068   3.072  13.089 -0.0210 -0.2412  0.0993
24697W        W40771   9.338  14.736   3.918 -0.1346  0.1350 -0.0709
24698W        W40772  16.193  11.406  15.384 -0.1109 -0.1637  0.0863
24699W        W40773   0.166   8.501  16.482  0.2274  0.0096 -0.0992
24700W        W40774  13.892   8.656   3.844 -0.1492 -0.3645 -0.2426
24701W        W40775  14.761  13.891  11.132  0.0778  0.1848  0.0836
24702W        W40776  15.389   7.872  12.180 -0.2708  0.0561  0.0575
24703W        W40777  10.829   3.460  14.747 -0.0726  0.0052 -0.0838
24704W        W40778   8.585   7.773  15.753  0.1095 -0.0959  0.1389
24705W        W40779   2.582   3.440   4.203  0.1376  0.0535 -0.1499
24706W        W40780  14.395  11.151   1.375 -0.5501 -0.2341  0.1753
24707W        W40781   9.467  11.916   0.527  0.1260  0.1266  0.0958
24708W        W40782  10.539  13.390  13.273 -0.0587 -0.0337  0.0946
24709W        W40783   7.565  12.201  14.723  0.1770 -0.1291  0.1935
24710W        W40784  16.810   0.347  11.920 -0.0322  0.1129 -0.1224
24711W        W40785   8.278  11.144  14.418 -0.1228 -0.0478 -0.0454
24712W        W40786   8.458   3.278  16.305 -0.0226  0.0588  0.0043
24713W        W40787   6.578   9.461  12.899 -0.0623 -0.0071 -0.4075
24714W        W40788   5.254   8.635  11.222 -0.1127 -0.2285 -0.2662
24715W        W40789  14.848   0.969  14.249  0.2312  0.0657 -0.1898
24716W        W40790  16.127  10.041   2.566 -0.1010 -0.0719  0.1168
24717W        W40791  15.740  12.507   2.276  0.0500 -0.1877 -0.1913
24718W        W40792   1.926   6.234  12.879  0.0983 -0.2950  0.1364
24719W        W40793   2.838  12.210  15.598 -0.1762 -0.1707 -0.1563
24720W        W40794   0.586   8.557   5.162 -0.3548  0.2027  0.1830
24721W        W40795   6.108   2.578  14.580 -0.4343  0.1631  0.0771
24722W        W40796  16.302   3.794   0.553  0.1832 -0.0629 -0.2120
24723W        W40797   9.806  16.284   3.265  0.1271 -0.0061 -0.3711
24724W        W40798   9.629   8.901   3.268 -0.1322  0.2433 -0.3440
24725W        W40799   5.019  16.463   2.520 -0.1871  0.2263 -0.0638
24726W        W40800  12.935  15.807  13.230  0.1985 -0.2629 -0.1931
24727W        W40801  16.039   2.851   2.484 -0.0493 -0.0634  0.1680
24728W        W40802  11.866  17.244  11.134 -0.0645  0.0471  0.0389
24729W        W40803   8.397  11.688  12.597  0.1580 -0.1641 -0.2742
24730W        W40804  14.355  17.186  14.377 -0.2144  0.0748  0.0553
24731W        W40805  17.327   7.649   4.346 -0.0135  0.0795  0.4174
24732W        W40806   3.188  11.858  14.885  0.0464  0.1974 -0.1130
24733W        W40807   9.961   5.540   0.642  0.2715  0.0963  0.0916
24734W        W40808   4.588   7.709  15.148 -0.2994 -0.1013 -0.0329
24735W        W40809  10.026  15.790  14.331 -0.4813 -0.2820 -0.1146
24736W        W40810   5.702   9.979  12.693  0.2324 -0.1544  0.1212
24737W        W40811   1.437   3.080  16.081  0.0783 -0.2585 -0.4787
24738W        W40812  11.245   2.570  14.353 -0.0254  0.2491 -0.0415
24739W        W40813  16.172  11.125   3.596 -0.1963 -0.0363  0.2470
24740W        W40814   7.315   1.205   3.425 -0.1064 -0.4706  0.2837
24741W        W40815   5.002  13.791   0.166  0.0300  0.1040 -0.0484
24742W        W40816  10.750   4.212  15.912 -0.0475 -0.0870 -0.0846
24743W        W40817   9.357   1.064   1.994 -0.0192  0.0058  0.3484
24744W        W40818   1.110  13.637  11.029  0.1900 -0.1613 -0.2627
24745W        W40819  13.934   1.192   2.742 -0.0035 -0.2059 -0.1022
24746W        W40820  14.651   6.742  15.287  0.1440 -0.1089 -0.0079
24747W        W40821  17.875  13.202   2.370 -0.1253  0.1024  0.1721
24748W        W40822   7.436  17.075   0.766  0.0223 -0.0785 -0.1773
24749W        W40823   6.070  16.245   3.123  0.3268  0.0244 -0.3358
24750W        W40824   9.455  17.967   4.626 -0.4219 -0.1386 -0.1425
24751W        W40825   1.422   6.286   2.443  0.0189  0.2136 -0.4706
24752W        W40826   0.876  12.026  11.484  0.1255  0.0868 -0.2638
24753W        W40827   8.728  13.948  12.234  0.1378 -0.2812 -0.0793
24754W        W40828   2.002   4.900   3.209  0.2652 -0.0543 -0.2007
24755W        W40829   8.960   6.388  12.971 -0.0893 -0.0652  0.2363
24756W        W40830  11.038  13.485  14.949 -0.2732 -0.1833 -0.0337
24757W        W40831   7.735  12.548  14.375 -0.0985  0.0273 -0.0243
24758W        W40832   5.957  15.744   0.394 -0.1420  0.0511  0.0335
24759W        W40833   2.734   9.517  15.672 -0.0070 -0.1909  0.1493
24760W        W40834   2.519   6.478   3.625 -0.0246 -0.1385  0.1547
24761W        W40835   3.329  14.331   0.021 -0.3186  0.1192 -0.3654
24762W        W40836   9.174   6.358   5.064 -0.0225  0.4199  0.2063
24763W        W40837  17.661  15.873   1.301 -0.1687  0.0203 -0.1675
24764W        W40838   9.113   9.909  16.100 -0.0020  0.3258  0.1270
24765W        W40839  11.993  14.022   5.213 -0.1401 -0.0360  0.0661
24766W        W40840  15.230   8.689  14.717  0.0385  0.1845  0.4617
24767W        W40841   9.655  13.005  14.249  0.0875 -0.2278 -0.0988
24768W        W40842  17.766   0.829   3.792 -0.3345  0.0910  0.0651
24769W        W40843  14.245   4.338  15.718 -0.2816 -0.0324 -0.2610
24770W        W40844   6.593   2.428   1.885  0.1139 -0.3761 -0.1039
24771W        W40845   9.735  18.039   3.991  0.4240 -0.0354  0.0843
24772W        W40846   2.289   0.628  14.519  0.3978 -0.2969  0.1655
24773W        W40847   7.015  15.452  14.207 -0.0245 -0.0796  0.0582
24774W        W40848  14.518   3.190  15.821 -0.2345 -0.0534  0.0000
24775W        W40849   0.677   4.699   3.895 -0.2686  0.1699 -0.2003
24776W        W40850  14.498  11.785   2.386 -0.0742 -0.2988 -0.0823
24777W        W40851  17.940   2.111  15.510  0.2812 -0.0976 -0.2193
24778W        W40852  11.378   7.853  15.861  0.2391 -0.2055  0.0446
24779W        W40853   2.738  14.394  15.556  0.1415 -0.2685 -0.0841
24780W        W40854  14.924   1.350  14.631 -0.0419  0.2139  0.1458
24781W        W40855  13.720  17.085   4.048  0.2703  0.0537  0.1938
24782W        W40856   0.438  13.529  13.218 -0.1854 -0.2058  0.1910
24783W        W40857   9.536   8.989   2.553 -0.0551  0.0568  0.4255
24784W        W40858   6.139  14.613  11.014  0.0283 -0.3036  0.2189
24785W        W40859   1.512  13.722  15.407 -0.3773 -0.2050 -0.0696
24786W        W40860   7.836   8.147  11.891 -0.2587 -0.0457  0.0365
24787W        W40861  11.031   5.637  12.920  0.1975  0.3167 -0.0501
24788W        W40862  11.620   5.335   0.434 -0.0257 -0.0790 -0.0090
24789W        W40863   7.915   3.510  14.765  0.0163 -0.2406  0.0436
24790W        W40864  18.205  16.486  10.981  0.2976  0.2346 -0.0752
24791W        W40865   4.833  12.804   2.975  0.0538  0.0410 -0.1383
24792W        W40866   6.324   3.682   0.634 -0.1736 -0.1486  0.0721
24793W        W40867  14.429  11.958   5.209 -0.2511  0.0762 -0.0203
24794W        W40868   0.475  10.077   3.777 -0.1639 -0.2656  0.2683
24795W        W40869  12.794   7.155  13.700 -0.3919 -0.1060 -0.1203
24796W        W40870   7.570  13.273   1.640 -0.1147 -0.0325  0.2756
24797W        W40871   0.351  14.144  11.888  0.3345 -0.0503  0.0816
24798W        W40872   1.901  14.650   5.046 -0.0009 -0.0539  0.0382
24799W        W40873   2.954  12.781  12.762  0.0360  0.2120  0.1334
24800W        W40874   5.048  14.484   2.982 -0.2653  0.1827  0.1969
24801W        W40875   7.553  12.626   2.487  0.2818 -0.2938 -0.1057
24802W        W40876   4.232   2.680   3.547 -0.4340 -0.2427 -0.0497
24803W        W40877   1.253  16.536  10.606  0.3206 -0.2889 -0.0657
24804W        W40878   1.271  17.988   4.753  0.1312  0.1634 -0.1119
24805W        W40879   2.097  18.199  15.043 -0.1232  0.0770  0.3287
24806W        W40880  16.802  17.680   2.388 -0.0729  0.1285  0.0413
24807W        W40881  12.802   5.667   0.291  0.2492 -0.2295 -0.0526
24808W        W40882   0.015  11.761  13.649 -0.0565  0.3851  0.0240
24809W        W40883   5.046  18.137   5.855  0.2989  0.0853 -0.0123
24810W        W40884   3.535  12.542   0.458  0.0312 -0.0156 -0.2870
24811W        W40885  12.475  15.435   4.207  0.2892 -0.2632 -0.3454
24812W        W40886   4.901   0.419   6.574 -0.0039  0.1230 -0.0229
24813W        W40887  10.864   7.294   2.612  0.0962 -0.1441  0.1867
24814W        W40888  15.589  12.240   3.276 -0.3726 -0.0348  0.2612
24815W        W40889   4.580  15.144   4.767  0.1019 -0.0497 -0.1295
24816W        W40890  16.534  12.056  13.837 -0.1121 -0.2043  0.1684
24817W        W40891   3.173  17.380   0.706  0.2927 -0.0357 -0.2581
24818W        W40892  16.556  15.967   1.314  0.1080  0.3434  0.0186
24819W        W40893  13.195   0.982  13.963 -0.0272 -0.2132 -0.1060
24820W        W40894   4.664  13.404   1.333 -0.1745 -0.0288 -0.1305
24821W        W40895   2.064   9.528  13.156  0.0444  0.1239 -0.2302
24822W        W40896  17.323  14.593   2.734 -0.4049 -0.1314  0.1658
24823W        W40897   8.822  15.052   5.281  0.1993 -0.0262  0.1914
24824W        W40898   2.553  12.399   1.879  0.2243  0.0365  0.3453
24825W        W40899   1.230   7.918   3.215 -0.3327 -0.0606  0.3323
24826W        W40900   7.900  17.514  15.844 -0.0305  0.0555 -0.0634
24827W        W40901   9.629   3.958   2.831  0.0351  0.1126 -0.1561
24828W        W40902   7.553   4.357  11.034  0.0348  0.1910  0.2109
24829W        W40903   0.188  14.768  11.714  0.2924  0.1859 -0.1440
24830W        W40904   6.721   7.608   0.892 -0.3756  0.1636  0.0554
24831W        W40905   2.814   1.620  11.909  0.0784 -0.1899 -0.0548
24832W        W40906   0.563   1.322   0.897 -0.1274  0.1779  0.0699
24833W        W40907   7.095   5.736   4.950  0.0586 -0.1422 -0.2881
24834W        W40908   0.984  12.409   4.485 -0.3522  0.1503 -0.1921
24835W        W40909  14.942   9.414  11.964 -0.3093 -0.1039  0.0637
24836W        W40910  11.890  16.444  13.817  0.0218  0.0112  0.0025
24837W        W40911  17.509   8.131  15.018  0.0344 -0.0726  0.2946
24838W        W40912   2.024   0.299   2.025  0.1078 -0.3262 -0.0114
24839W        W40913   3.052  10.457   3.593  0.0997 -0.2200 -0.1739
24840W        W40914   3.664  15.762   3.290 -0.3039  0.0231 -0.1862
24841W        W40915  16.750  15.753   5.929  0.3244  0.1237 -0.1713
24842W        W40916   2.836  11.921   1.729  0.0746  0.1979 -0.1867
24843W        W40917   9.322   2.982  13.290 -0.3923 -0.0347 -0.1720
24844W        W40918  14.707  11.434   0.864 -0.0204 -0.2396  0.0174
24845W        W40919   1.326  10.098  16.401  0.0038  0.2248 -0.0625
24846W        W40920  12.741  12.967  15.122 -0.0118 -0.1205 -0.1258
24847W        W40921  12.469   3.402   3.661  0.0552  0.1243 -0.1446
24848W        W40922  15.749   1.048  15.936 -0.0861  0.0577 -0.2648
24849W        W40923   8.003  11.887   0.501 -0.2614 -0.1900 -0.0435
24850W        W40924  17.464  11.905   4.706 -0.1774  0.0764  0.1428
24851W        W40925   5.926   4.795  14.627 -0.1556  0.3492 -0.1546
24852W        W40926  17.212  12.065  11.744 -0.1331 -0.2231 -0.1523
24853W        W40927   3.535   4.448   3.524 -0.1188  0.1508  0.0026
24854W        W40928   7.328   1.048   6.388  0.0765 -0.0173  0.1620
24855W        W40929  14.574  14.449   2.649 -0.0856 -0.1245 -0.2385
24856W        W40930   2.151  14.094   3.662  0.1903  0.0274 -0.0664
24857W        W40931   2.627   9.204  11.722  0.1794 -0.1649 -0.1442
24858W        W40932  14.158  14.408   4.485  0.0835  0.0750 -0.0585
24859W        W40933   0.948   9.587   4.614  0.1824 -0.1469 -0.1202
24860W        W40934   6.439   8.659  14.500 -0.1948  0.2163 -0.2786
24861W        W40935  13.299   4.918   0.846 -0.0614  0.0931 -0.2041
24862W        W40936  12.846   3.119   0.755  0.1967 -0.1269  0.1280
24863W        W40937  12.879   9.592  14.497  0.2278  0.3787  0.3582
24864W        W40938  13.092  13.948   1.556  0.1775  0.3506 -0.1756
24865W        W40939   1.957   0.073  13.575 -0.2045 -0.1213 -0.0902
24866W        W40940  13.292  17.983  13.363 -0.3441 -0.2662  0.3024
24867W        W40941   9.555  18.083  16.402  0.0737  0.2111  0.1787
24868W        W40942   4.854   7.291  11.951 -0.0774  0.1699 -0.1662
24869W        W40943   6.324   3.665   1.291  0.2933 -0.0210 -0.2086
24870W        W40944   2.524   9.128   5.429 -0.3338 -0.1700  0.1966
24871W        W40945   7.935  14.773   6.258  0.2231 -0.1512  0.1231
24872W        W40946   7.779   9.890   1.508 -0.3611 -0.0611 -0.0012
24873W        W40947  12.713   9.561  16.176 -0.1615 -0.0734 -0.2095
24874W        W40948  15.885  18.231  15.720  0.0438 -0.1680  0.4354
24875W        W40949  15.653  16.000   2.755 -0.2742 -0.1627 -0.3655
24876W        W40950  15.713  10.944   2.121 -0.0207 -0.0617  0.1035
24877W        W40951   7.789  17.696   1.565 -0.0166  0.1776  0.1756
24878W        W40952   2.613   3.455   0.877 -0.2061 -0.0718  0.0744
24879W        W40953  16.765  10.221   0.495 -0.1802  0.1137 -0.0780
24880W        W40954   9.928  16.710   1.566  0.0736  0.0924 -0.1085
24881W        W40955   1.453   4.788  14.672 -0.0624  0.0193  0.4184
24882W        W40956   6.282  13.882  11.888  0.2473  0.0619  0.3219
24883W        W40957  13.062   7.795   4.084  0.0968  0.1095  0.0125
24884W        W40958   6.281   4.234  13.769 -0.0211  0.1330  0.1181
24885W        W40959  18.178  14.385   2.342 -0.0824 -0.2757 -0.1240
24886W        W40960   3.561   0.447   4.455 -0.2652  0.1705  0.1406
24887W        W40961  14.488   0.135  16.146  0.0084  0.1314 -0.2691
24888W        W40962  11.273   7.826   1.148  0.1882 -0.0444 -0.3215
24889W        W40963   4.661   9.051  11.719 -0.0750  0.1857  0.2501
24890W        W40964  17.621  13.134   2.770  0.1621  0.0927  0.1148
24891W        W40965   4.878   3.563  16.127 -0.0703 -0.1662  0.0873
24892W        W40966  12.206   0.934  13.228 -0.0382  0.0540 -0.1277
24893W        W40967  13.101  15.815  11.830 -0.0932 -0.3106  0.1934
24894W        W40968   8.954   9.171  13.191  0.0066 -0.1114  0.1403
24895W        W40969  10.814  15.695   2.431 -0.0583 -0.2164 -0.4311
24896W        W40970  10.946  11.859  11.789  0.1312 -0.2812  0.2114
24897W        W40971   4.765  15.869  16.048 -0.0387  0.1812 -0.2052
24898W        W40972  10.684  17.264   5.641  0.0458  0.3314 -0.0871
24899W        W40973  13.184  16.501  12.512 -0.0758 -0.2542  0.0856
24900W        W40974  10.027   4.450   3.601  0.1097  0.0349 -0.1928
24901W        W40975  10.979  13.317   3.253  0.1411  0.2847 -0.1358
24902W        W40976  14.307  12.430   2.836 -0.2385 -0.2610 -0.0150
24903W        W40977   4.199   1.410  12.185 -0.1080 -0.2663 -0.1325
24904W        W40978   4.726  16.999   2.382  0.0619 -0.1142 -0.0467
24905W        W40979  13.717   6.234   3.125  0.1661  0.0115  0.0132
24906W        W40980   6.720  10.008   3.316  0.0806  0.0238  0.2705
24907W        W40981   0.768  13.789  12.927  0.2385 -0.0395 -0.1420
24908W        W40982   8.977   0.691   0.996 -0.0895  0.1896 -0.4073
24909W        W40983  15.887   9.644   2.274 -0.1739 -0.0433  0.0493
24910W        W40984   5.296   3.728  14.592 -0.2131 -0.2312 -0.1905
24911W        W40985  14.815   2.954   3.990 -0.0314 -0.0327 -0.0621
24912W        W40986   3.885  17.698   2.828  0.2653 -0.3549  0.1229
24913W        W40987  12.036   6.625   1.321 -0.1003  0.2934 -0.1930
24914W        W40988   2.376   3.165  14.809  0.0211 -0.0641 -0.1024
24915W        W40989   6.625   5.448   4.785  0.2603  0.4485 -0.4091
24916W        W40990   3.182  12.439   0.103  0.1375  0.1093 -0.0617
24917W        W40991  11.656   0.070  15.778 -0.3859 -0.1590  0.1582
24918W        W40992  12.642   3.984  16.238 -0.1797  0.1141 -0.1370
24919W        W40993  15.762  12.124   0.260  0.0733  0.0118 -0.0430
24920W        W40994   8.213  14.444   3.342  0.0754 -0.2509  0.0776
24921W        W40995  10.131   3.217   2.464 -0.2682  0.1924 -0.1220
24922W        W40996   1.534   6.009  12.509  0.1947  0.0766  0.1666
24923W        W40997   5.923  13.850   4.412  0.2631 -0.2730 -0.0370
24924W        W40998   8.260   5.802  14.440 -0.2243  0.0942  0.2075
24925W        W40999   9.227   0.147  12.928  0.0582  0.0196 -0.0024
24926W        W41000   9.726   8.955  13.089  0.0417  0.0118 -0.1613
24927W        W41001  10.711  12.856  14.054  0.2681  0.4385 -0.1662
24928W        W41002  13.216   9.370   2.471 -0.0172  0.1229 -0.1091
24929W        W41003   5.638   1.795  15.675 -0.3975 -0.0201  0.1714
24930W        W41004  18.149   6.691  13.907  0.0541  0.0122  0.0648
24931W        W41005   1.575   7.099  16.244 -0.1740 -0.0328  0.3690
24932W        W41006  17.913   8.031   2.091  0.2117 -0.0742 -0.0575
24933W        W41007   3.285   6.998   0.056 -0.1873 -0.2674  0.0593
24934W        W41008  17.589   6.276  14.764  0.0301  0.4098 -0.0032
24935W        W41009  10.964   8.968  15.723 -0.1824  0.1144  0.2033
24936W        W41010  10.053   7.973  13.936 -0.0375 -0.0272  0.3584
24937W        W41011   1.544  12.104   3.532  0.5259 -0.0092 -0.2648
24938W        W41012   8.963   2.825  13.775 -0.1263 -0.0559  0.1246
24939W        W41013   5.893   9.166   4.375 -0.0232  0.0393 -0.1565
24940W        W41014  14.446  17.777   5.307 -0.0130 -0.3188 -0.0156
24941W        W41015  16.903   2.398  13.954 -0.0512 -0.0866  0.0904
24942W        W41016  10.143   4.972  15.601 -0.0348 -0.1170  0.0111
24943W        W41017   5.855   0.055   0.446  0.0984 -0.0805 -0.2854
24944W        W41018   8.115  16.808   5.852  0.0625 -0.0945 -0.0752
24945W        W41019   4.066  12.995   4.231  0.0507  0.2538  0.0657
24946W        W41020  15.622  12.665  15.239  0.0462 -0.2143  0.2231
24947W        W41021   0.578   7.117   3.608  0.2025 -0.0663  0.1702
24948W        W41022   1.279  13.784   4.135  0.1802  0.0103 -0.0475
24949W        W41023   5.253   8.374   4.978  0.1788  0.1629 -0.0685
24950W        W41024   3.314  13.202   3.435  0.2179 -0.0403 -0.1024
24951W        W41025   7.457  16.611  12.843  0.0705  0.0650  0.2252
24952W        W41026   7.510   6.148  14.493 -0.1334  0.2575 -0.1160
24953W        W41027  13.032   0.012   2.059 -0.0110 -0.2911 -0.2642
24954W        W41028  10.137   2.630   4.524  0.1096 -0.0763  0.0038
24955W        W41029  15.489  10.579   5.158 -0.2344 -0.0747 -0.2149
24956W        W41030   0.220   4.965   3.215 -0.2022  0.1917 -0.2229
24957W        W41031   7.116   1.975   4.732 -0.1368 -0.1535 -0.0580
24958W        W41032  18.025  11.930   3.324  0.1065 -0.0577 -0.0812
24959W        W41033   2.507   1.288  11.747  0.1979 -0.0769  0.0917
24960W        W41034   2.667   2.196   2.898 -0.1265  0.0195 -0.1570
24961W        W41035  17.336   7.510  12.117  0.1601 -0.0704  0.1686
24962W        W41036   1.909   4.608   1.137  0.1786  0.0554 -0.1925
24963W        W41037   1.349  13.156   0.052  0.0680  0.1530  0.3361
24964W        W41038   9.921   2.597  16.038  0.2950  0.0227 -0.2553
24965W        W41039  17.603   3.585   2.606  0.1542  0.1507  0.1601
24966W        W41040   6.119  13.394  16.101  0.0701  0.0428  0.1751
24967W        W41041  15.243   6.911   5.948 -0.0366  0.0378 -0.0728
24968W        W41042   5.821   6.908  13.944  0.1704  0.2700 -0.0450
24969W        W41043  14.441  13.562   2.836 -0.3128  0.2088 -0.0388
24970W        W41044   0.073   2.092  11.524 -0.0042 -0.2611 -0.3372
24971W        W41045   9.434   9.339  13.044 -0.4317 -0.0272  0.2601
24972W        W41046   8.809  10.370  15.396 -0.3826 -0.2067  0.1614
24973W        W41047  11.538   9.628   1.797  0.1446  0.0168 -0.1548
24974W        W41048   8.330   8.664  12.926  0.1630  0.0920  0.0956
24975W        W41049   9.080   5.822   2.735  0.0667 -0.1273 -0.0474
24976W        W41050  16.540   0.509   3.332 -0.0683 -0.0145 -0.0092
24977W        W41051  16.726  17.693  15.267  0.2600 -0.0634 -0.5432
24978W        W41052  15.791   0.134  13.460 -0.2979  0.1792 -0.1028
24979W        W41053   8.626  10.285   2.570 -0.0861 -0.0205 -0.0321
24980W        W41054  11.319   2.052  16.051 -0.1693  0.1285  0.0473
24981W        W41055   2.971  16.261  16.112  0.5611  0.0264  0.0113
24982W        W41056   5.548   3.756  13.509  0.0299  0.1440  0.4070
24983W        W41057   8.100  14.854   3.013 -0.1180 -0.1800 -0.2266
24984W        W41058   6.265   4.861  10.296 -0.0274  0.3358 -0.1843
24985W        W41059   9.344  12.427  14.951 -0.0256  0.0007  0.0440
24986W        W41060  14.960   6.254   3.270  0.4078  0.1951  0.0186
24987W        W41061   4.953   4.543  14.948  0.0784  0.0316 -0.1552
24988W        W41062   2.001  16.709   3.471 -0.0093  0.0202  0.1839
24989W        W41063  10.917  13.810   4.355 -0.1214  0.0092  0.1499
24990W        W41064  16.661  16.299   5.075 -0.0367 -0.0124 -0.1348
24991W        W41065  13.447   5.861  11.558 -0.1795  0.1532 -0.1852
24992W        W41066   2.327   4.668  12.761 -0.1467 -0.0274  0.2537
24993W        W41067   0.013  10.265   1.818  0.3016 -0.1830 -0.2191
24994W        W41068   8.979  16.799  11.825 -0.4488 -0.1415  0.0188
24995W        W41069  16.194   1.629   4.663  0.3640  0.3653 -0.4536
24996W        W41070  16.269   7.937  15.624  0.1406  0.0444 -0.2317
24997W        W41071  14.690   4.182  13.547 -0.1323  0.0194  0.2261
24998W        W41072  15.635   0.274  14.274 -0.1216 -0.0459 -0.3465
24999W        W41073  15.361  12.170  15.605 -0.1539  0.3370  0.2378
25000W        W41074  17.133   0.920   2.503 -0.0754  0.0919  0.2915
25001W        W41075   3.002   1.717   4.144 -0.0952  0.2017  0.1139
25002W        W41076   5.704   4.287   4.479 -0.0412 -0.0931 -0.1771
25003W        W41077  17.963  12.662   2.678  0.0047 -0.0107 -0.1526
25004W        W41078   6.640   1.343  16.292 -0.4540  0.0647  0.0429
25005W        W41079   8.047   6.910   1.702 -0.0330 -0.0641  0.3851
25006W        W41080   9.457   5.304  14.841 -0.1165  0.1472 -0.0106
25007W        W41081   9.043   2.503  16.013 -0.1411  0.1606  0.0860
25008W        W41082   5.858   8.505  12.418 -0.1011 -0.1331  0.0359
25009W        W41083   4.627  18.048   1.123 -0.1653 -0.2303 -0.0757
25010W        W41084   2.103  10.461  13.844  0.2196  0.0161 -0.1304
25011W        W41085  11.136   3.125  15.002  0.0814  0.3553 -0.2039
25012W        W41086   1.419  16.957  16.430 -0.0511  0.0463  0.0213
25013W        W41087   5.047  13.816   5.223  0.1233  0.1324 -0.0082
25014W        W41088   1.249   7.840  13.636  0.4415  0.1463 -0.0820
25015W        W41089  13.423   3.313   5.089 -0.1516  0.0734  0.1030
25016W        W41090  12.339   6.334   3.509 -0.0682  0.0471 -0.2113
25017W        W41091   9.707   4.708  16.457 -0.0553 -0.2424 -0.0425
25018W        W41092   6.920   3.961  15.904  0.0791 -0.0550 -0.0208
25019W        W41093  14.714  17.363  14.719 -0.3315 -0.4679  0.0115
25020W        W41094   5.783   4.448   3.453  0.2012  0.0056 -0.0721
25021W        W41095  13.597  14.748  15.791 -0.2558 -0.0217  0.1151
25022W        W41096  13.229   8.016   0.069 -0.3154  0.1232 -0.0219
25023W        W41097   3.697   7.508  11.385  0.0320 -0.0896 -0.1689
25024W        W41098   5.394  17.668   6.718 -0.2725  0.0639  0.0253
25025W        W41099  11.520  13.579  14.773 -0.1687  0.2309 -0.0687
25026W        W41100  14.424   7.209   4.846  0.1070 -0.2175  0.1219
25027W        W41101   4.679  14.982   5.342 -0.0815 -0.1732  0.3644
25028W        W41102   1.451  12.417  13.281 -0.2241  0.0131  0.2654
25029W        W41103  10.610  10.836  14.609 -0.1995  0.1725  0.3283
25030W        W41104  11.671  11.499   1.072  0.0955  0.3025 -0.3319
25031W        W41105   1.500   3.244  15.562 -0.0245  0.0161 -0.0084
25032W        W41106  13.269   4.024  11.527  0.5842  0.5110  0.2183
25033W        W41107  16.918   7.246   6.194  0.0520  0.1457 -0.1463
25034W        W41108   9.698   5.274  13.918  0.0224 -0.4096  0.1091
25035W        W41109  15.425   0.941  12.270 -0.3235  0.3063  0.0974
25036W        W41110   8.757   8.666   1.774 -0.2072  0.1028 -0.1026
25037W        W41111   0.303  13.294  13.677  0.0629  0.1624  0.0252
25038W        W41112  10.768   0.698  15.746 -0.0037  0.1341 -0.2481
25039W        W41113   2.222   7.435  14.709 -0.3927  0.0588  0.1891
25040W        W41114   5.863  15.913  13.454 -0.2136  0.1267  0.1627
25041W        W41115   6.318   7.292   4.640  0.0432 -0.1755 -0.0309
25042W        W41116   3.198  11.939  10.417  0.0774 -0.0040 -0.4228
25043W        W41117   8.495  15.799   4.601  0.0410  0.1559 -0.2283
25044W        W41118   5.223   3.698   1.303  0.0711  0.1771  0.0734
25045W        W41119   4.389  15.598  14.753  0.1004  0.5022 -0.2884
25046W        W41120  12.964  17.625  14.477 -0.2279  0.1005 -0.2992
25047W        W41121  16.581  10.846   1.085  0.2120  0.2674 -0.3027
25048W        W41122   4.537   7.154  15.989  0.0720 -0.1984  0.4096
25049W        W41123  10.304  12.777   4.510  0.1077 -0.2341 -0.1037
25050W        W41124   6.031   4.645   0.305  0.0823  0.0884 -0.0449
25051W        W41125  15.152  12.937   1.599  0.1864 -0.1848 -0.2051
25052W        W41126  13.251  14.863   2.102 -0.2639 -0.2130  0.2360
25053W        W41127  15.612   3.942   3.033  0.0900 -0.1541  0.0117
25054W        W41128  18.148  14.399  11.823  0.1481  0.0288  0.1350
25055W        W41129   7.721   2.071   0.539  0.2161 -0.0432 -0.2602
25056W        W41130  15.963   2.459   0.409  0.1473  0.3071 -0.3786
25057W        W41131   1.693   4.835  13.747 -0.2144  0.0804  0.0338
25058W        W41132   2.857   8.732   0.636 -0.0701  0.4672  0.1710
25059W        W41133  17.734  12.165  15.417  0.0542  0.1672  0.2115
25060W        W41134   6.080   4.058   3.562 -0.2820 -0.2321 -0.1148
25061W        W41135   0.060   4.960  11.827 -0.0179  0.1871 -0.1770
25062W        W41136  11.669   4.921   1.199 -0.2899 -0.1025  0.0193
25063W        W41137  11.387   1.799   1.183  0.0623  0.1809  0.1193
25064W        W41138   1.980   9.044  15.855  0.3666 -0.0173  0.1031
25065W        W41139   0.023   8.364  15.584 -0.0118 -0.3096  0.0177
25066W        W41140   7.035   2.361  13.590  0.0243 -0.1939  0.0881
25067W        W41141  18.017  14.146  11.106  0.0242  0.3175  0.4959
25068W        W41142   0.208  15.205  12.653 -0.2976  0.0163  0.1040
25069W        W41143  17.805   9.676  14.580  0.0369  0.2999  0.0306
25070W        W41144   6.002   2.377  13.155 -0.0548 -0.0505 -0.1781
25071W        W41145  16.217  15.566   4.000  0.0831  0.2002  0.0677
25072W        W41146  11.103   5.512  15.863 -0.0159 -0.1562  0.0507
25073W        W41147   9.868   4.602  15.876  0.1965 -0.0190 -0.3069
25074W        W41148  10.983   6.049   0.347 -0.2526 -0.0342 -0.2242
25075W        W41149   6.907   3.063   5.169 -0.0002  0.0604 -0.1230
25076W        W41150  10.523   5.630   4.183 -0.0663  0.0658  0.0952
25077W        W41151   4.244  11.383  14.055  0.2340  0.1314 -0.4352
25078W        W41152  12.680   1.830  12.043  0.1318  0.6702  0.1282
25079W        W41153   0.026  14.723   4.822  0.0500 -0.1667 -0.2174
25080W        W41154  16.029  14.558   0.984  0.3947  0.3621 -0.1368
25081W        W41155  17.345  17.753  13.222  0.1838  0.0679  0.0856
25082W        W41156   5.193  13.146  12.192 -0.1673 -0.4040  0.1521
25083W        W41157   1.500  16.443  13.873 -0.0395 -0.1312  0.0835
25084W        W41158  11.765   6.821  15.887  0.1050  0.2045  0.0803
25085W        W41159   5.876   8.163   1.674  0.1655 -0.1588  0.4182
25086W        W41160  16.362  13.587   2.545 -0.2102 -0.1359 -0.0695
25087W        W41161   3.587  16.032  11.492  0.2367 -0.2294 -0.0125
25088W        W41162  17.863   6.938   2.244 -0.0519  0.1660  0.0895
25089W        W41163   8.537   5.384   2.220 -0.2071 -0.3341 -0.0034
25090W        W41164   2.338  10.108  11.638 -0.1085  0.0375  0.2478
25091W        W41165   7.311   6.475  14.859  0.0201  0.2547  0.2272
25092W        W41166  13.602  12.972  11.438  0.1993  0.1455  0.0069
25093W        W41167  12.433  12.787  16.354  0.1311 -0.1213 -0.1615
25094W        W41168   6.500   6.845  16.271  0.2949  0.3585 -0.3565
25095W        W41169   6.064   4.057  13.344 -0.0262  0.3982 -0.0198
25096W        W41170  11.486  12.330  13.196 -0.0174 -0.2779 -0.1612
25097W        W41171   9.260   4.054   1.103 -0.2306  0.1652  0.1004
25098W        W41172   8.479  11.756   2.477  0.0083  0.1180 -0.0362
25099W        W41173   0.524  17.851  15.673  0.0069 -0.2890  0.0807
25100W        W41174   0.963  14.523   2.222  0.3483 -0.1599 -0.1117
25101W        W41175   4.598  12.985  16.013  0.1548  0.1607 -0.0053
25102W        W41176   2.560   5.592  14.991  0.2384  0.0110  0.2448
25103W        W41177  17.332   2.734  13.270 -0.1922  0.0751  0.1008
25104W        W41178   3.518   6.988   4.434 -0.1071 -0.0249 -0.1678
25105W        W41179   5.159   5.058  12.242  0.1176 -0.0979  0.1022
25106W        W41180   7.656  12.249  10.111 -0.2277 -0.2504 -0.1043
25107W        W41181  10.842   4.792  12.230  0.4560  0.5132  0.4798
25108W        W41182   6.694  14.144  16.372 -0.0001  0.0171 -0.1070
25109W        W41183   9.401  17.159  13.642 -0.1089 -0.0532  0.1369
25110W        W41184   2.810  17.526   0.975  0.1634 -0.0444  0.0291
25111W        W41185   7.733   9.380   0.792 -0.1414 -0.3897  0.0626
25112W        W41186   7.004  11.795   3.726 -0.4995  0.2623  0.3728
25113W        W41187  11.766  11.394   3.345 -0.0345 -0.0493 -0.1395
25114W        W41188   9.885  15.501  13.375  0.3652 -0.0907 -0.5126
25115W        W41189  12.937  11.486  14.036  0.1328 -0.4128 -0.0611
25116W        W41190  17.372  11.728  15.343 -0.0383  0.4568 -0.0570
25117W        W41191   7.705   1.057  16.028  0.2414  0.2417 -0.0316
25118W        W41192   8.999  13.524   5.578  0.0894  0.1966 -0.2531
25119W        W41193  16.097  16.947   3.421  0.1196  0.0410 -0.1802
25120W        W41194   0.145  15.715  11.625  0.0387  0.1756  0.0862
25121W        W41195   5.232   5.260  13.538  0.0133 -0.0065 -0.0097
25122W        W41196   8.565  17.953   0.875  0.1551  0.1431  0.0744
25123W        W41197  15.675   4.256   5.810  0.1242  0.1248  0.0394
25124W        W41198   8.131  13.374  15.985 -0.0596  0.0697 -0.1636
25125W        W41199   3.307  17.425  13.003  0.0689  0.4771  0.0484
25126W        W41200   1.637   6.549  12.584 -0.0342  0.4180  0.1685
25127W        W41201   3.139   1.184   2.034  0.0879  0.3139 -0.1077
25128W        W41202   9.698  14.438   1.657  0.0347 -0.1848  0.2755
25129W        W41203  15.657  16.317  13.425  0.0708  0.0039 -0.1377
25130W        W41204   5.822   8.276   2.858  0.0039 -0.2719  0.0252
25131W        W41205  14.987  15.004   4.238  0.1541  0.0477  0.0626
25132W        W41206   2.116   8.100   5.435 -0.3166 -0.0152  0.1161
25133W        W41207  17.645   8.309   1.622  0.0567 -0.2399 -0.0755
25134W        W41208   7.688   6.659   0.028  0.2542 -0.1953 -0.2974
25135W        W41209   9.126   0.522   5.841 -0.0045  0.0186 -0.0327
25136W        W41210  12.475  13.705   2.564 -0.1018  0.1339  0.0681
25137W        W41211   5.638   9.640  11.880  0.1734  0.0610  0.1871
25138W        W41212   2.942  14.590   5.558  0.3743  0.0252 -0.0546
25139W        W41213   1.819   9.019  12.523  0.1713 -0.0919 -0.1791
25140W        W41214   2.466   5.198   2.730  0.0921  0.4002 -0.1105
25141W        W41215  17.687  15.413   4.848 -0.0628 -0.0350 -0.1038
25142W        W41216  12.572  16.403   5.215  0.0781  0.2463 -0.4716
25143W        W41217  17.680  14.918   0.152  0.0649  0.0705 -0.0950
25144W        W41218   2.286  10.313  10.236  0.1302  0.0583 -0.1374
25145W        W41219  11.199  10.528   2.714  0.2567 -0.1803 -0.2277
25146W        W41220   0.438  16.519  11.159 -0.1395  0.2604  0.2958
25147W        W41221   8.476   6.947   1.300 -0.0325  0.3382  0.3253
25148W        W41222  10.597   4.804   2.514  0.0231 -0.1000 -0.1784
25149W        W41223  14.440  16.532   1.668  0.1056  0.1039  0.2901
25150W        W41224  14.482  18.061  13.859 -0.2271  0.0453 -0.1456
25151W        W41225   7.308  10.355   0.343 -0.1407  0.1103  0.0352
25152W        W41226   1.201  15.267   2.082  0.0915  0.0667  0.1274
25153W        W41227   9.471   7.540   3.899  0.0721 -0.3009  0.2705
25154W        W41228   6.581  16.801   5.461  0.1298 -0.0205 -0.4662
25155W        W41229   4.366  14.937   2.206  0.0447  0.2542 -0.3660
25156W        W41230   8.781   5.926  11.823  0.2217 -0.0004  0.0003
25157W        W41231  17.230   0.532  13.172  0.0063  0.0322 -0.0127
25158W        W41232   8.790  16.352  13.418 -0.1658 -0.0679 -0.0961
25159W        W41233  17.048   4.077  15.811 -0.0225 -0.1665  0.0894
25160W        W41234   3.971  17.917  12.300  0.2937 -0.0449  0.1902
25161W        W41235   9.352   9.206   5.784 -0.1090  0.1730  0.2334
25162W        W41236  17.490  13.069   0.410 -0.2296 -0.0112  0.0547
25163W        W41237  11.928  11.381  13.138 -0.2135  0.2341 -0.1244
25164W        W41238  13.553  10.172  13.847  0.2426 -0.1127 -0.1306
25165W        W41239   6.616   6.993  14.486 -0.2569 -0.3193 -0.1456
25166W        W41240   8.748  11.389   2.355  0.0451  0.2096  0.0963
25167W        W41241   9.519   3.263  14.331  0.0219  0.2348 -0.7275
25168W        W41242   9.654   0.559   5.722 -0.1583 -0.2257  0.1503
25169W        W41243  13.123  14.453   0.053 -0.1211  0.0511 -0.0685
25170W        W41244  17.940   2.858  13.861  0.3039 -0.0600 -0.1345
25171W        W41245  17.686   6.813   0.198  0.1229 -0.1644 -0.0559
25172W        W41246   5.217  10.967   1.871  0.0348  0.3311  0.3970
25173W        W41247   3.056  14.626   6.040  0.0203  0.2033 -0.1165
25174W        W41248   7.653  15.681  16.250  0.0124 -0.2810 -0.1597
25175W        W41249   9.080   7.585   2.139 -0.3148 -0.0686  0.4673
25176W        W41250   8.775   8.572   3.119 -0.2327 -0.1775  0.0797
25177W        W41251  16.808  18.146   3.499  0.0977  0.4307 -0.0165
25178W        W41252  16.990   7.107  12.794 -0.3114 -0.1263 -0.2286
25179W        W41253  17.724  17.232   2.487 -0.1429  0.3103  0.1682
25180W        W41254  17.491  17.038  14.615  0.0263  0.0433  0.2491
25181W        W41255  14.445   5.697   3.849  0.2957 -0.2638 -0.1804
25182W        W41256   1.249   3.898   0.814  0.2118  0.2212 -0.0944
25183W        W41257  11.291   7.520   3.974  0.1476 -0.0718 -0.0659
25184W        W41258  17.267   1.016   0.042 -0.2708  0.2570 -0.2673
25185W        W41259  11.671   0.615   1.708 -0.2409 -0.0223  0.1016
25186W        W41260  11.986   0.257  14.427 -0.0908 -0.0258  0.0804
25187W        W41261   6.618  17.628   5.773 -0.2901  0.2961 -0.0901
25188W        W41262   6.584  12.119  11.741 -0.2400  0.4036  0.0303
25189W        W41263  16.568  17.080  12.286 -0.0189 -0.0932 -0.0080
25190W        W41264  16.427  10.988  16.232 -0.4042  0.1673  0.0204
25191W        W41265   4.231   1.323  11.686  0.1727 -0.0283  0.2053
25192W        W41266  10.675   9.577   4.122 -0.3518  0.1389 -0.0652
25193W        W41267  13.442  10.322  14.515 -0.1097  0.1073  0.2862
25194W        W41268   8.042  12.993  14.480 -0.1224 -0.0571 -0.1036
25195W        W41269   1.452   4.382   4.997  0.1599  0.0195 -0.2874
25196W        W41270   1.242   9.017  10.758 -0.0636 -0.3003 -0.4326
25197W        W41271   8.786  14.040  14.465 -0.0247  0.0962  0.3962
25198W        W41272  17.899  17.786  12.917 -0.1212 -0.0692 -0.1908
25199W        W41273   9.547   6.586  14.863  0.1159 -0.3135  0.4960
25200W        W41274  12.648   1.216   0.276 -0.0222 -0.1104 -0.4185
25201W        W41275   5.697  11.142  13.925  0.0895 -0.3347  0.0064
25202W        W41276   1.733  18.169   6.308  0.2220 -0.1595 -0.4288
25203W        W41277   4.009   9.638   4.212 -0.1373 -0.4879 -0.0163
25204W        W41278   2.770   9.468  16.439 -0.1022  0.0138 -0.0965
25205W        W41279   3.245  13.224  13.018 -0.0954  0.1617 -0.1788
25206W        W41280   0.109   2.827  12.779  0.2272  0.0564 -0.0250
25207W        W41281   1.537  15.074   3.902  0.1115  0.0612 -0.0861
25208W        W41282   6.818   6.671   5.805 -0.2847 -0.2144 -0.1618
25209W        W41283  12.135   4.535   1.235  0.0543 -0.0875  0.1175
25210W        W41284   2.827  10.229  12.815  0.1393 -0.0427 -0.0271
25211W        W41285   1.916   9.839  14.289  0.0581  0.0462  0.0748
25212W        W41286   0.069  11.805   4.845 -0.2044 -0.1647  0.1230
25213W        W41287  11.865  12.375  14.900 -0.2939 -0.0695 -0.1607
25214W        W41288   3.656   4.967  15.043 -0.0942 -0.2379  0.2112
25215W        W41289  11.726  16.512  16.332  0.1775 -0.1206  0.0787
25216W        W41290   1.619   5.500   3.176  0.1809  0.0854 -0.1309
25217W        W41291  12.191   1.782  14.030  0.1384 -0.1143  0.0530
25218W        W41292   6.445   8.607   3.851 -0.1254  0.3236  0.0505
25219W        W41293  16.718  12.159  11.888 -0.0731  0.0672  0.2297
25220W        W41294   7.770   6.106   2.570  0.2276 -0.4080 -0.3013
25221W        W41295   7.464   2.937   4.558 -0.1659  0.1566 -0.0254
25222W        W41296  16.555   4.243   1.825 -0.0465  0.1646  0.1932
25223W        W41297  15.502  11.766  11.133 -0.1039 -0.4418  0.3238
25224W        W41298  17.194  17.168  16.226 -0.0393 -0.0563 -0.0412
25225W        W41299  15.362   9.645   2.302  0.0060  0.3306  0.1058
25226W        W41300   2.669  17.721   0.479  0.1585  0.3998  0.0200
25227W        W41301   9.938   2.847   6.412  0.2699 -0.0710  0.0025
25228W        W41302  15.246   1.570   1.539  0.2352 -0.0772  0.0213
25229W        W41303   1.773  13.080  11.661 -0.2263 -0.1346  0.0916
25230W        W41304   4.791   1.939  15.285  0.1817 -0.2090  0.1279
25231W        W41305   1.262   3.579   5.635 -0.2216 -0.1480 -0.0577
25232W        W41306   1.771   9.687   3.315  0.0739 -0.1412  0.2309
25233W        W41307  15.658  11.684   0.554  0.0639  0.1692 -0.0253
25234W        W41308   1.775   5.785  16.257  0.1140  0.1458  0.0677
25235W        W41309  11.732  13.950   4.698 -0.3315  0.0482 -0.2601
25236W        W41310  15.961  17.285  11.927  0.0109 -0.0591  0.0292
25237W        W41311   2.849  15.023  16.200  0.4051  0.3011  0.1991
25238W        W41312   8.850  15.583   3.336  0.0851 -0.2988  0.0499
25239W        W41313   8.074   1.544   5.955 -0.1081 -0.2644  0.0573
25240W        W41314   0.673   5.698  12.927 -0.0376  0.0339 -0.3871
25241W        W41315  10.337  13.773   1.338  0.0143  0.2555 -0.1483
25242W        W41316   7.713  17.476   5.110 -0.0707  0.2598 -0.2411
25243W        W41317  12.802   3.938   0.701  0.0441  0.1272 -0.1738
25244W        W41318   2.518  14.806  12.450  0.0826 -0.0069 -0.1978
25245W        W41319   2.260   7.748   1.754 -0.0605 -0.1044 -0.0438
25246W        W41320  15.495   5.780  13.911 -0.0093  0.0717 -0.0399
25247W        W41321   9.582   6.708  16.124 -0.1472  0.0695 -0.3331
25248W        W41322   3.059   7.506   4.698  0.2197 -0.2313  0.0288
25249W        W41323  17.427  17.418  14.281  0.1215  0.3566 -0.1933
25250W        W41324   5.035   7.937  12.746  0.1508 -0.1674  0.0675
25251W        W41325   4.568  10.773   2.072  0.1564  0.1596 -0.1863
25252W        W41326   6.447   5.064  15.538  0.2153  0.2093 -0.2632
25253W        W41327  11.136  13.787  14.386  0.1392  0.0568  0.3092
25254W        W41328   8.239  16.362   3.670  0.4334 -0.2434  0.1815
25255W        W41329   5.481  12.637  12.308  0.1161  0.3585 -0.0375
25256W        W41330  15.524   0.315  15.299  0.0521 -0.0698 -0.0786
25257W        W41331  17.582   3.847  14.966  0.2064 -0.0595  0.2562
25258W        W41332  15.214  17.785   0.298 -0.1452 -0.0615 -0.2254
25259W        W41333   8.650  14.164   3.387  0.0533  0.2439 -0.3113
25260W        W41334  13.719  18.190   5.003 -0.1369  0.2056 -0.0224
25261W        W41335   3.036  15.085  11.515  0.1899  0.1571 -0.2691
25262W        W41336  16.905   6.084  14.671 -0.1101 -0.1228  0.0794
25263W        W41337   1.698   8.974   1.712 -0.0113 -0.0191 -0.1967
25264W        W41338   7.929   3.505   0.421  0.1836  0.0780 -0.0069
25265W        W41339  12.181   2.136  14.350  0.1297  0.2410  0.1056
25266W        W41340   5.049  14.043   2.758  0.2132 -0.1053 -0.2252
25267W        W41341   2.823   4.753   1.580 -0.1105  0.0283  0.0802
25268W        W41342  13.279  12.773   4.938  0.2393 -0.1701  0.3149
25269W        W41343   7.196  17.913  16.168 -0.3413 -0.0980  0.0614
25270W        W41344   4.191  17.108   5.112  0.2788 -0.0044 -0.1128
25271W        W41345  15.451  16.112   2.207 -0.0345 -0.0208 -0.1688
25272W        W41346   6.234  17.873   0.698 -0.2117 -0.1966 -0.1248
25273W        W41347   7.596   4.103  13.159  0.2037  0.0850  0.0635
25274W        W41348   1.197   5.884  13.931 -0.0489  0.0275 -0.0301
25275W        W41349  15.725  14.722   5.966  0.1605 -0.1381 -0.3138
25276W        W41350  14.441   6.433  13.592 -0.0279  0.1880 -0.0726
25277W        W41351   1.154   8.181   2.017 -0.1834 -0.3666  0.0493
25278W        W41352  17.372  17.845   4.750  0.1482  0.0438 -0.1805
25279W        W41353  12.059   7.407   1.762 -0.0061  0.1236  0.1627
25280W        W41354  16.276  12.095   4.027 -0.0810 -0.0451 -0.0977
25281W        W41355   5.557  11.900   0.668 -0.1409  0.2485 -0.2316
25282W        W41356   3.785  15.388  15.413 -0.2939 -0.4048  0.0817
25283W        W41357   4.901  17.063   4.484  0.3142  0.0226  0.1549
25284W        W41358  16.738   2.525  16.388 -0.1659 -0.1456 -0.2725
25285W        W41359  18.124  11.352  14.075 -0.2181 -0.3916 -0.0198
25286W        W41360   2.173   7.753   4.401  0.3954  0.0112  0.1502
25287W        W41361   6.755   6.236   2.903 -0.0255 -0.0036  0.2710
25288W        W41362   1.742   7.098  12.391 -0.0504  0.1638 -0.0064
25289W        W41363  16.387   4.096   2.310 -0.2320 -0.4219 -0.0183
25290W        W41364  15.643   7.782  12.858 -0.5114 -0.0671  0.0174
25291W        W41365   9.641   7.961   4.150 -0.3731 -0.0522  0.2006
25292W        W41366   9.946   4.143   0.841 -0.0158  0.1531 -0.1979
25293W        W41367  16.923   2.482   3.705 -0.2347  0.0340  0.0497
25294W        W41368   5.915  16.236   3.717  0.0150 -0.5122 -0.0248
25295W        W41369   6.112  17.025  12.585  0.3921  0.2521  0.2005
25296W        W41370   6.784   0.455  12.722 -0.2341  0.0162 -0.2217
25297W        W41371  11.603  17.407   0.293 -0.2061 -0.3971 -0.0853
25298W        W41372  16.528  12.112   0.741 -0.4998  0.1554 -0.1674
25299W        W41373   1.827   1.067  15.445  0.1997  0.0615  0.1847
25300W        W41374   2.721   5.369   1.676  0.1203 -0.0431  0.1069
25301W        W41375  16.968  16.425  13.997 -0.4056  0.0771 -0.1876
25302W        W41376  17.100   6.237  16.467 -0.1120  0.0587  0.1162
25303W        W41377  15.455  16.574  13.030 -0.0660  0.0564  0.0536
25304W        W41378  14.996  10.248  12.185  0.1081 -0.1503 -0.2318
25305W        W41379  11.205   2.183   0.473 -0.1259  0.0537  0.2322
25306W        W41380  15.038  17.344  12.894  0.1293 -0.0944 -0.1005
25307W        W41381  16.109   8.107  11.851 -0.4198  0.1363  0.0910
25308W        W41382   2.069  17.721   4.629  0.0528 -0.1004 -0.1711
25309W        W41383   6.219  11.228   1.137  0.0045 -0.2254 -0.0084
25310W        W41384   1.660   6.673   2.735  0.1641  0.2463  0.0393
25311W        W41385  14.033  17.373   5.237 -0.0362  0.1773  0.1308
25312W        W41386   2.198   0.055   0.849  0.0777  0.0604  0.1568
25313W        W41387   6.671   6.378   3.438  0.0896  0.1160 -0.1427
25314W        W41388   0.142   9.014   1.423 -0.2198  0.1019  0.0765
25315W        W41389   1.823  15.789  16.113 -0.1852  0.0258 -0.3497
25316W        W41390  14.305   7.566  15.043  0.1997 -0.1267  0.0279
25317W        W41391   3.469  17.953  13.235 -0.0005 -0.0598 -0.0899
25318W        W41392  14.083  12.603   0.657 -0.1441 -0.0547  0.3152
25319W        W41393  14.092  17.057   0.030 -0.3214  0.3699 -0.0476
25320W        W41394   5.500   9.499   1.517  0.1501  0.0653  0.1372
25321W        W41395  15.410   0.124   4.226 -0.0086  0.1586 -0.0620
25322W        W41396   0.661   4.128  14.719 -0.3040  0.6051 -0.0235
25323W        W41397   5.922   3.755  16.164 -0.2404  0.2005  0.0993
25324W        W41398  15.342   1.759   3.919  0.2275 -0.1437  0.1871
25325W        W41399   8.568   9.316   2.664 -0.2300 -0.0940 -0.1549
25326W        W41400  17.009  11.720   0.844 -0.2253  0.0914 -0.0736
25327W        W41401  14.901  12.785  15.921  0.0974 -0.0814  0.1225
25328W        W41402   6.446   9.923  14.230 -0.1088  0.0948 -0.0579
25329W        W41403   2.846  18.186   0.417  0.0485  0.0065  0.2204
25330W        W41404   8.295  12.680   1.382 -0.2758 -0.0844  0.1115
25331W        W41405   4.317  13.412   3.372 -0.0162 -0.0069  0.1495
25332W        W41406   5.297   4.018  15.039 -0.0256  0.0686  0.0456
25333W        W41407  14.668   6.062   5.117 -0.0330  0.3249  0.2453
25334W        W41408   1.757  17.555   3.906 -0.2860 -0.2791  0.0682
25335W        W41409   2.957   2.710  12.852 -0.1434 -0.0227 -0.1032
25336W        W41410  18.076   8.261   5.358 -0.1115  0.0020  0.0269
25337W        W41411  12.737   8.727   0.358  0.0737  0.0939 -0.0680
25338W        W41412   3.775  11.745  13.103 -0.1849 -0.1347 -0.0315
25339W        W41413   7.125   5.340   4.192  0.0452  0.4043 -0.0419
25340W        W41414  10.187  10.288   3.157 -0.2214 -0.1935  0.0490
25341W        W41415  15.597   0.322   2.697  0.0974 -0.3062 -0.0197
25342W        W41416  17.369   4.867   4.600 -0.0644 -0.0930 -0.3205
25343W        W41417  13.632  15.829  13.235  0.4005  0.0990  0.0974
25344W        W41418   8.539   8.929   4.072  0.3437 -0.0272 -0.2031
25345W        W41419  17.732   4.765  12.234 -0.0823 -0.2186  0.0523
25346W        W41420  10.089  10.986   2.506 -0.0153  0.3106  0.3107
25347W        W41421  11.115  13.614   3.963 -0.0387  0.1118  0.2461
25348W        W41422   8.722   7.043  13.733  0.1209  0.0390  0.0167
25349W        W41423   9.983   5.757   1.084  0.2507  0.0311 -0.1070
25350W        W41424   7.361   2.868   0.700 -0.0673 -0.0107 -0.1638
25351W        W41425   4.205  10.491   4.479  0.0048 -0.0396 -0.3928
25352W        W41426  15.089   7.727  12.562 -0.0113 -0.0060 -0.2711
25353W        W41427  16.547  13.250   3.573  0.2633  0.1962 -0.1994
25354W        W41428   8.577   3.028   3.823  0.1559 -0.0023  0.0485
25355W        W41429   9.879   0.938   4.855 -0.1433  0.0981 -0.0210
25356W        W41430  13.915   8.565  12.136  0.0419 -0.0055 -0.2390
25357W        W41431  13.988   2.101   1.579  0.0628 -0.1096 -0.0757
25358W        W41432  12.683  16.865   2.992 -0.2765  0.5665  0.2998
25359W        W41433  14.138   8.816   0.724 -0.0587  0.0210  0.2808
25360W        W41434   9.774   7.431   2.818 -0.2453  0.1965 -0.2814
25361W        W41435  13.784  11.915   2.344 -0.0193  0.0932 -0.0623
25362W        W41436   2.266   2.321   0.520  0.2549  0.0022 -0.2229
25363W        W41437   6.876  16.746  11.677 -0.0321 -0.0476 -0.1312
25364W        W41438  13.029  11.068  14.874 -0.0843  0.4670  0.2449
25365W        W41439  14.967   1.080   1.226 -0.4314  0.0957  0.1729
25366W        W41440   0.970   9.934  13.000  0.1874 -0.2610 -0.3427
25367W        W41441  12.373   9.985   4.849  0.1288 -0.2377  0.1355
25368W        W41442  17.403  14.456  16.496  0.0601  0.2072 -0.1271
25369W        W41443  17.455  15.359   5.401  0.1169 -0.0829 -0.0460
25370W        W41444  16.787   7.687   2.669  0.2338  0.0907  0.1017
25371W        W41445  13.873   7.164   1.912 -0.1437 -0.2327 -0.0084
25372W        W41446  18.014   4.073  15.156  0.0989 -0.2546  0.0583
25373W        W41447   1.755   6.194  13.353 -0.0924  0.1332  0.0682
25374W        W41448   0.199  12.125  10.871 -0.1631  0.0381  0.1976
25375W        W41449   7.060  12.035  12.009 -0.2965 -0.0897 -0.1426
25376W        W41450   6.117  14.777   3.011  0.0160 -0.0076 -0.3268
25377W        W41451   8.527   6.660   2.802  0.1724 -0.0543 -0.0116
25378W        W41452   3.065   9.535  13.588  0.0349 -0.0589  0.1400
25379W        W41453   7.771   3.174   5.428  0.2952  0.0578  0.1769
25380W        W41454   3.952  13.702  15.768 -0.0709  0.3066  0.1158
25381W        W41455  10.873   5.019   6.041 -0.0995  0.0963 -0.1248
25382W        W41456   3.982  13.791   5.334  0.0676 -0.3448 -0.0393
25383W        W41457   5.231   8.310   3.512  0.3086  0.0249  0.6261
25384W        W41458   5.119   9.501  10.119  0.1640 -0.0011  0.0645
25385W        W41459   8.559   4.251  16.141  0.0672  0.2047  0.1347
25386W        W41460  13.840  15.695   4.919 -0.1493  0.0605  0.0084
25387W        W41461  11.612   9.642  12.336  0.1116  0.5223  0.1979
25388W        W41462   9.797   4.269  13.013  0.1338 -0.0613  0.0787
25389W        W41463   0.324   3.523  13.426  0.4493 -0.0932 -0.0005
25390W        W41464   2.721   5.038   4.485 -0.4034  0.0292 -0.0996
25391W        W41465  11.971  17.972  16.150  0.0890  0.0898  0.0392
25392W        W41466   4.218   8.969   3.032 -0.1937  0.3087  0.3716
25393W        W41467   5.973  15.108   1.203 -0.0914 -0.0203  0.2127
25394W        W41468   2.766   7.029   5.289 -0.1059 -0.3438 -0.1137
25395W        W41469  13.931  13.731   5.587  0.1411  0.3175  0.3827
25396W        W41470  10.583  16.524  12.569  0.0044  0.0861  0.0236
25397W        W41471   6.477   2.758  12.413  0.1375 -0.0426 -0.1004
25398W        W41472   1.366  17.871   6.225  0.0882  0.2711  0.1531
25399W        W41473  16.402   9.652  15.564  0.0910 -0.2575  0.0463
25400W        W41474   3.458  14.016  12.459  0.3369  0.3804 -0.1385
25401W        W41475  12.356  10.983   3.848 -0.2160 -0.0170 -0.1969
25402W        W41476   8.466   2.278   4.946  0.3462  0.0675  0.2439
25403W        W41477  11.163   0.498   0.482 -0.1102 -0.0620  0.2087
25404W        W41478  16.834  11.643   3.287  0.0402  0.2247  0.0715
25405W        W41479   4.777  15.825   3.132  0.0471  0.1837 -0.0708
25406W        W41480   9.179   7.899  14.533 -0.2224  0.1609 -0.1374
25407W        W41481   7.811  17.134  15.470 -0.1007  0.2021  0.4645
25408W        W41482   4.640   8.829  14.858 -0.2571  0.0047 -0.1908
25409W        W41483   1.509   6.545  13.112  0.3934  0.0466  0.0100
25410W        W41484   4.696  10.291  16.334 -0.3690 -0.2063  0.2120
25411W        W41485  17.545  12.066   2.312  0.0716  0.0984 -0.0708
25412W        W41486   2.979   5.603  12.738  0.1153  0.2484  0.2239
25413W        W41487  16.203  11.560   4.959 -0.1091  0.2417 -0.1578
25414W        W41488   5.069  13.394  13.894 -0.1839  0.0975 -0.3106
25415W        W41489   1.908  15.394   2.730  0.0272  0.0017 -0.0859
25416W        W41490  12.876   4.578   5.732  0.0985  0.0076 -0.2788
25417W        W41491   0.830   3.292   5.428 -0.0298 -0.0558 -0.1133
25418W        W41492  14.258   6.335   0.691 -0.0177 -0.1786 -0.1199
25419W        W41493  12.637   1.410  13.773 -0.1542  0.0794  0.1446
25420W        W41494   9.247  12.339  16.219 -0.0225  0.1952  0.1068
25421W        W41495  11.776   0.872  12.036 -0.1008 -0.0373  0.4179
25422W        W41496   4.661  15.664   3.587 -0.0950 -0.1771  0.2437
25423W        W41497  12.964   6.210   5.047 -0.1929 -0.1836  0.1396
25424W        W41498   0.145   1.309  16.096 -0.1281  0.0788 -0.2631
25425W        W41499   2.017   2.637  12.795  0.0317 -0.3110  0.2257
25426W        W41500  16.668   3.964   4.569 -0.0982  0.0587  0.1168
25427W        W41501  15.720  16.865  13.349 -0.0634 -0.1231 -0.3460
25428W        W41502   0.724  13.838   4.160 -0.1375  0.2603 -0.1174
25429W        W41503  11.060   2.133   0.967  0.0192 -0.1925  0.0782
25430W        W41504   6.979  11.398  14.585  0.0664  0.3303  0.0081
25431W        W41505  14.871   8.940  14.468 -0.0115  0.1318 -0.0063
25432W        W41506  13.836  17.139   3.576 -0.0863  0.4224  0.2692
25433W        W41507   9.894   1.714   5.788 -0.0683  0.2698 -0.1665
25434W        W41508  13.997  17.110   5.701  0.0423 -0.0289 -0.1002
25435W        W41509   4.766  12.323   2.831 -0.0490  0.2176 -0.0301
25436W        W41510   3.171   7.286   2.039  0.1076  0.0275 -0.0878
25437W        W41511  13.980   3.645   5.670  0.0501  0.1112  0.1440
25438W        W41512  17.168  13.008   5.247  0.2536 -0.1335  0.1140
25439W        W41513   5.642  14.405  12.333  0.1396 -0.0314 -0.2461
25440W        W41514   1.704   1.017  12.810  0.2900 -0.1422 -0.1778
25441W        W41515   1.852   1.863  11.316 -0.2195 -0.1086 -0.0003
25442W        W41516   8.846  10.072   1.582 -0.0452 -0.0157  0.0170
25443W        W41517   4.093   6.518   2.773  0.0857 -0.3701  0.1816
25444W        W41518   3.605   3.342   2.423 -0.1710  0.1163 -0.1509
25445W        W41519   4.400   8.880   2.265  0.1917  0.0456  0.0507
25446W        W41520   1.090   1.059  12.730  0.1467 -0.0096 -0.0314
25447W        W41521  14.676  11.379  16.268 -0.0935  0.0500  0.3003
25448W        W41522  16.016   3.423   0.278 -0.1022 -0.0900 -0.1968
25449W        W41523  18.024  17.629   5.055 -0.0479  0.4172  0.1262
25450W        W41524   6.789   7.274  16.448 -0.4886  0.1028 -0.4342
25451W        W41525   1.619  12.137   0.961  0.1718 -0.4135 -0.0325
25452W        W41526  17.030   2.872   0.168  0.1228 -0.0975  0.2981
25453W        W41527   3.736   6.904  15.844  0.0044  0.0610 -0.0267
25454W        W41528  12.737   2.118  16.177  0.2213  0.0674 -0.2232
25455W        W41529   5.344  17.766   5.834 -0.0781  0.4625 -0.1083
25456W        W41530  16.122   1.990  11.599  0.1621 -0.1230  0.0029
25457W        W41531  10.389   7.692   0.842 -0.2823  0.0762 -0.1978
25458W        W41532   9.877  14.654   4.006  0.1343 -0.0297 -0.1025
25459W        W41533  12.612  13.278   2.277 -0.1672  0.3120 -0.0424
25460W        W41534  12.966   2.189   1.274  0.5814  0.0932  0.0816
25461W        W41535  15.240  15.416   2.780  0.0582 -0.0508 -0.0591
25462W        W41536   1.691  10.857  12.560  0.3441 -0.0445  0.4253
25463W        W41537  15.119  14.198   0.472 -0.0053 -0.1456  0.1475
25464W        W41538  16.903   0.843   1.460 -0.0731  0.0054 -0.0279
25465W        W41539  10.058   1.518   0.616 -0.5783  0.4787  0.2892
25466W        W41540  18.046   2.536  15.961  0.2385  0.1424  0.0830
25467W        W41541  16.242   5.069   1.584  0.0930  0.1404 -0.0928
25468W        W41542   1.058  14.003   3.760  0.0620  0.2776 -0.1086
25469W        W41543   4.854  11.144  14.988  0.3697  0.1123 -0.2997
25470W        W41544  17.437   0.531   5.676  0.0548 -0.2829  0.1479
25471W        W41545   2.989   0.759   0.955  0.1119 -0.1854  0.1421
25472W        W41546   2.348  11.975  12.467  0.0837 -0.1486 -0.1050
25473W        W41547  14.571  12.274  16.260  0.1297 -0.5709 -0.1387
25474W        W41548  10.082   2.986   4.186 -0.1085 -0.2483 -0.0686
25475W        W41549   6.352  12.590   3.087 -0.0612 -0.2865  0.1985
25476W        W41550   8.686  16.497  14.705 -0.0343 -0.1155 -0.1234
25477W        W41551  15.799  15.139   0.173  0.1592 -0.1262 -0.0073
25478W        W41552   6.292  14.910   1.646  0.0581  0.1600  0.0264
25479W        W41553  11.561   5.325   5.145 -0.3248 -0.0705  0.1286
25480W        W41554  17.807   8.925  12.958 -0.2078  0.2569 -0.0530
25481W        W41555   9.350  11.943  14.074 -0.1619  0.0541  0.3649
25482W        W41556   3.198  14.606   0.856  0.1233 -0.0618  0.0252
25483W        W41557  16.114   3.089   3.646 -0.1599 -0.3008 -0.0763
25484W        W41558   8.451  16.505   2.246 -0.2059  0.0814 -0.0040
25485W        W41559   7.977   4.287  15.604  0.1239 -0.1190  0.2633
25486W        W41560  13.418   7.896   1.987 -0.3845 -0.2612  0.1219
25487W        W41561   1.812  16.451  14.638  0.3462 -0.0354  0.0155
25488W        W41562   5.517   4.404  14.763  0.0124  0.2138 -0.0541
25489W        W41563   4.444   5.818   4.825  0.3618  0.3095 -0.0281
25490W        W41564  15.353   4.282   2.604 -0.2025  0.2890 -0.3103
25491W        W41565  14.302  12.110  14.874 -0.1685 -0.4104  0.1917
25492W        W41566  11.137   1.354  13.324 -0.0090  0.0954 -0.0540
25493W        W41567   3.412   2.327  15.307  0.2587  0.2285 -0.4091
25494W        W41568  17.367  14.517   1.817  0.0578  0.0365  0.2958
25495W        W41569  16.393   2.246   0.776  0.4485  0.0656 -0.1172
25496W        W41570  13.886   3.642  16.452 -0.2510 -0.0640  0.0550
25497W        W41571  14.460  14.437  13.051  0.0435  0.0786 -0.2085
25498W        W41572  13.769  15.247  14.546  0.1202 -0.0571  0.3408
25499W        W41573   6.292  16.021   0.838  0.0571  0.3924  0.0350
25500W        W41574  17.555   1.844  15.821 -0.0580  0.0908  0.3042
25501W        W41575  14.029  11.945  13.957  0.4606  0.0820  0.0344
25502W        W41576   5.822   1.575   0.285 -0.1727 -0.1403 -0.0474
25503W        W41577  10.545   2.637  13.245  0.0324  0.1929 -0.1016
25504W        W41578   2.967   0.531   1.907 -0.0757 -0.1522 -0.0059
25505W        W41579  10.644  17.585  13.677 -0.2674 -0.0449  0.2393
25506W        W41580  13.104   6.942   4.344 -0.1317 -0.0207  0.3701
25507W        W41581   1.262  14.307  14.755 -0.0971 -0.0011  0.2270
25508W        W41582   8.020   2.761  14.003 -0.0262 -0.0520 -0.0374
25509W        W41583  14.421   1.914   1.444 -0.2457  0.2245  0.0777
25510W        W41584  15.426   6.983  15.801  0.1948 -0.1044  0.0835
25511W        W41585   5.664   5.716   1.494  0.1172  0.0060 -0.3516
25512W        W41586   8.870  14.395  11.972 -0.1043  0.0918 -0.1816
25513W        W41587   8.100   5.242  12.836 -0.3550 -0.2394  0.2764
25514W        W41588   1.689   1.777   4.608 -0.0422 -0.1259  0.1589
25515W        W41589   2.377   4.201  12.480  0.2455 -0.4783  0.1310
25516W        W41590   5.942   0.537  15.406 -0.3381  0.0639  0.4746
25517W        W41591   6.457   1.279   3.896 -0.3191  0.4594 -0.2217
25518W        W41592   7.367  12.045  15.989 -0.1227 -0.1524  0.1350
25519W        W41593   0.751  17.330   1.894  0.4868  0.1824  0.1143
25520W        W41594  15.691   0.098   4.643  0.2210 -0.0216  0.1333
25521W        W41595  16.657  12.487   4.720  0.1275  0.2091 -0.0655
25522W        W41596   0.692  14.839  11.394  0.0810  0.0164 -0.0630
25523W        W41597   6.354   9.443  14.159 -0.4401 -0.1281 -0.0965
25524W        W41598   9.132   7.914   4.206  0.1755 -0.0065 -0.0224
25525W        W41599  17.217   9.987  11.603 -0.3158 -0.0143  0.2845
25526W        W41600  13.455   9.654   1.393  0.0233  0.4531  0.1047
25527W        W41601   1.164  11.444   4.605  0.1522 -0.2510  0.0665
25528W        W41602   6.586   8.843  15.895 -0.0105 -0.2325 -0.2618
25529W        W41603  13.652   0.507   1.382  0.0583 -0.2295  0.0344
25530W        W41604  13.029  12.941  13.927 -0.1134 -0.3457  0.4863
25531W        W41605   1.744  14.184  14.674  0.1187 -0.1859  0.2067
25532W        W41606  13.387   1.611  15.522  0.1005  0.2421 -0.1556
25533W        W41607   7.129  15.464   5.494 -0.1409 -0.2847 -0.1266
25534W        W41608   0.766   8.274   5.567  0.0531  0.0377  0.2592
25535W        W41609  11.169  16.464   5.838 -0.0639  0.0392  0.0757
25536W        W41610   7.265   2.106   3.101 -0.0447 -0.1356  0.2246
25537W        W41611  10.528   7.482  15.732  0.0431  0.0644 -0.1978
25538W        W41612   1.626   0.691  16.000 -0.0801  0.0938 -0.0752
25539W        W41613   2.792   2.140   3.393 -0.1657 -0.1023  0.0256
25540W        W41614  11.031  14.237   5.250  0.0414  0.1046  0.1996
25541W        W41615   4.794   9.033  15.884  0.2166  0.0692  0.0429
25542W        W41616   6.105   9.299  13.036  0.3310 -0.2651 -0.3049
25543W        W41617   7.244   1.119  12.279  0.3181 -0.0550  0.0061
25544W        W41618   4.896   5.059   2.296 -0.3690  0.0870 -0.1358
25545W        W41619   2.697   5.985   3.714  0.0471 -0.1312  0.0103
25546W        W41620  13.996   1.403  12.186 -0.2111 -0.0363  0.0788
25547W        W41621   6.031  12.906  13.350 -0.0466  0.0938 -0.0188
25548W        W41622  12.548   4.211  12.110 -0.3464  0.1057 -0.1260
25549W        W41623  15.373  12.164   1.935  0.2296 -0.0887  0.0276
25550W        W41624  12.291   5.907   4.700 -0.1613 -0.1087  0.0669
25551W        W41625   8.790  10.951  16.174  0.2825  0.1304  0.0131
25552W        W41626   7.904   1.224   0.107  0.0388 -0.1075 -0.1299
25553W        W41627   5.590   1.158   0.694  0.0674  0.0711  0.2154
25554W        W41628  17.435  12.254  12.128 -0.0503  0.0262  0.0058
25555W        W41629   6.573  17.157  16.216  0.0765  0.3627  0.0359
25556W        W41630   7.787   3.655   2.136  0.0259 -0.1434  0.0168
25557W        W41631  18.006  12.916  14.837  0.2114 -0.2764  0.1431
25558W        W41632   1.710  17.887  14.794 -0.0415  0.1747 -0.1525
25559W        W41633  11.381   8.343  13.528 -0.2155  0.2328 -0.0327
25560W        W41634  14.888   0.653  13.886 -0.4305  0.0266  0.0059
25561W        W41635  15.658  16.827  12.013 -0.0951  0.0877 -0.2640
25562W        W41636   3.762   1.202  13.350 -0.3669  0.1359 -0.0297
25563W        W41637   9.090  14.602  11.587 -0.2995  0.1758 -0.1214
25564W        W41638  14.706  16.171  14.289 -0.1802  0.1306 -0.1653
25565W        W41639  16.215   7.984  16.185  0.1840  0.0316  0.0940
25566W        W41640  16.420   8.580  13.562 -0.3445 -0.3034 -0.0389
25567W        W41641  14.495   1.282  14.315 -0.2756 -0.0024  0.2852
25568W        W41642  15.075  13.774   4.998 -0.4519 -0.0017 -0.1430
25569W        W41643   3.857   0.647  12.918 -0.2991 -0.2070  0.0502
25570W        W41644   4.254  11.926  13.790  0.1121  0.0081  0.2583
25571W        W41645   0.568  13.987   3.549  0.0810  0.2532  0.0909
25572W        W41646   7.667  13.536  13.728 -0.2337  0.1479 -0.1192
25573W        W41647  13.545   8.621  14.397 -0.0908  0.0228  0.4763
25574W        W41648  16.227   3.871   1.037  0.0694 -0.3148 -0.1331
25575W        W41649   0.921  12.735  12.777  0.1115  0.0081 -0.1491
25576W        W41650   1.938  13.768  16.484  0.1813  0.0959 -0.1655
25577W        W41651  10.740   7.632  13.221  0.3478  0.0465 -0.3572
25578W        W41652  10.821  17.617   4.846  0.1334 -0.0718  0.3072
25579W        W41653   7.048   8.976   2.669  0.1621 -0.1033 -0.0543
25580W        W41654  11.855  12.956   1.554 -0.0476  0.0143 -0.4985
25581W        W41655   8.210  16.022   1.565  0.0339 -0.2940  0.0113
25582W        W41656   9.285   6.717   6.039 -0.1098  0.1983  0.0359
25583W        W41657   4.957  10.232   1.092 -0.1106 -0.0971  0.1115
25584W        W41658   5.477  12.788  15.799 -0.0476  0.1620  0.0319
25585W        W41659  17.346   2.902  13.786  0.3679 -0.0955 -0.2070
25586W        W41660   8.257  12.961   6.349 -0.2692 -0.1087 -0.0280
25587W        W41661   0.602   8.976   1.831 -0.1988  0.0426 -0.0786
25588W        W41662   4.119  17.082   3.594 -0.0850 -0.0001 -0.1058
25589W        W41663   2.987   9.519   1.151 -0.1696  0.1179  0.1031
25590W        W41664   6.144  13.173   3.086 -0.1665 -0.0890 -0.1800
25591W        W41665  11.567   0.540  15.304 -0.1798  0.3439 -0.0838
25592W        W41666  14.094   3.893   2.886 -0.0050  0.2546  0.2516
25593W        W41667   8.282   0.283  12.864  0.0858 -0.0575  0.1578
25594W        W41668   5.398   4.670  13.854  0.0601  0.4613 -0.2298
25595W        W41669   1.248   8.018  11.784 -0.2732  0.0911 -0.0625
25596W        W41670   4.842   2.104  13.767 -0.0032 -0.0043 -0.2804
25597W        W41671   4.812   4.755  11.905  0.0509  0.1517 -0.2490
25598W        W41672   9.359  18.080  15.401 -0.0626  0.2283 -0.0555
25599W        W41673   9.057   3.637   5.335  0.1750 -0.2251 -0.3499
25600W        W41674   7.101  17.600   5.801  0.1177 -0.1815 -0.1160
25601W        W41675  17.264   2.762   0.920 -0.0501 -0.2422 -0.2288
25602W        W41676  11.958  13.183   4.924  0.2503 -0.0296 -0.1114
25603W        W41677   5.206   9.990  14.740  0.3366  0.2424  0.0401
25604W        W41678   3.204   4.057  13.651 -0.1054 -0.0597 -0.1496
25605W        W41679   3.447  16.290  15.993 -0.1192  0.2180  0.2071
25606W        W41680  17.538  17.122   5.661  0.1220 -0.1853 -0.1995
25607W        W41681   2.200  17.737   2.458  0.1220 -0.0707  0.1694
25608W        W41682   8.472   9.451   3.147 -0.0843 -0.1784  0.1075
25609W        W41683  15.791   6.002  14.304  0.2524  0.0857 -0.3148
25610W        W41684   3.462   5.531   3.971 -0.1399 -0.1085 -0.2349
25611W        W41685   8.899   1.481   4.690 -0.0104 -0.0548 -0.1690
25612W        W41686  13.480  11.441   4.584  0.2035  0.3307 -0.3658
25613W        W41687   7.416   9.211   4.889 -0.0452  0.0646 -0.1587
25614W        W41688  17.001   9.556   2.949  0.2407 -0.0560 -0.1090
25615W        W41689  15.915  10.713  15.368  0.1334 -0.4500  0.1856
25616W        W41690   8.786  17.130   0.443 -0.0762 -0.0331 -0.3733
25617W        W41691   0.187  12.145   5.588 -0.1522  0.0516  0.0250
25618W        W41692  15.356  15.295  11.857  0.1428 -0.2887  0.1013
25619W        W41693  15.780  12.534   4.906 -0.1432 -0.0537 -0.2731
25620W        W41694   3.258  12.623   5.141  0.2386 -0.3684 -0.0948
25621W        W41695   1.081  11.249  15.297 -0.0638 -0.1112  0.0625
25622W        W41696  15.857   2.677  12.421  0.0426 -0.0155 -0.0434
25623W        W41697   2.645   1.285  15.002  0.2434 -0.1549  0.1191
25624W        W41698   2.028  12.301  11.535 -0.1929 -0.1120 -0.1332
25625W        W41699   5.985  16.032  12.073 -0.0730 -0.0317 -0.0910
25626W        W41700  12.901   3.764   4.580  0.1710  0.2760 -0.2010
25627W        W41701  17.295  11.322  13.857  0.3162  0.0534  0.0519
25628W        W41702  11.683   2.859   1.205  0.2016 -0.0529 -0.5045
25629W        W41703   9.021   4.776  12.416  0.0107  0.0670  0.0719
25630W        W41704   0.294   8.132  15.267  0.0145 -0.4387  0.4859
25631W        W41705   1.782  17.809  15.311  0.0178  0.2633  0.5190
25632W        W41706  17.685   9.163  14.480 -0.0829 -0.2557  0.4425
25633W        W41707   6.157   8.012  11.590  0.1467  0.0956  0.0053
25634W        W41708   4.432   4.364   2.590  0.0136 -0.0916 -0.0907
25635W        W41709   7.209  13.795   3.120  0.1659  0.2851  0.3792
25636W        W41710  14.599  12.005   2.923 -0.0437 -0.1755  0.1827
25637W        W41711   2.267   1.589   1.424 -0.1944 -0.0718  0.0999
25638W        W41712  11.196  12.760  11.788  0.3897  0.1227  0.0651
25639W        W41713   3.684  11.371  14.027 -0.0293 -0.0761 -0.1194
25640W        W41714  17.428   0.519   4.355  0.1991 -0.1331  0.0267
25641W        W41715   0.493  16.852  14.044 -0.2978 -0.3626  0.0974
25642W        W41716   0.153   0.000   5.094  0.0514 -0.1702  0.1283
25643W        W41717   9.403  13.324  11.448  0.3534  0.1747 -0.0499
25644W        W41718   1.839   4.276  13.871  0.0208  0.1011 -0.0140
25645W        W41719  15.620  18.200  14.827 -0.3191 -0.1089 -0.0661
25646W        W41720   3.386  12.557   2.243  0.1064  0.0445 -0.2207
25647W        W41721   7.352   6.095  15.203  0.1031 -0.2055  0.1755
25648W        W41722  14.823  14.864   1.012  0.0200 -0.1368 -0.0908
25649W        W41723   6.439   2.115  15.580  0.0949 -0.0766 -0.1177
25650W        W41724  15.613  15.212   5.967 -0.0650  0.1240 -0.1046
25651W        W41725   2.580  11.117  12.289 -0.1005  0.1883 -0.3781
25652W        W41726  18.054   3.162   4.573  0.0872  0.1823 -0.0460
25653W        W41727  17.053   8.460  15.078  0.1733  0.6477 -0.2399
25654W        W41728   3.329   9.136  13.765  0.3586 -0.0432 -0.0715
25655W        W41729  11.016   7.853   1.582 -0.1368  0.0570 -0.2066
25656W        W41730   6.585  12.611  15.815  0.2306 -0.1263 -0.1192
25657W        W41731   2.123   5.291   1.779 -0.2164  0.0124 -0.6176
25658W        W41732  17.480   2.332   1.312  0.2601 -0.2131 -0.0693
25659W        W41733   8.686  17.100  13.137  0.1146  0.1640 -0.1950
25660W        W41734   9.695   7.720   1.565 -0.0927 -0.1581 -0.4441
25661W        W41735   1.258  14.840  13.970 -0.1385  0.1408 -0.0027
25662W        W41736  12.442   0.637   0.366  0.0714  0.1065 -0.0916
25663W        W41737   6.939   6.283  13.818 -0.1943  0.0827 -0.0613
25664W        W41738  14.894   5.172  11.769  0.0253  0.0264  0.3063
25665W        W41739   7.974  14.963   1.228  0.2907  0.4284 -0.1254
25666W        W41740   7.417   9.570  12.513 -0.0199 -0.2215 -0.2990
25667W        W41741   4.356  15.457  13.149 -0.1743  0.1201 -0.4022
25668W        W41742   8.898  17.337   2.995  0.0704 -0.1597  0.0839
25669W        W41743   0.229  17.455  14.241  0.1165  0.0223  0.1938
25670W        W41744  16.598  10.274   2.756  0.1771  0.1471  0.0975
25671W        W41745   1.845  13.741  14.558 -0.1473 -0.1821  0.1650
25672W        W41746  15.463   3.020  14.182  0.1434 -0.1348  0.0341
25673W        W41747  15.701  13.454  12.559  0.3009 -0.0298  0.1671
25674W        W41748  16.220   4.420   3.650 -0.4109 -0.4644  0.3493
25675W        W41749  10.861   0.330   5.179 -0.2512  0.0506 -0.1808
25676W        W41750   3.931   1.753   1.366  0.1028  0.4948 -0.2345
25677W        W41751  11.790   0.975   0.948  0.0823  0.4042 -0.1119
25678W        W41752   9.744   3.497  13.908  0.0802  0.3004  0.1113
25679W        W41753  14.834   1.667  13.668 -0.2329  0.1307  0.1483
25680W        W41754   0.282   6.958   1.186  0.1229  0.0420 -0.1108
25681W        W41755   2.183   9.388   0.705  0.0748 -0.0791  0.3019
25682W        W41756   0.408   7.000  11.233 -0.0782 -0.1435 -0.0313
25683W        W41757   0.484   6.525   4.905  0.0141  0.0144 -0.0674
25684W        W41758   3.455   7.407   0.251  0.0583 -0.2468  0.0973
25685W        W41759   3.337   7.381   4.197 -0.2295  0.0690 -0.0395
25686W        W41760   3.105  13.155   2.947 -0.3432  0.3030  0.4673
25687W        W41761  17.597   7.771   4.720  0.2164 -0.2036 -0.0637
25688W        W41762  16.502   9.513   0.403 -0.0172  0.1643  0.1266
25689W        W41763  16.810   6.222   4.772 -0.1799  0.0539  0.0302
25690W        W41764   1.363   3.593   4.731  0.1577 -0.4547  0.3452
25691W        W41765  16.659   5.459  12.851  0.0698 -0.0998  0.0072
25692W        W41766   8.338   4.845  12.906 -0.0639  0.2129  0.1677
25693W        W41767   8.267  13.610   2.334 -0.0430 -0.2578  0.0400
25694W        W41768   0.788   8.196  15.479 -0.0240  0.1223  0.4837
25695W        W41769  17.037  12.525  11.855 -0.2483 -0.3198  0.0479
25696W        W41770   8.515   5.118  10.430  0.1104  0.0180  0.0154
25697W        W41771  15.674   7.018   5.687  0.2286  0.2268 -0.0625
25698W        W41772  11.500  11.759   2.201  0.1322  0.1270  0.0180
25699W        W41773  16.452  15.432   1.384  0.1197 -0.0745  0.2819
25700W        W41774   2.541   5.972   5.459  0.0894  0.2889  0.1646
25701W        W41775  16.191  10.787   3.998 -0.0763  0.2422  0.0454
25702W        W41776   6.404  15.130  14.774  0.1303 -0.0891  0.0336
25703W        W41777  14.934   1.305   5.536  0.1668 -0.1099  0.1219
25704W        W41778   3.362  13.188   4.716 -0.2680  0.1904  0.2956
25705W        W41779   4.647  16.212   4.407 -0.3389  0.3845 -0.1648
25706W        W41780   6.888   1.322  15.688 -0.3223 -0.0986 -0.2102
25707W        W41781   9.656  15.466  14.367  0.2942 -0.0880  0.1962
25708W        W41782  12.327   0.044   4.758 -0.1166 -0.2689 -0.0909
25709W        W41783   4.893   6.217  13.161 -0.1022  0.1134 -0.1429
25710W        W41784   6.966   2.299   1.539  0.0873  0.2027  0.0449
25711W        W41785   4.907   3.616   1.696 -0.0057 -0.1025 -0.1732
25712W        W41786  16.711  15.763  11.746 -0.2151 -0.1719  0.0282
25713W        W41787  12.169   1.292   0.170  0.5264  0.1186  0.0108
25714W        W41788   7.517   4.162   1.924  0.2146  0.0963 -0.2077
25715W        W41789   6.895   0.388  11.695 -0.2835  0.1323  0.1064
25716W        W41790   1.899   2.392   4.152 -0.2128 -0.1548 -0.1241
25717W        W41791   0.191   5.294  13.306  0.5280 -0.1606  0.2405
25718W        W41792   1.024   9.222  11.350  0.2199  0.0187  0.2096
25719W        W41793  14.085   1.208  16.251 -0.0900 -0.1891  0.0496
25720W        W41794  15.646  17.984   1.140  0.3025  0.1439  0.1356
25721W        W41795   2.686  11.227   5.851 -0.1482 -0.2154 -0.2643
25722W        W41796  12.924  16.437  13.749  0.1233  0.1434  0.1976
25723W        W41797   6.708   4.301   3.425  0.3277  0.0203  0.1415
25724W        W41798   5.719   2.906   3.534 -0.0890  0.0913 -0.3124
25725W        W41799   8.966  12.562  15.262 -0.1670 -0.0895 -0.2270
25726W        W41800   8.394   4.962   5.019 -0.3115 -0.0663  0.3445
25727W        W41801   7.525   7.649  11.584 -0.0378  0.0853  0.0297
25728W        W41802  11.001  11.065  13.036  0.0744  0.1501  0.3152
25729W        W41803   3.893   2.649  12.635  0.0501  0.1380  0.1834
25730W        W41804   1.485  10.622  12.075 -0.1064 -0.3046 -0.3439
25731W        W41805   3.885   7.084  11.187 -0.0363  0.2597 -0.0273
25732W        W41806  14.802   7.351  13.644  0.0360 -0.0737  0.0081
25733W        W41807  11.386  17.854   0.428 -0.1559 -0.0535 -0.3928
25734W        W41808   5.951  18.035   3.359  0.1118  0.0117  0.1610
25735W        W41809   2.338   7.279   5.351  0.1104 -0.3294  0.2785
25736W        W41810  17.856  13.411  11.700  0.0062 -0.2272 -0.1757
25737W        W41811   2.455  15.768   0.492 -0.0699  0.0603 -0.1095
25738W        W41812   8.439   8.206  13.214  0.1065 -0.0175 -0.0987
25739W        W41813   5.089   2.702   1.111 -0.2175  0.0621 -0.1370
25740W        W41814  12.111  12.163  14.055  0.0616 -0.0085  0.1080
25741W        W41815   6.598  16.259   2.634 -0.1417  0.1838 -0.0523
25742W        W41816  10.833  15.705   5.982 -0.0785 -0.0220  0.0182
25743W        W41817  12.897   6.751   5.199 -0.2025 -0.0012  0.1460
25744W        W41818   5.983  15.076  12.770 -0.2363 -0.2222  0.0942
25745W        W41819  17.640   7.919   6.054 -0.2731 -0.1979  0.0687
25746W        W41820   4.433   3.443  16.191  0.1252 -0.0250 -0.4329
25747W        W41821  11.223   5.664   0.156 -0.0446  0.3339 -0.0066
25748W        W41822   1.568  12.579  14.053 -0.1363  0.2308  0.0271
25749W        W41823  16.833   8.695   1.422 -0.2582  0.0767 -0.0972
25750W        W41824   3.202  15.992   3.565 -0.0061 -0.0106 -0.0967
25751W        W41825   1.461   2.256   0.385  0.0167 -0.4518  0.0164
25752W        W41826   3.921  10.550   5.377  0.1707  0.0032  0.2306
25753W        W41827   7.932  15.913  13.186 -0.0046  0.1335 -0.1787
25754W        W41828  15.351   0.545  16.475  0.1386  0.3860  0.1519
25755W        W41829  13.411   0.968  16.215 -0.1133  0.3066  0.0749
25756W        W41830  13.846   3.177  14.888  0.0548 -0.0717 -0.0798
25757W        W41831   4.758   1.979  12.258 -0.4576 -0.1438  0.0912
25758W        W41832   6.844  12.402   0.256 -0.6095 -0.4523  0.0878
25759W        W41833  13.325   9.701   2.797  0.0914  0.0778 -0.1031
25760W        W41834   1.709   3.789   0.378 -0.0800  0.0724  0.0308
25761W        W41835  11.997   5.596  15.652 -0.1652  0.5991  0.2448
25762W        W41836   7.230   5.925   1.894  0.0446  0.2895  0.1363
25763W        W41837  12.621   2.915   2.937  0.0994  0.1754  0.1490
25764W        W41838   9.829  18.029   1.476 -0.2401 -0.2273  0.1513
25765W        W41839   4.067   6.861  12.226 -0.0285 -0.0920 -0.0357
25766W        W41840   3.894   9.834  12.679 -0.1517  0.0551  0.0173
25767W        W41841   3.155   2.637  12.046  0.0570 -0.0666  0.0254
25768W        W41842   2.237  11.058   5.627  0.1898 -0.2959  0.0330
25769W        W41843  12.101   8.159  15.426 -0.2852  0.0872 -0.1498
25770W        W41844  17.832  15.028   5.327  0.2394 -0.0661  0.1270
25771W        W41845   8.943  12.266   0.634  0.2101 -0.0477 -0.0332
25772W        W41846  16.908  14.851   0.543  0.2139  0.0978  0.2412
25773W        W41847   7.994   2.097  11.732 -0.2973 -0.0606 -0.0124
25774W        W41848  10.895  10.045   5.653 -0.0708 -0.0386 -0.2303
25775W        W41849   5.733  13.702  15.871 -0.1793 -0.0233  0.0157
25776W        W41850   0.479   4.590  14.614  0.2534  0.0601 -0.2769
25777W        W41851  13.718  17.243  16.267 -0.2267 -0.0957 -0.0378
25778W        W41852   3.004  10.463   1.993  0.1777 -0.1822  0.0191
25779W        W41853   8.183   4.297   2.825 -0.0356  0.1158 -0.1709
25780W        W41854   1.407  13.139  12.810  0.0948 -0.2901 -0.3819
25781W        W41855  17.656   7.453   3.376  0.0110 -0.1560  0.1710
25782W        W41856  16.131  16.021   0.467  0.3343 -0.3685  0.1794
25783W        W41857  15.964   3.821   5.861 -0.3823 -0.2137  0.0409
25784W        W41858  11.361  15.052   0.657 -0.3843  0.1796  0.1340
25785W        W41859   4.741   3.901   0.471  0.2358 -0.2856 -0.2169
25786W        W41860   4.730  10.104   5.100 -0.1361  0.0611  0.1767
25787W        W41861  11.911   2.893   0.514 -0.0918  0.2064 -0.0472
25788W        W41862  15.561   6.222   1.827 -0.0836 -0.2455  0.1421
25789W        W41863  10.587   6.164  14.670  0.0253  0.1757 -0.2201
25790W        W41864   9.122  15.088  13.449 -0.0653 -0.0717  0.1014
25791W        W41865   9.994  17.224  11.630  0.2302  0.0582 -0.0255
25792W        W41866   7.088  12.502   2.612  0.0725 -0.1037 -0.1614
25793W        W41867  12.503   5.876  15.316  0.0332  0.0732  0.2052
25794W        W41868  13.832  15.449   3.678 -0.0652 -0.2046  0.0735
25795W        W41869   1.254   1.536   4.324  0.6347  0.0895 -0.0255
25796W        W41870   6.490   7.823   4.693 -0.1214  0.2293  0.1487
25797W        W41871  11.422   3.134   4.947  0.1546 -0.0881  0.2280
25798W        W41872   9.396   7.460  14.192 -0.0389  0.1069  0.1008
25799W        W41873  10.136   9.115   1.202 -0.1718 -0.0788  0.0842
25800W        W41874   1.647   2.119  15.242 -0.1844 -0.0541 -0.1519
25801W        W41875   0.809   4.153  13.048  0.1559  0.0357 -0.0113
25802W        W41876  11.072  14.636  15.545  0.2809  0.2586 -0.1927
25803W        W41877   4.960   8.373   1.453  0.0515 -0.0441  0.2942
25804W        W41878   0.428   3.529   1.845  0.1202  0.1205  0.1921
25805W        W41879  11.434   6.579  16.296 -0.0220 -0.0351  0.0731
25806W        W41880  14.771   7.637   3.329 -0.2920 -0.3946 -0.0603
25807W        W41881  16.605  14.760  13.492  0.2105 -0.2139  0.0493
25808W        W41882  12.767   2.190  13.545  0.3042  0.0990 -0.2102
25809W        W41883  10.385  10.336  11.039 -0.0430  0.0079  0.2878
25810W        W41884  15.855   1.869  12.052  0.0666  0.0026  0.2349
25811W        W41885   4.797  11.262   3.547  0.3138 -0.0644  0.3082
25812W        W41886   1.057   2.210   5.363  0.1495 -0.1335  0.2634
25813W        W41887  10.695   7.774  14.046 -0.0998 -0.0282  0.2831
25814W        W41888  13.124   8.718   6.066  0.0466 -0.0775  0.0522
25815W        W41889   0.584  11.959   3.462 -0.0542 -0.4964 -0.0697
25816W        W41890  13.836  15.063   2.838 -0.1671  0.1379  0.0432
25817W        W41891   4.028  11.722   3.445 -0.2421 -0.2148  0.1195
25818W        W41892   2.688  10.299  14.371  0.3026 -0.4730  0.1665
25819W        W41893   6.565  10.646   1.255  0.0282 -0.0886 -0.0521
25820W        W41894  18.085   8.330  11.169  0.0615  0.1146 -0.2071
25821W        W41895  16.033   5.573  14.196 -0.0651 -0.0984 -0.0318
25822W        W41896  13.889  14.178   1.992 -0.0751 -0.0984  0.3079
25823W        W41897  11.143  11.888   5.926 -0.3309  0.2875 -0.0350
25824W        W41898   0.355  15.312  13.475 -0.1843 -0.0781  0.3368
25825W        W41899   0.003   1.876  12.885  0.0461 -0.1549 -0.0908
25826W        W41900  10.926  12.356  14.744  0.2354 -0.1161 -0.2092
25827W        W41901   5.244   7.153  12.286 -0.2440  0.1179 -0.0744
25828W        W41902  15.172  13.406   1.372  0.0383  0.0452  0.3307
25829W        W41903   7.339   3.138  12.891 -0.1148 -0.1006  0.4483
25830W        W41904  16.923   4.469  12.288  0.1524 -0.1160 -0.0626
25831W        W41905   1.609  17.132   1.899  0.1866 -0.3953  0.2330
25832W        W41906  14.131   0.645   2.704 -0.0346  0.0127 -0.2315
25833W        W41907   1.658   7.659  14.550 -0.0497  0.0931 -0.0227
25834W        W41908   0.945   6.680  11.945 -0.2442  0.3112 -0.0931
25835W        W41909  15.811   0.706   5.281  0.0725  0.0216  0.2762
25836W        W41910   1.036   9.835  15.184  0.0683 -0.3147 -0.2379
25837W        W41911   8.343   8.146   1.148 -0.0837 -0.4722  0.1626
25838W        W41912  14.566  10.344  12.558 -0.2736 -0.1676  0.2780
25839W        W41913  12.048   7.663  11.615  0.0533  0.0981 -0.1660
25840W        W41914   1.694  11.574  11.948  0.1903  0.2357  0.3617
25841W        W41915   3.536   1.797   3.006 -0.0082  0.2367 -0.0417
25842W        W41916   4.155  17.840  14.364  0.0368 -0.2499  0.0342
25843W        W41917  12.672  10.274  11.409 -0.1575  0.0544 -0.2972
25844W        W41918  14.843   3.406  14.888  0.4110  0.0036  0.2431
25845W        W41919  14.235   4.395   2.727  0.0372 -0.0242  0.1018
25846W        W41920   8.949  12.711  13.277  0.2738  0.0385 -0.2115
25847W        W41921  12.316   5.778   3.753  0.0199 -0.0389  0.0712
25848W        W41922  16.330  16.121  11.432  0.1368  0.1098 -0.0998
25849W        W41923   8.008   6.919  12.027  0.2021  0.0376 -0.0374
25850W        W41924  10.063   7.575   1.207  0.0444 -0.1493 -0.2278
25851W        W41925   5.575   0.084   1.671  0.2092 -0.0048  0.1131
25852W        W41926   2.355   0.922  15.382  0.2704  0.0392 -0.0266
25853W        W41927   8.297   9.523  15.691 -0.0697  0.1100  0.3779
25854W        W41928  11.203   8.782  15.079 -0.1299  0.1550 -0.0645
25855W        W41929  16.907  13.936   0.795 -0.2091  0.1620  0.0544
25856W        W41930   9.454   3.973   0.622 -0.0436 -0.0149  0.3045
25857W        W41931   0.753  17.205   5.802  0.1538  0.0169  0.2394
25858W        W41932   9.959  13.532   2.745  0.0333 -0.2804  0.1637
25859W        W41933   9.310  14.018   5.145  0.1881 -0.0648  0.1469
25860W        W41934   5.351   7.490   4.538  0.2996 -0.3694  0.1390
25861W        W41935  10.192   0.813  14.937  0.2891  0.2035  0.0932
25862W        W41936  14.718   8.349  14.648  0.0009  0.3422 -0.1447
25863W        W41937   5.040   6.966   2.789  0.1739  0.0089 -0.0627
25864W        W41938   9.532  12.762  16.091 -0.1210  0.2742 -0.0524
25865W        W41939  14.771  14.463   4.322 -0.1084  0.0026 -0.1621
25866W        W41940   3.678   6.631  11.441  0.0531  0.0977  0.3524
25867W        W41941   5.871   4.901  15.933 -0.1768 -0.0872  0.0300
25868W        W41942   0.521  12.796   2.421  0.0588 -0.0151  0.1886
25869W        W41943  10.694   5.510   5.084 -0.5066  0.2034  0.1111
25870W        W41944  12.892   4.414  15.045 -0.2421  0.2436  0.0392
25871W        W41945   3.473   1.972   1.444  0.2035 -0.2509  0.2723
25872W        W41946   6.135  13.796  14.717 -0.0707 -0.0445  0.0594
25873W        W41947  11.254   3.530   3.887 -0.0179  0.2064 -0.0020
25874W        W41948   5.350  14.530   2.557 -0.3964  0.1252  0.0316
25875W        W41949  17.514   3.764   3.463 -0.1327 -0.0256  0.0612
25876W        W41950   1.394   2.523  11.782 -0.2635 -0.0111 -0.0583
25877W        W41951   5.097   6.110  14.733  0.1515 -0.1306 -0.1308
25878W        W41952   6.934  13.625   3.518  0.1788 -0.0204  0.2554
25879W        W41953   3.154   1.790  13.355 -0.2818 -0.1128 -0.1701
25880W        W41954  10.792   7.322   5.254 -0.1855 -0.1527 -0.0865
25881W        W41955  15.459   6.923   4.740 -0.2280 -0.2831 -0.1506
25882W        W41956   9.340   1.934   3.469 -0.0228  0.0042 -0.1771
25883W        W41957  14.211   1.915   1.971  0.1284 -0.2603  0.4027
25884W        W41958  15.961  17.472   1.942 -0.0007 -0.3216  0.0506
25885W        W41959  16.193   8.836   0.157 -0.1996 -0.3358  0.1257
25886W        W41960  11.628   3.324   1.421 -0.4614 -0.2369 -0.1460
25887W        W41961   5.286   7.369  12.754  0.2478  0.0773  0.4029
25888W        W41962  16.683   5.265   3.341 -0.2087  0.1297  0.0095
25889W        W41963  16.418   9.898   0.671 -0.1762 -0.2123 -0.1316
25890W        W41964   3.843   9.400  15.610  0.1091  0.4314 -0.2917
25891W        W41965   2.052   6.414   0.888 -0.0095  0.0397  0.1496
25892W        W41966  13.358  13.414   2.757 -0.1455 -0.7875  0.0017
25893W        W41967   1.889   4.527  14.742  0.0902 -0.1847 -0.2842
25894W        W41968  16.706  10.815   0.526  0.2107 -0.1676  0.0812
25895W        W41969  11.929   8.195   3.388 -0.1293 -0.2613  0.3264
25896W        W41970   3.880   1.269  13.988  0.2629 -0.0899  0.0699
25897W        W41971  14.620  16.467   4.035 -0.2573 -0.0759  0.1224
25898W        W41972   5.743   8.952  12.826  0.1021  0.1841 -0.0600
25899W        W41973  17.954   4.616  16.459 -0.2163 -0.1529 -0.2138
25900W        W41974   7.145  17.791  12.401 -0.1190 -0.0615 -0.2594
25901W        W41975  16.764   7.422   3.087  0.1888  0.0200  0.0330
25902W        W41976   2.432   6.708  13.625  0.0602 -0.3068 -0.0835
25903W        W41977   0.904   6.953  11.101 -0.1384  0.1481 -0.1646
25904W        W41978   8.572  15.573  16.060 -0.0861  0.0619  0.0573
25905W        W41979   7.686  10.343   1.715  0.0740 -0.0890  0.1873
25906W        W41980  13.284  16.707   0.516 -0.0888 -0.0137  0.0612
25907W        W41981  15.897   4.285  11.495  0.0271 -0.2753  0.2013
25908W        W41982  14.766  11.961  14.679 -0.3176  0.1054 -0.0334
25909W        W41983   8.843  15.117  14.364  0.1441  0.0475 -0.1638
25910W        W41984  10.647  10.383  14.819 -0.0803  0.1768  0.4823
25911W        W41985   0.170  12.121   0.220 -0.0774  0.3544  0.1237
25912W        W41986   8.587   5.625   2.752  0.2209 -0.0406 -0.1125
25913W        W41987   1.839   2.614   3.280  0.0572  0.1421 -0.2491
25914W        W41988   0.190  13.468  11.273  0.0369  0.2270 -0.1673
25915W        W41989  18.242  15.072  14.589  0.0780  0.0785 -0.0408
25916W        W41990   4.123  12.946  11.418 -0.0255  0.1487  0.1137
25917W        W41991   3.275  12.084   0.559 -0.0880  0.0023 -0.0434
25918W        W41992  17.649  15.130  13.868 -0.3254  0.1241 -0.0915
25919W        W41993  13.260  17.950   3.391 -0.1019  0.4472  0.5392
25920W        W41994   8.624   4.741   3.325 -0.0206  0.1153  0.2101
25921W        W41995   1.378   9.864   5.073 -0.0344  0.1544 -0.1748
25922W        W41996   9.934   5.460  11.526  0.0066  0.2997 -0.1525
25923W        W41997   8.584   9.772  14.842 -0.1302 -0.0065  0.0925
25924W        W41998  11.760   8.760   4.184  0.2845  0.2449  0.1418
25925W        W41999  17.275   5.492   3.799 -0.0138  0.0142 -0.0163
25926W        W42000  14.896  13.430   0.747  0.0829  0.0022  0.2035
25927W        W42001  16.961  13.593  15.096 -0.4831  0.0842  0.2164
25928W        W42002  15.212   3.685   2.784  0.3948  0.2770 -0.0233
25929W        W42003   2.472  15.197  15.820  0.3204  0.2255 -0.0126
25930W        W42004   1.903   8.151   4.108  0.1075 -0.1760 -0.0643
25931W        W42005   3.777  10.059   1.943 -0.0539 -0.1253  0.1050
25932W        W42006  14.489   2.005   2.771 -0.1433 -0.0956  0.2700
25933W        W42007  18.229   8.978  12.663 -0.0929  0.1422 -0.2152
25934W        W42008  15.259  11.035  11.670 -0.0222 -0.1297 -0.3163
25935W        W42009   8.226   1.830   6.408  0.0434 -0.3607  0.3920
25936W        W42010   3.203   7.108   0.605 -0.1351 -0.3048 -0.0461
25937W        W42011   4.321  17.500  13.181 -0.1621  0.0764 -0.2009
25938W        W42012   6.066   6.566  15.361  0.1157 -0.2532 -0.1687
25939W        W42013  17.847  13.428   0.531 -0.4695  0.2222  0.3245
25940W        W42014   9.757   4.511  14.894  0.0991  0.0060 -0.1709
25941W        W42015   3.623  12.071  14.569 -0.1742 -0.0819  0.1055
25942W        W42016   9.849   3.392  12.474 -0.2338 -0.1294  0.3494
25943W        W42017   2.975   1.774   2.694 -0.3688  0.2139 -0.1876
25944W        W42018  14.715   0.341   1.273  0.1317  0.1200 -0.1390
25945W        W42019  13.127  14.387  12.719  0.0638  0.1199 -0.2031
25946W        W42020   9.377  10.386   4.580 -0.0989 -0.0547  0.4085
25947W        W42021  16.480   2.298   2.295  0.4324 -0.0641 -0.1916
25948W        W42022   3.462   5.181  13.309  0.0613 -0.1330 -0.1370
25949W        W42023   1.312   0.708   0.699  0.6535 -0.2192 -0.4342
25950W        W42024  16.779   3.698   4.097  0.1267 -0.3235 -0.1168
25951W        W42025  12.942  18.046  15.441 -0.1921  0.0987 -0.2304
25952W        W42026  12.111   5.292  10.948  0.1867  0.0837 -0.0745
25953W        W42027   5.762  11.432  16.325 -0.0510  0.3215  0.3681
25954W        W42028  18.015   0.231  10.549  0.0613  0.0103  0.0756
25955W        W42029  17.182   9.774   3.783  0.3418  0.1495 -0.1646
25956W        W42030  12.583   2.261   5.119  0.0436 -0.0891  0.0443
25957W        W42031   0.239   6.012   3.225 -0.1964  0.0395 -0.2630
25958W        W42032   6.814   2.038   0.320  0.0643  0.0098  0.0467
25959W        W42033   4.417   9.577   1.032  0.0425  0.1169 -0.0657
25960W        W42034  18.082   2.050  13.465  0.0454  0.0784 -0.1121
25961W        W42035  14.254   1.522   2.952 -0.2035 -0.1291  0.1974
25962W        W42036   0.812  18.139  15.965 -0.0853 -0.0065 -0.0442
25963W        W42037  16.428  12.220   5.168 -0.0408 -0.1652  0.2097
25964W        W42038   8.524   2.535  13.265  0.4078 -0.1558 -0.0328
25965W        W42039   5.860   7.307  15.034  0.2441  0.1721 -0.1032
25966W        W42040  10.054   6.369   6.089  0.0670  0.0227  0.3213
25967W        W42041   2.237  13.343   1.223  0.2962 -0.1595  0.4575
25968W        W42042   6.786  13.651   0.279 -0.1990  0.0624  0.0032
25969W        W42043  12.098   2.442   5.113 -0.1830  0.1809 -0.2361
25970W        W42044   9.362  10.867   1.382 -0.0735  0.1217  0.2662
25971W        W42045  10.713   0.362   2.622  0.0552 -0.0599 -0.0668
25972W        W42046   7.825   7.633  11.996  0.0193  0.2442  0.0532
25973W        W42047   6.223  11.792   5.712 -0.2046  0.0323  0.1460
25974W        W42048  14.779  17.037  12.479 -0.0977  0.0314 -0.1050
25975W        W42049  11.131  15.675  12.865 -0.0974  0.3919 -0.1227
25976W        W42050   8.526  14.597  15.354 -0.0084  0.2984 -0.0569
25977W        W42051   8.738   0.268  13.052 -0.3037  0.0686  0.3032
25978W        W42052  16.301  17.986   6.216  0.0435  0.0278 -0.2605
25979W        W42053   8.217   3.043  13.601 -0.0625  0.0796  0.3032
25980W        W42054  13.197   4.342  13.264 -0.1959  0.0564  0.2220
25981W        W42055   4.220  12.786   5.665  0.2239 -0.0730  0.0842
25982W        W42056   0.025   4.039  12.271 -0.1210 -0.0332  0.0912
25983W        W42057  10.550   1.015   1.169  0.2589  0.1607  0.0664
25984W        W42058   6.732   5.059   2.550 -0.0516  0.2246  0.4331
25985W        W42059  16.225  16.726   4.458 -0.0868  0.2252  0.0894
25986W        W42060  17.013  11.766   6.131 -0.4010 -0.0029 -0.2482
25987W        W42061  12.444  17.831   2.161  0.3041  0.0842 -0.0251
25988W        W42062  17.130   3.737   0.083 -0.1048  0.2647  0.0165
25989W        W42063   3.324  10.675   0.333 -0.3998 -0.0249 -0.1947
25990W        W42064   4.501   4.393  13.373 -0.2279  0.1828 -0.0622
25991W        W42065  16.304   2.593   4.401 -0.1651 -0.0188 -0.2264
25992W        W42066   1.115  16.095  10.065  0.1896  0.4195 -0.0292
25993W        W42067  14.357   2.073   4.803 -0.0530 -0.0542  0.1941
25994W        W42068  12.276   8.025  14.948  0.0460 -0.0763  0.2668
25995W        W42069   3.581  10.070   4.233  0.0882  0.0003 -0.1540
25996W        W42070   0.590   7.929  13.471 -0.0134 -0.1029  0.2142
25997W        W42071   5.930   8.334  11.884 -0.0531  0.0030 -0.1847
25998W        W42072   5.470   8.687  12.275  0.0803 -0.1820  0.0309
25999W        W42073  17.849  17.077  16.346 -0.2380 -0.2120  0.0399
26000W        W42074  11.277   5.648   2.508 -0.2234 -0.0342 -0.0008
26001W        W42075   3.791   3.905  12.587 -0.1235  0.0412 -0.0569
26002W        W42076   8.108  12.582  13.515 -0.0166 -0.0626  0.1106
26003W        W42077  11.933  13.033   1.027 -0.0535 -0.1161  0.1347
26004W        W42078  14.420  16.982  14.889 -0.1367  0.3297 -0.4578
26005W        W42079   9.802  11.238  16.000  0.0763  0.1054 -0.1658
26006W        W42080   1.697   2.511  13.725  0.1693  0.2618  0.0213
26007W        W42081  13.337   0.138   1.099 -0.2775  0.0152  0.0225
26008W        W42082   1.838   9.230  13.680 -0.1396  0.1588  0.1054
26009W        W42083  14.852  17.014  14.083  0.0975 -0.2003 -0.1300
26010W        W42084  15.736   6.218  16.019  0.2500 -0.0147  0.4119
26011W        W42085   4.820  15.619   0.994 -0.1108  0.0585  0.1932
26012W        W42086  14.918  18.188   0.606 -0.0347 -0.1785 -0.2026
26013W        W42087   9.570  10.932  13.498 -0.1609  0.0227  0.0220
26014W        W42088  16.982   5.347   0.531  0.1555  0.1753  0.0470
26015W        W42089   5.104  15.982   5.480 -0.0508  0.1194  0.1231
26016W        W42090  17.431   5.815   3.382  0.3761 -0.1138  0.0956
26017W        W42091  10.505   3.985  16.435  0.4631 -0.1219 -0.0872
26018W        W42092   3.462   0.594   0.785  0.2667  0.1021  0.2359
26019W        W42093   1.138   6.915  14.782  0.3417 -0.4393  0.1864
26020W        W42094   7.841  12.220  13.781  0.2475  0.1976  0.1283
26021W        W42095   9.906  14.223  15.235  0.4172  0.2904  0.0853
26022W        W42096  11.414  11.079  13.913  0.0134  0.1632 -0.0912
26023W        W42097   3.346  13.745   4.749 -0.4530 -0.0755  0.0015
26024W        W42098  16.605   9.206  11.382  0.0922  0.4987  0.2244
26025W        W42099   0.822  14.450   0.025 -0.2937  0.1375  0.0567
26026W        W42100   8.469   7.268   5.021  0.1490  0.0454  0.1897
26027W        W42101   9.743  15.433   2.607 -0.1774 -0.1132 -0.2602
26028W        W42102  11.446  11.158  14.445 -0.0257 -0.0668  0.0553
26029W        W42103  16.003   2.516   0.994 -0.0104 -0.2138 -0.1382
26030W        W42104   1.196  17.117  11.287 -0.1665 -0.3098 -0.1736
26031W        W42105   1.048   6.239   2.889  0.2158  0.5100  0.0297
26032W        W42106   8.123   0.848  12.589  0.2620 -0.1640  0.1752
26033W        W42107  14.220  11.564  11.644  0.1742  0.1047 -0.3477
26034W        W42108   2.001  11.026   6.158 -0.0660  0.0705  0.1875
26035W        W42109   2.992  17.011  11.489  0.1553  0.1214 -0.2694
26036W        W42110   5.475  16.004  11.847  0.0695  0.1158  0.1296
26037W        W42111  18.081  18.174  15.681 -0.2037  0.1018  0.2957
26038W        W42112  10.689   3.865  15.049  0.3923 -0.0052 -0.0867
26039W        W42113   1.558   8.939   4.518 -0.2960  0.2334  0.0338
26040W        W42114   2.230   0.678  11.150  0.0522 -0.1156  0.1530
26041W        W42115   8.944   9.666   1.885  0.2229  0.3875 -0.0554
26042W        W42116   4.722   1.738   0.354  0.0778  0.2085  0.0542
26043W        W42117  14.169  10.332  14.701  0.2043  0.4179 -0.0614
26044W        W42118  11.980  15.942  11.717 -0.1318  0.1762 -0.1469
26045W        W42119  10.519  13.234   1.846  0.0526  0.0296  0.2140
26046W        W42120   9.308  10.433  15.270 -0.0260  0.2297  0.3012
26047W        W42121  16.553   7.483  15.519 -0.0641  0.0419 -0.4092
26048W        W42122   5.504  13.997   2.581 -0.0439 -0.0210  0.0509
26049W        W42123  14.171   8.100   1.870 -0.3223 -0.0352 -0.0278
26050W        W42124  14.055   4.749  13.103  0.0758 -0.0943  0.0525
26051W        W42125   8.254   8.317   4.142  0.0093  0.0491 -0.2194
26052W        W42126   0.902   0.009   5.061  0.2804 -0.2242  0.1160
26053W        W42127   7.611   1.451   2.726  0.0239 -0.0747  0.0024
26054W        W42128  16.941   4.841   5.276 -0.1911 -0.1013 -0.1033
26055W        W42129   0.458   1.976  11.850 -0.1275  0.2349  0.0675
26056W        W42130   2.235   3.843   0.348 -0.1353 -0.2730 -0.0495
26057W        W42131   0.277   6.035  12.054 -0.4180 -0.0995 -0.0399
26058W        W42132   8.133   7.875   3.321 -0.3338 -0.1183 -0.2998
26059W        W42133  10.150   9.590   1.352  0.0344 -0.0702  0.5382
26060W        W42134   3.553  12.082  11.733 -0.1375 -0.0708 -0.1455
26061W        W42135  12.348   1.510  15.128 -0.0088  0.2184  0.1019
26062W        W42136   6.939   5.812  12.511 -0.0782  0.1101  0.0826
26063W        W42137   5.643  15.825  15.886 -0.1166  0.2465 -0.1266
26064W        W42138  10.285  12.704  15.024 -0.1052  0.1204  0.0930
26065W        W42139   1.318   9.718   2.443 -0.0060 -0.0262 -0.1903
26066W        W42140   0.940  15.849  14.548  0.0143  0.2217 -0.2947
26067W        W42141   7.820  10.496  11.625  0.2072  0.0518  0.0739
26068W        W42142   8.328   1.189  12.210  0.2054 -0.0212 -0.0485
26069W        W42143   4.556  16.730   3.710 -0.0968 -0.1958 -0.0555
26070W        W42144   2.192  17.032   3.077 -0.1884  0.1474  0.1882
26071W        W42145  12.311  10.115  11.785  0.1967 -0.2475  0.0478
26072W        W42146   6.355  16.600   0.922 -0.1137  0.0972 -0.0819
26073W        W42147   1.670   2.706   4.635 -0.0157 -0.3342 -0.0244
26074W        W42148  10.294  13.003   0.140  0.2101  0.0565  0.2833
26075W        W42149  15.049  17.604  10.944 -0.1268 -0.1895  0.2368
26076W        W42150   4.285   1.343   5.428 -0.0898 -0.1262 -0.1257
26077W        W42151   6.374  12.539   4.063 -0.0828 -0.0995  0.2385
26078W        W42152   6.115   2.912   4.128  0.1308  0.0154 -0.1894
26079W        W42153  15.203  15.898   1.790  0.2503  0.2313 -0.1224
26080W        W42154  17.933  12.165   0.128  0.0568  0.2308  0.1543
26081W        W42155  12.355  15.347   5.269 -0.0881  0.0122 -0.0456
26082W        W42156   8.036   9.760   3.127  0.1969  0.0067 -0.1680
26083W        W42157   5.581   9.146  14.767 -0.1049 -0.0347  0.1872
26084W        W42158   2.051   9.237  11.717  0.2838 -0.1375  0.0638
26085W        W42159  12.373   5.488   5.658  0.1752 -0.1195 -0.1000
26086W        W42160  10.146  18.225   2.237 -0.0240 -0.1273  0.0627
26087W        W42161  17.438  13.859  15.308  0.1463  0.1296  0.0836
26088W        W42162  13.739   5.778  14.404 -0.1879 -0.0536 -0.2392
26089W        W42163  14.002   0.686  12.108 -0.0247  0.0117  0.1202
26090W        W42164  14.064   5.678   1.511 -0.0218  0.3085 -0.0536
26091W        W42165  10.272   1.947  13.679  0.2581  0.3521 -0.0111
26092W        W42166   8.196   3.463  11.572  0.3231  0.1486  0.0510
26093W        W42167  10.336   9.119  14.533  0.2699 -0.2417 -0.2319
26094W        W42168   5.196   2.041  13.118  0.0239  0.0153  0.3446
26095W        W42169   3.940  17.505  11.468 -0.0486  0.0974  0.0059
26096W        W42170  10.618  10.460   2.834 -0.0274 -0.1534 -0.2129
26097W        W42171  17.898   9.050  13.449  0.1332  0.0656 -0.1657
26098W        W42172   1.641   5.274   0.211  0.2513  0.0657 -0.2902
26099W        W42173  10.323   7.996  13.090  0.1971 -0.1569  0.1692
26100W        W42174  13.857   6.617   1.810 -0.1324 -0.3070 -0.0582
26101W        W42175  15.614   4.298  12.566 -0.1237  0.3259  0.0910
26102W        W42176   2.009  12.471   4.698  0.1009  0.1314  0.3602
26103W        W42177   5.380   2.897   2.111  0.0982 -0.2021 -0.0914
26104W        W42178  10.758   5.951   1.683  0.2463 -0.1549  0.1916
26105W        W42179   2.467   6.518   2.410  0.2514  0.3486 -0.0720
26106W        W42180  12.190   2.693  14.204  0.0759 -0.1562 -0.3616
26107W        W42181  16.474  14.639   0.227  0.0085  0.1982  0.0416
26108W        W42182   2.352   2.962   1.582  0.0105  0.0669 -0.0012
26109W        W42183  13.892  12.684   2.224 -0.1663  0.1037  0.0901
26110W        W42184   5.310  16.704  12.546  0.0885  0.0749  0.1936
26111W        W42185   9.796  16.318   4.386 -0.2369 -0.2403 -0.1909
26112W        W42186  14.630  16.155  13.218 -0.3442  0.0813  0.1423
26113W        W42187   9.390   6.957  13.161  0.0099 -0.0119  0.2402
26114W        W42188   3.057  15.420  11.942 -0.1626  0.1323  0.4218
26115W        W42189  17.045   0.894   4.306 -0.0675 -0.3452 -0.1296
26116W        W42190   1.902   2.232   1.251 -0.0026  0.2998  0.0487
26117W        W42191   4.880   7.938   3.288  0.0838 -0.0724  0.3475
26118W        W42192  17.298  11.582  12.538 -0.1464  0.2498 -0.0857
26119W        W42193  15.975  14.029  10.549  0.1309 -0.0293 -0.3550
26120W        W42194  16.733   6.384  16.055  0.1217  0.2401  0.0526
26121W        W42195   3.758   0.413   5.648  0.3227  0.0179  0.3818
26122W        W42196   9.943   1.587  14.171 -0.1746  0.2937 -0.1971
26123W        W42197   5.829  15.217   6.252  0.2647  0.0173  0.0459
26124W        W42198  13.565   3.148  15.835 -0.0223 -0.0719  0.4180
26125W        W42199  13.189  17.546   5.836  0.1811  0.1089  0.0700
26126W        W42200   3.620   8.053  13.732 -0.0235  0.1799 -0.2911
26127W        W42201   5.124  12.095  13.993  0.0181 -0.1575  0.4317
26128W        W42202   3.827  16.558   5.399  0.1722 -0.2193 -0.0711
26129W        W42203   8.348  17.489  14.041  0.1077 -0.1531  0.0358
26130W        W42204  17.623   6.057   5.138  0.0085 -0.4630  0.1619
26131W        W42205  16.529  13.350   4.052  0.3655  0.2162  0.1042
26132W        W42206   8.956   9.168   1.787 -0.0548  0.0573 -0.0034
26133W        W42207  17.477  18.074  11.822  0.0934 -0.1556 -0.1813
26134W        W42208   2.013   6.258  14.320  0.2345  0.2756 -0.0545
26135W        W42209  13.817  18.166  14.585 -0.1040  0.2901 -0.0007
26136W        W42210   3.695   4.276  14.262  0.1015 -0.0398  0.0186
26137W        W42211   9.907  13.708   0.094 -0.0059  0.0450  0.1633
26138W        W42212  15.794   7.912   5.377  0.1855 -0.0095  0.1175
26139W        W42213  12.664  17.279   5.101 -0.3717  0.1960 -0.3029
26140W        W42214   6.590  12.998  14.979 -0.0437 -0.3034  0.1325
26141W        W42215   7.945  13.398   5.553  0.0416 -0.0111  0.0840
26142W        W42216  14.929   8.743   1.965  0.1605  0.1116  0.1401
26143W        W42217  11.629  11.142  12.107 -0.0472 -0.1378 -0.0581
26144W        W42218   0.413   1.034   0.386  0.2766  0.2142  0.3431
26145W        W42219   3.351   2.643  14.887  0.1058 -0.1713  0.1155
26146W        W42220  11.549   6.458   3.829  0.2273  0.0684 -0.2507
26147W        W42221   5.681   0.636   3.295  0.0693  0.0628 -0.2089
26148W        W42222   6.048   9.117  15.084  0.1084 -0.1893 -0.0052
26149W        W42223   2.551   2.333  12.847 -0.0795 -0.0169  0.1514
26150W        W42224  11.477  15.070   3.477  0.1371  0.2498  0.0633
26151W        W42225  17.681   6.012  14.195 -0.1955 -0.2323  0.2497
26152W        W42226   1.302   0.232  12.813 -0.2354  0.1845  0.1696
26153W        W42227   4.347   5.535  12.829  0.0850 -0.0465 -0.0799
26154W        W42228   3.693   7.821   5.478 -0.0576  0.1446 -0.1118
26155W        W42229   9.786  10.700   3.840  0.0741  0.0174  0.1208
26156W        W42230  15.590   4.844  13.467  0.0122 -0.0815 -0.1966
26157W        W42231   5.667  14.294   3.942  0.0627 -0.1420 -0.1301
26158W        W42232   9.811  13.417   0.803 -0.1402  0.1166  0.1675
26159W        W42233   2.495   9.067   0.919 -0.3332 -0.0305  0.0269
26160W        W42234   9.968  15.843  16.060 -0.2962 -0.1217  0.0504
26161W        W42235  11.734   4.126   2.329 -0.0405 -0.1561  0.0728
26162W        W42236   6.287   8.678  14.999  0.2063 -0.1524 -0.0071
26163W        W42237   1.064   3.639  15.426 -0.0563  0.1445  0.0489
26164W        W42238   7.196   8.620  12.823  0.0776 -0.2188  0.0377
26165W        W42239   2.935  15.140  15.049  0.1427  0.2962  0.2747
26166W        W42240   2.236  13.929   2.405 -0.1318  0.0585 -0.0722
26167W        W42241  10.835  14.958  15.264  0.0121  0.0974  0.0707
26168W        W42242  17.060  12.225   0.575 -0.1696 -0.1143 -0.2435
26169W        W42243   2.735   8.889   3.619  0.2081 -0.0966 -0.3111
26170W        W42244  15.387  16.914  16.144 -0.1090 -0.0140 -0.0034
26171W        W42245   8.425   7.545  10.797 -0.3012 -0.1543  0.1363
26172W        W42246  15.395   7.121  11.596 -0.0336 -0.2594 -0.0178
26173W        W42247   6.182   2.678   1.641 -0.3991  0.0946  0.0921
26174W        W42248   6.470   5.956   0.011  0.1905  0.0938  0.2801
26175W        W42249   1.850   8.125  15.431 -0.1661  0.3381  0.0840
26176W        W42250   8.278  16.503   0.766 -0.0147  0.1097 -0.0178
26177W        W42251   2.810   3.768   1.583 -0.4661  0.4582  0.2297
26178W        W42252  15.183  14.097  16.046 -0.2955 -0.0194 -0.1714
26179W        W42253  15.094  11.403  13.665  0.2294  0.3344 -0.0263
26180W        W42254   0.701   7.904   2.639  0.0946  0.1542  0.0158
26181W        W42255   5.256  16.388   5.771 -0.2407 -0.1052  0.0300
26182W        W42256   8.893   2.486  14.831  0.1327  0.1520  0.3382
26183W        W42257   7.703   6.545  12.321  0.0852 -0.0446  0.2058
26184W        W42258  12.713  17.837   3.460 -0.0033 -0.1027  0.1292
26185W        W42259  10.627  16.365   0.725  0.3577 -0.1327  0.1219
26186W        W42260  17.868   9.433   4.512 -0.3594  0.2484  0.0087
26187W        W42261   0.335   6.931  15.689  0.2207 -0.2262  0.1615
26188W        W42262  12.383  18.001   3.878  0.0025 -0.1231  0.2467
26189W        W42263  15.732  14.656   1.906 -0.1203 -0.0118 -0.0181
26190W        W42264  14.497   9.473   1.708  0.1025 -0.1982 -0.0716
26191W        W42265  13.508   9.892   0.704 -0.2427 -0.1252 -0.2987
26192W        W42266   2.827   4.963   2.034  0.1060  0.1793 -0.2396
26193W        W42267   8.771  10.435   4.718  0.1469 -0.0669  0.0705
26194W        W42268  11.266   0.215   1.275  0.4866  0.1814  0.0562
26195W        W42269  16.092  14.396   2.311  0.3361  0.1509 -0.0158
26196W        W42270   1.187  14.325   5.385  0.2659 -0.0760  0.3594
26197W        W42271   9.468   0.565   4.694 -0.2586 -0.0211 -0.2237
26198W        W42272   0.829  14.520  15.156  0.2465  0.0810 -0.0706
26199W        W42273   9.595  13.173  15.320  0.1501  0.0397 -0.0834
26200W        W42274   8.900   4.363  12.651  0.0504 -0.1341 -0.1793
26201W        W42275   8.397  12.639  14.424  0.0281  0.2231 -0.0303
26202W        W42276   1.159  10.374   0.593  0.3253 -0.1954  0.2426
26203W        W42277  13.013   2.060   3.065  0.1976  0.3114 -0.0205
26204W        W42278   8.686  10.760   2.394  0.2950  0.2851 -0.0444
26205W        W42279   2.468   4.296   1.075  0.2788  0.2747  0.0607
26206W        W42280  10.474   1.707   2.086 -0.3603 -0.1512 -0.1250
26207W        W42281  14.736  14.345  13.782 -0.0702  0.0840  0.0147
26208W        W42282   8.686   4.542   4.702  0.0886 -0.2321 -0.2034
26209W        W42283   8.638   6.671  15.433  0.0517 -0.0657  0.0673
26210W        W42284   9.363   5.994  14.050 -0.0036  0.0130 -0.0403
26211W        W42285  10.739  14.933   1.215 -0.1600 -0.2012 -0.0783
26212W        W42286  13.451   8.351  13.064  0.1330 -0.0820 -0.0101
26213W        W42287   1.977   2.682   0.842 -0.1005 -0.0188  0.1048
26214W        W42288   9.570  10.409   0.591  0.2047  0.0719 -0.0566
26215W        W42289   7.165   4.681  15.016 -0.1998 -0.2738 -0.1794
26216W        W42290  12.232   8.724   3.450  0.2998  0.0220  0.3615
26217W        W42291  11.892   0.259   3.219 -0.0850 -0.2649  0.2042
26218W        W42292  12.448  15.625  13.364  0.1150  0.3935  0.4171
26219W        W42293  17.200   4.570  13.296  0.3759 -0.0385  0.0085
26220W        W42294   8.051   4.643  12.089  0.0609  0.1316 -0.0330
26221W        W42295  15.712  11.489  16.060  0.1948 -0.2832 -0.1723
26222W        W42296   1.654   9.326   2.442 -0.1022  0.1860 -0.0850
26223W        W42297  16.809   3.397   0.415 -0.0506  0.1515 -0.1037
26224W        W42298   9.357   2.423  13.843 -0.3352 -0.1997 -0.1276
26225W        W42299   1.440  17.146  13.118 -0.0466  0.0218  0.1866
26226W        W42300  17.174   1.773   2.717 -0.2423  0.2285  0.2594
26227W        W42301  14.878   8.235   0.845 -0.0401 -0.4679  0.1263
26228W        W42302  12.290  11.068   4.722 -0.1961 -0.1504  0.0533
26229W        W42303   5.945  11.063  12.400  0.2850  0.0932 -0.0657
26230W        W42304   5.025  17.356  12.089 -0.0908 -0.1911  0.0846
26231W        W42305   1.061  11.882   4.752 -0.0853  0.0482 -0.1946
26232W        W42306   7.397   8.420  14.177 -0.0498 -0.0454 -0.1308
26233W        W42307  11.716  15.006  11.744 -0.1522 -0.0575 -0.1263
26234W        W42308   6.172   8.692   1.103  0.0252  0.0233 -0.2156
26235W        W42309  17.580  16.574  14.341 -0.4285 -0.0971  0.1980
26236W        W42310  12.014  10.906  14.235  0.0437 -0.1373 -0.1603
26237W        W42311   9.294   2.003  13.484 -0.1146 -0.0889  0.1474
26238W        W42312  12.429   7.994   0.242  0.0829 -0.2006 -0.2133
26239W        W42313   2.150   7.386   2.971 -0.0843 -0.2814  0.0443
26240W        W42314   2.553   2.343  15.256  0.2178  0.0599  0.0742
26241W        W42315   0.948   6.142  11.786 -0.1196  0.2386 -0.4079
26242W        W42316   2.304  10.033   4.832  0.1026 -0.1217  0.1095
26243W        W42317  16.699  18.015  12.282  0.2576 -0.0204 -0.1898
26244W        W42318  17.573   5.860   2.336 -0.1057  0.1015  0.0225
26245W        W42319  15.415   5.975   5.622  0.2862 -0.0356  0.3285
26246W        W42320  13.381   9.238  13.580 -0.1724 -0.0348 -0.0552
26247W        W42321  17.578   6.185   3.598 -0.1270 -0.0524  0.0735
26248W        W42322  13.205  18.164   5.894  0.3548  0.0916 -0.2427
26249W        W42323   2.606  13.538   1.551 -0.0513 -0.1379 -0.4191
26250W        W42324   5.778   4.171  15.237 -0.1198  0.0392  0.0534
26251W        W42325   0.579  17.541  11.601 -0.0173 -0.0288 -0.2340
26252W        W42326   6.298  15.895   4.995 -0.1238 -0.0410 -0.0667
26253W        W42327  17.977  17.757   6.254  0.2840 -0.0243  0.4889
26254W        W42328   2.092   1.475  16.196  0.1727 -0.1599 -0.2165
26255W        W42329   1.973   7.794  11.363  0.0372 -0.0199  0.3367
26256W        W42330   2.276   8.245  13.517 -0.0449  0.0047  0.2776
26257W        W42331  14.556   3.777  11.914  0.0664 -0.0807 -0.0783
26258W        W42332   9.765  17.791  12.411 -0.2331  0.1530  0.0690
26259W        W42333  17.550   1.759   0.694 -0.1880  0.0205 -0.0357
26260W        W42334   9.555   4.245   4.248 -0.1243 -0.1764 -0.1619
26261W        W42335   3.518  14.111   1.990 -0.3605  0.2039 -0.1713
26262W        W42336   8.759   6.052   5.860 -0.0291 -0.2679  0.0138
26263W        W42337  15.966  13.055  12.652  0.1526  0.3430 -0.1748
26264W        W42338   7.931  10.882  15.612 -0.0014 -0.0452 -0.0568
26265W        W42339   8.350   9.525   2.257  0.0188 -0.1219  0.0574
26266W        W42340  11.955   5.173  15.883 -0.0023  0.0551 -0.1150
26267W        W42341  17.944  13.321  12.633 -0.1460 -0.0490 -0.3254
26268W        W42342   0.917   2.959  13.767 -0.0766 -0.0108 -0.0155
26269W        W42343  12.645  15.997  15.232  0.2056 -0.1861  0.0297
26270W        W42344   0.075   9.109  15.147  0.2365  0.1357  0.0714
26271W        W42345   6.911  15.799  13.181  0.0772  0.1533 -0.0396
26272W        W42346   6.990   4.723   3.627 -0.1339  0.1679  0.2450
26273W        W42347  17.932   5.218   2.143 -0.0656  0.1148 -0.2635
26274W        W42348   8.562   8.185   0.009  0.1101  0.3395 -0.2508
26275W        W42349  13.679  13.618  14.451 -0.4023 -0.3663 -0.2872
26276W        W42350   8.755  10.785  12.092  0.2104  0.1008 -0.2202
26277W        W42351   3.972  11.240  11.456 -0.0038  0.0825  0.1253
26278W        W42352   5.379  12.425   0.603  0.0965 -0.1573 -0.1648
26279W        W42353  17.995   8.749  14.368 -0.4462 -0.1223 -0.1455
26280W        W42354   8.582   9.072   1.443 -0.0921 -0.1527  0.2367
26281W        W42355  14.190  13.550   4.680 -0.0340  0.1688  0.0437
26282W        W42356   5.857   4.917   1.307  0.0414  0.0724 -0.3039
26283W        W42357   6.530   2.066   5.923  0.2776  0.0952  0.1322
26284W        W42358   9.426  13.353  11.972  0.1063 -0.1187 -0.2409
26285W        W42359   1.122   7.790  12.207  0.0237  0.1996 -0.0882
26286W        W42360  11.483   7.130  16.095 -0.6090 -0.1221 -0.0087
26287W        W42361  14.875   6.640  16.321 -0.0401  0.1361 -0.0035
26288W        W42362   5.214   8.003   1.045 -0.1431 -0.3331  0.3406
26289W        W42363   4.458   7.140  16.494  0.2368 -0.0597 -0.0825
26290W        W42364   8.500   5.861   1.411 -0.1014 -0.0502  0.0440
26291W        W42365  13.050  17.482  15.596  0.1684 -0.0435  0.1672
26292W        W42366   6.370  13.712  12.431  0.0262 -0.0963 -0.2141
26293W        W42367  17.215   0.141  12.778  0.0966  0.2452 -0.1838
26294W        W42368  13.402   6.016  12.906 -0.1844  0.3288 -0.3986
26295W        W42369  13.479   0.597  15.422  0.5006  0.2020  0.1045
26296W        W42370   7.336  12.519   3.894  0.0534 -0.1228  0.0551
26297W        W42371   5.544  10.107   4.084  0.1330 -0.0819 -0.1113
26298W        W42372  10.205   3.755  14.069 -0.3022  0.1925  0.3934
26299W        W42373   3.268  11.982  15.516  0.1349  0.0026 -0.0853
26300W        W42374   6.955   3.549  12.833  0.2341  0.1909 -0.0781
26301W        W42375   1.643   3.739  11.777  0.0239  0.0984  0.0108
26302W        W42376  16.996   8.189   2.566 -0.1681 -0.0867  0.2681
26303W        W42377   9.605  10.730  16.092 -0.1014  0.1423  0.2308
26304W        W42378   8.430  10.822   6.174  0.2722 -0.0144 -0.1336
26305W        W42379  11.548   0.578   1.233  0.1256 -0.0784  0.0135
26306W        W42380  13.205   1.208  12.645  0.0450 -0.0292  0.4241
26307W        W42381  17.825  10.153  14.150 -0.1669 -0.3551 -0.1182
26308W        W42382   3.818  13.314   3.428 -0.0863 -0.3615 -0.0527
26309W        W42383  14.559  14.436   1.243  0.1494  0.0676  0.2546
26310W        W42384   8.454  11.046  13.299  0.1370  0.1050  0.0854
26311W        W42385  13.805   4.648  14.544  0.2626 -0.1869  0.0237
26312W        W42386   2.669  13.160  14.142 -0.0922  0.0300 -0.0940
26313W        W42387   9.842   5.788  13.916  0.0598  0.2673  0.3161
26314W        W42388   3.285  15.659  16.361 -0.0274 -0.1580  0.0090
26315W        W42389   7.683   8.763  11.980 -0.1921  0.1640  0.0696
26316W        W42390  12.472   9.685   3.499 -0.3317 -0.1033 -0.2013
26317W        W42391  11.638  10.745   2.611  0.0159 -0.3808  0.1971
26318W        W42392  12.338   5.918   2.872  0.0258 -0.1266  0.0986
26319W        W42393  17.065  12.693  12.298 -0.2612  0.1525  0.0442
26320W        W42394  16.576   6.466  14.476 -0.1726  0.0201 -0.3359
26321W        W42395   0.408  16.638   2.734  0.2487  0.1343 -0.2659
26322W        W42396  17.770  14.761   4.116  0.0731 -0.2291  0.0958
26323W        W42397   2.032  13.760   3.196 -0.1954  0.0536 -0.0019
26324W        W42398   1.045  16.238   3.342  0.3087 -0.0270 -0.0023
26325W        W42399  14.519   2.481  12.698 -0.3735  0.2050  0.0324
26326W        W42400   9.930  12.664  16.362  0.3435  0.0883  0.1745
26327W        W42401  10.036   8.351  12.906 -0.0548  0.1598  0.0059
26328W        W42402   8.839   2.477  16.488 -0.0137 -0.0803 -0.2647
26329W        W42403  10.723   3.346  15.753 -0.1927  0.2677  0.0791
26330W        W42404  10.850  17.567   2.545 -0.1523  0.0199  0.0680
26331W        W42405   6.048  11.949   0.879  0.1635  0.1109  0.0004
26332W        W42406  15.247  18.210   5.488 -0.1330 -0.1257  0.1508
26333W        W42407  16.010   5.828  13.740  0.1116  0.0184  0.1345
26334W        W42408  13.748   2.368  13.691  0.0391 -0.0768  0.1872
26335W        W42409  10.181   1.739   3.045  0.2403 -0.4553 -0.0766
26336W        W42410   4.082   8.286  13.743 -0.2089  0.1917  0.3403
26337W        W42411  13.166   1.831  12.331  0.0355 -0.2941 -0.1887
26338W        W42412   3.846  14.314   1.731 -0.1312  0.0154 -0.0104
26339W        W42413   3.592   5.688  15.986  0.1169 -0.0562  0.1538
26340W        W42414   7.639  12.663  12.096 -0.0866 -0.0114 -0.2881
26341W        W42415  14.323   1.028  15.825  0.4672  0.0809  0.2691
26342W        W42416  10.000  13.551  15.530 -0.0840  0.2048  0.0633
26343W        W42417  13.201   1.543  13.829  0.2054  0.0160 -0.1131
26344W        W42418   7.263  16.043   0.869  0.0739  0.1215 -0.0039
26345W        W42419   4.038   0.782   3.811 -0.2406 -0.2118  0.3780
26346W        W42420  10.939  11.591   5.507  0.2030  0.0077  0.0597
26347W        W42421   0.850   4.962  14.912 -0.0579  0.1080 -0.1300
26348W        W42422  11.035   9.443   4.400  0.2469 -0.2095  0.0342
26349W        W42423   4.371  15.864  16.376  0.0047 -0.1711  0.0460
26350W        W42424  14.763  13.208  14.107 -0.2312  0.1326  0.1981
26351W        W42425   0.873   5.813   0.129 -0.5596  0.0887 -0.1541
26352W        W42426  12.978   0.251  16.061  0.1440  0.1479 -0.0510
26353W        W42427   2.544   4.735  11.868  0.3141 -0.1488  0.4877
26354W        W42428  15.013   8.319  14.193  0.1262  0.2156 -0.1001
26355W        W42429   8.443  12.558  12.451  0.1764  0.2649  0.0484
26356W        W42430  10.021   2.725  15.588  0.0296 -0.1953  0.0980
26357W        W42431  12.509   1.343  13.307 -0.1460 -0.1058 -0.0716
26358W        W42432   6.521  15.441  13.874 -0.1783 -0.3889  0.1982
26359W        W42433   3.626  14.366  11.533  0.0567  0.0727 -0.1802
26360W        W42434   1.515  11.415   0.356 -0.0936  0.1189  0.2090
26361W        W42435   7.135  13.227   3.148  0.1542  0.0236  0.3339
26362W        W42436   9.263   1.675  13.934 -0.0637 -0.0274 -0.2581
26363W        W42437  15.083   4.653  14.434  0.1397 -0.1499 -0.1417
26364W        W42438  12.198  12.885   5.560  0.0481  0.0939 -0.1364
26365W        W42439   6.546  11.157   5.437  0.0827 -0.2324 -0.3144
26366W        W42440   9.140   1.815   4.325  0.2731 -0.0915  0.1749
26367W        W42441   2.248   5.920   0.868  0.0964  0.2999  0.2820
26368W        W42442   6.442  18.001  16.179  0.1879 -0.0613  0.0074
26369W        W42443   8.418   1.010   3.568  0.0526 -0.2194 -0.1022
26370W        W42444  16.225  16.223  16.020 -0.2245  0.0597 -0.0123
26371W        W42445  14.227   2.354  16.321  0.0470 -0.0953  0.0442
26372W        W42446   1.520   0.128   1.435 -0.2569  0.3224  0.2061
26373W        W42447   5.401   0.761   6.001 -0.4619  0.0103 -0.1104
26374W        W42448   6.779  10.885   4.142  0.2924 -0.1262  0.1044
26375W        W42449   6.168   4.613   5.616  0.0593  0.1436 -0.1570
26376W        W42450  12.625  11.614  16.212 -0.0044 -0.0981  0.1398
26377W        W42451  15.494   8.160   3.043  0.0075 -0.2080 -0.0511
26378W        W42452  16.158  10.844  11.333  0.2125  0.1245  0.4384
26379W        W42453   9.853   1.384   0.191  0.1214  0.2865  0.1999
26380W        W42454   4.711   9.308   4.056 -0.0198 -0.0410  0.1735
26381W        W42455   3.299   4.746  14.413 -0.3457 -0.1839  0.2329
26382W        W42456   9.851  13.854   5.157  0.0273 -0.0730  0.0889
26383W        W42457   3.223  11.212  16.041 -0.1226  0.0517 -0.0041
26384W        W42458   3.308   8.885   0.502 -0.2082 -0.1514  0.3927
26385W        W42459  14.079  15.035   0.901 -0.0120  0.1693  0.1436
26386W        W42460   3.107  12.711   4.120  0.0003 -0.1224 -0.2697
26387W        W42461  15.522   6.507   4.453  0.3251  0.2567  0.1215
26388W        W42462   8.147   4.713   1.279 -0.3919  0.1045  0.0131
26389W        W42463  18.138  15.683  16.073 -0.1886 -0.0121 -0.1031
26390W        W42464  16.752  11.068   3.142  0.3075 -0.1288 -0.0153
26391W        W42465   2.159   3.074   2.149 -0.0828 -0.0235 -0.1236
26392W        W42466   0.328   0.496  12.627 -0.1014  0.0490 -0.2442
26393W        W42467  11.141   1.406  11.616 -0.5517 -0.2903  0.1655
26394W        W42468   2.603   3.630  15.627  0.0519 -0.4037 -0.0669
26395W        W42469  13.681  17.158   3.002 -0.0947  0.1815  0.1515
26396W        W42470  16.725   9.986  12.433 -0.2484  0.0352 -0.2482
26397W        W42471  15.613   5.883   2.891  0.1087 -0.0414  0.1955
26398W        W42472   3.534   8.488   5.496  0.0368 -0.0718 -0.0393
26399W        W42473  16.538   5.639  14.898  0.2487 -0.0477  0.2352
26400W        W42474   0.530  14.092   2.963  0.1468  0.0565 -0.2045
26401W        W42475   6.475  12.158  13.804  0.0454 -0.1617  0.2538
26402W        W42476   1.449  13.369   3.839  0.2603  0.0848 -0.1714
26403W        W42477   1.023   4.474   3.025  0.0428  0.2230  0.0473
26404W        W42478   0.457   4.022   1.053 -0.0770  0.0197  0.2538
26405W        W42479  10.586   1.327   1.726  0.0924  0.1504  0.1669
26406W        W42480  11.154  11.375   1.955  0.1112  0.2747 -0.2137
26407W        W42481   3.742   1.324   2.042 -0.0140  0.1276  0.0139
26408W        W42482   1.139  17.389  16.274 -0.1712 -0.0147 -0.0525
26409W        W42483   7.741   1.927  13.566  0.1714 -0.2081  0.0954
26410W        W42484   8.035   3.293   3.038 -0.2261 -0.1914 -0.2414
26411W        W42485  15.114   9.620  12.556  0.1807 -0.1893 -0.1111
26412W        W42486  15.588   5.343  14.245 -0.0968 -0.1411 -0.2340
26413W        W42487  16.207   0.736   4.013 -0.1868 -0.2352 -0.0135
26414W        W42488   8.572  10.590  14.980  0.4327 -0.1020 -0.3065
26415W        W42489  11.461   6.437   4.898 -0.0395 -0.1417 -0.2421
26416W        W42490  10.471  14.046   0.026  0.0711 -0.2134 -0.1928
26417W        W42491  10.571  14.768   5.368  0.0187 -0.0068  0.1568
26418W        W42492  15.851  18.165   3.719  0.1595 -0.0133 -0.0856
26419W        W42493   4.034   2.869  15.430  0.1223  0.1760  0.0478
26420W        W42494  10.647  10.073  12.792  0.0894  0.1875 -0.0013
26421W        W42495   3.209   9.318  14.950  0.1730 -0.0431 -0.1788
26422W        W42496  13.508   3.722   3.856  0.4028 -0.1106 -0.0885
26423W        W42497   9.407   4.153  15.156  0.1552  0.2817  0.1435
26424W        W42498   4.213   7.766  11.583 -0.0671  0.0955 -0.0228
26425W        W42499   0.188  14.477  12.177 -0.1264 -0.1765 -0.0616
26426W        W42500  15.709   7.104  16.346 -0.2476 -0.1529 -0.2485
26427W        W42501  12.107  10.685  15.663  0.0119  0.0583 -0.3295
26428W        W42502   7.356   3.170   2.137  0.0765 -0.0316 -0.1641
26429W        W42503   6.590  17.410   5.222  0.2195  0.2535  0.1145
26430W        W42504   7.630   8.035  14.031 -0.1848  0.2053 -0.2669
26431W        W42505   3.577  12.656   1.806 -0.0122 -0.2466 -0.0899
26432W        W42506  13.706  16.727  13.412  0.1564  0.2968 -0.0997
26433W        W42507  10.371   8.491  11.939  0.2254 -0.1581 -0.4439
26434W        W42508   9.130   2.753  11.381 -0.2089 -0.0155  0.0655
26435W        W42509  14.265  12.693   1.120 -0.0877 -0.0631  0.1549
26436W        W42510   5.122  10.513   2.793  0.0604 -0.1916 -0.0571
26437W        W42511  17.989  13.684   3.046  0.0558  0.1358 -0.5660
26438W        W42512  17.683   0.695  15.020 -0.0265 -0.1927  0.0751
26439W        W42513   7.483   2.588  15.303 -0.2167  0.3118 -0.0912
26440W        W42514  11.245  16.204   2.311  0.5498  0.1885  0.4249
26441W        W42515   3.365  14.568  12.306  0.3497 -0.1728 -0.2373
26442W        W42516  12.006   4.100  11.726 -0.1166  0.0352 -0.1416
26443W        W42517   4.771   6.039   2.158 -0.1078  0.0723  0.1344
26444W        W42518  15.159  11.086  12.813  0.2400 -0.1698 -0.0909
26445W        W42519  10.529   7.994  15.653  0.0910 -0.1495 -0.1335
26446W        W42520   2.874  10.930   3.102  0.0595  0.1288 -0.0664
26447W        W42521   7.190   3.757   0.180 -0.0541  0.1439 -0.0730
26448W        W42522   0.882   3.579   4.671  0.3982 -0.0098 -0.3220
26449W        W42523  12.909   7.216   5.191 -0.0658 -0.0946 -0.0728
26450W        W42524   1.505  14.793  12.318 -0.0602 -0.2189  0.0310
26451W        W42525  16.556   9.066  12.008 -0.1916  0.2502  0.0730
26452W        W42526  16.552  16.228  14.560 -0.0369 -0.3743 -0.0158
26453W        W42527   4.066   6.995   4.385  0.0500  0.0044  0.2189
26454W        W42528   0.525  16.321   1.257 -0.2747  0.4070  0.0361
26455W        W42529   3.406  17.419   5.461 -0.0264  0.2753  0.2686
26456W        W42530  10.626   9.562   4.809  0.1633 -0.0191 -0.2346
26457W        W42531   9.962   5.848   0.190 -0.2474 -0.0377  0.0467
26458W        W42532  13.529  10.508   4.186  0.2482 -0.4488  0.2841
26459W        W42533  12.411   1.114   3.999 -0.0173 -0.1917 -0.2767
26460W        W42534   8.457   3.575   4.971  0.1457  0.0812 -0.2074
26461W        W42535  11.961   9.936  12.090 -0.2122 -0.1665  0.2644
26462W        W42536   2.119   0.853   1.931  0.1451  0.0284 -0.3303
26463W        W42537  13.121   0.543   2.886 -0.2281 -0.1279 -0.1859
26464W        W42538   1.023   1.189   2.927  0.3064 -0.0349 -0.0900
26465W        W42539  17.926   6.137   0.627 -0.0367 -0.0702  0.1491
26466W        W42540   1.863  11.357   3.269 -0.0097 -0.1680  0.0112
26467W        W42541   2.044   6.363  13.716  0.1234 -0.1519  0.0849
26468W        W42542   4.268  11.847  11.107  0.1074 -0.0227  0.2171
26469W        W42543   0.546   9.878  11.466  0.1064  0.2207  0.0690
26470W        W42544  15.722   2.150   3.771  0.1342 -0.2672  0.1463
26471W        W42545   4.116  11.961  14.733  0.0704  0.2226 -0.0187
26472W        W42546   8.036  11.004   2.695  0.1599  0.0800  0.2145
26473W        W42547   2.861   8.735  10.669  0.3594  0.0093  0.1863
26474W        W42548   7.534  15.398   4.905 -0.1320 -0.1244  0.1464
26475W        W42549   2.618  17.485  15.086  0.1491  0.0508  0.2194
26476W        W42550  14.997   7.860  13.788 -0.1308  0.1425 -0.0371
26477W        W42551  13.211  17.037   3.821  0.0829 -0.1743  0.0960
26478W        W42552   4.802  13.777  16.124 -0.0687 -0.2723  0.1698
26479W        W42553   4.451   7.787  12.074  0.0763 -0.2575  0.1262
26480W        W42554   4.990   5.719  14.983  0.0286 -0.1830  0.1784
26481W        W42555  16.363  14.323   4.913  0.1286 -0.0851 -0.2716
26482W        W42556   2.559  15.637   1.982  0.0009 -0.2389  0.3500
26483W        W42557   3.684   8.046  15.458  0.0770 -0.1734 -0.1290
26484W        W42558  16.059  11.880  16.419 -0.1675  0.1440 -0.0566
26485W        W42559  17.878   8.765   5.435 -0.0311  0.1164  0.2041
26486W        W42560  17.953  12.839   0.724  0.2659 -0.3464 -0.2475
26487W        W42561  14.479  13.623   4.309 -0.2772 -0.1450  0.2412
26488W        W42562   5.688   9.962   1.908  0.1375  0.1352 -0.0347
26489W        W42563   4.515   7.771   4.070 -0.3389 -0.0279  0.3210
26490W        W42564  16.812   6.908   0.007  0.0748  0.2096 -0.1139
26491W        W42565   7.599   8.477   0.033 -0.0431  0.4545 -0.0728
26492W        W42566  10.225   6.547   0.516  0.2119 -0.1028 -0.1513
26493W        W42567   0.732   5.170  13.038 -0.1868  0.2270 -0.0767
26494W        W42568   2.943   8.918   1.162  0.1245  0.1844 -0.0898
26495W        W42569  17.555   6.937   3.533  0.0702 -0.0566 -0.0534
26496W        W42570   6.182  12.018   0.439  0.0298  0.1109  0.2470
26497W        W42571  12.339   7.554  12.915  0.4631  0.2175 -0.2203
26498W        W42572   3.144  10.181   4.452 -0.3920  0.1317  0.2356
26499W        W42573  15.409  11.719  13.829 -0.2572  0.2786  0.1045
26500W        W42574   3.646  12.116   5.767  0.3117 -0.0809 -0.2128
26501W        W42575   8.233  17.336   1.450  0.0931 -0.0476  0.0735
26502W        W42576  12.492   2.695  13.346  0.1352 -0.2211 -0.1595
26503W        W42577  15.128  17.521  15.011  0.0930 -0.3351  0.0793
26504W        W42578  10.219   5.044   1.744  0.0436  0.0288 -0.2129
26505W        W42579   3.179   9.237   0.130  0.2180  0.5355  0.0210
26506W        W42580   7.810  12.319  16.073 -0.2124 -0.0897 -0.1911
26507W        W42581  14.006  16.719   2.203 -0.0246 -0.2948 -0.0478
26508W        W42582  17.641  16.206   4.244  0.0712  0.2031 -0.0715
26509W        W42583   4.390  16.680  13.165 -0.0491 -0.0011  0.2366
26510W        W42584   1.139   7.290  13.826 -0.2023  0.2893  0.2607
26511W        W42585   8.300   1.885   5.279  0.2046 -0.1111  0.0539
26512W        W42586   8.108   1.781  13.909  0.3493 -0.0941  0.0199
26513W        W42587  15.145   4.092   5.652  0.4170  0.0048 -0.2767
26514W        W42588  16.991  16.668   2.366 -0.3416 -0.0499 -0.0700
26515W        W42589   0.166   9.530   2.371  0.0522  0.0160 -0.1491
26516W        W42590  16.108   8.639  15.289 -0.0830  0.0309  0.0814
26517W        W42591   8.113  10.478   4.881 -0.1057  0.1529  0.1962
26518W        W42592  16.741  15.909   3.962  0.1096  0.0297  0.0371
26519W        W42593   4.876  18.013  14.682 -0.1667 -0.0945  0.0382
26520W        W42594   6.133   0.275   0.120 -0.2515 -0.3195  0.3156
26521W        W42595  10.519   2.569  12.670 -0.0069 -0.1347 -0.2940
26522W        W42596   3.513   0.539   6.041 -0.0873  0.1361 -0.1348
26523W        W42597   4.457   7.205  12.291  0.2923 -0.0303 -0.2319
26524W        W42598   7.410  14.055   4.495  0.0536 -0.0133  0.0889
26525W        W42599  12.453   8.423   2.601  0.3723  0.1578 -0.1393
26526W        W42600  13.534   0.997  13.573 -0.0440 -0.0045 -0.1538
26527W        W42601   7.708   1.718  12.645  0.3689 -0.1078 -0.1158
26528W        W42602   3.298  10.154  15.154 -0.0832  0.2302 -0.0037
26529W        W42603  14.612   4.639  13.680  0.2524  0.0506  0.0535
26530W        W42604   7.890   4.181   3.367 -0.0739 -0.1658 -0.2919
26531W        W42605  16.054   1.784  13.784  0.0381  0.0076  0.0662
26532W        W42606  18.161   3.287   1.866 -0.2471 -0.0557  0.2724
26533W        W42607  12.959   6.727   2.529  0.1352 -0.1216  0.0725
26534W        W42608   2.708   3.813  12.611 -0.2311 -0.0166  0.0877
26535W        W42609  13.662  15.368  14.003 -0.2614  0.1137 -0.3919
26536W        W42610   9.504   4.563   5.565  0.0476 -0.0599  0.1950
26537W        W42611   8.672  14.787   5.723 -0.2103 -0.0717 -0.0031
26538W        W42612   6.467   3.411   2.583  0.2810  0.1336 -0.0568
26539W        W42613   4.128   4.144  14.074 -0.0387 -0.0299 -0.0148
26540W        W42614   1.809  16.813   2.767  0.0575 -0.4665 -0.4030
26541W        W42615  13.822   7.102  15.800 -0.1945  0.0142 -0.6510
26542W        W42616   1.646   2.608  15.919 -0.0739  0.0887 -0.1913
26543W        W42617  15.165   6.264  14.486 -0.0852  0.3019 -0.2647
26544W        W42618  15.599  12.458   1.424  0.0315 -0.1158  0.0549
26545W        W42619   3.864  16.957   0.618 -0.4743 -0.3210 -0.1647
26546W        W42620   3.131   3.460   3.345 -0.1110 -0.1467 -0.3246
26547W        W42621   6.995   6.831   3.988  0.2322 -0.5244  0.1862
26548W        W42622   4.723  11.704  11.244  0.2507  0.0307 -0.1791
26549W        W42623  10.543  10.742  10.643 -0.0008  0.2638 -0.0083
26550W        W42624  17.219   9.768  15.123 -0.0505  0.1616  0.0551
26551W        W42625  16.647   9.452  12.340 -0.1545  0.2786 -0.1372
26552W        W42626   8.188   7.177   3.648 -0.1172 -0.1178  0.2403
26553W        W42627  17.176   3.078  16.106  0.0324 -0.1146 -0.1104
26554W        W42628   9.738  10.413  12.245 -0.2125 -0.2595  0.2277
26555W        W42629   0.486   0.079   4.753 -0.0370  0.1232  0.2061
26556W        W42630  13.351   7.012   5.407  0.1677  0.2078  0.3070
26557W        W42631  17.441   4.941   0.039 -0.0371  0.1481 -0.4562
26558W        W42632   7.235   0.434  15.467  0.0513 -0.3222 -0.0243
26559W        W42633   8.821  15.158  13.082 -0.1040 -0.0252 -0.2314
26560W        W42634   8.449   5.448   1.678 -0.0568 -0.0317 -0.0094
26561W        W42635  12.207  12.928  15.149 -0.0887  0.0543  0.1962
26562W        W42636   4.171  11.913  16.078  0.1048 -0.1639  0.2672
26563W        W42637  17.544  17.169  11.455  0.1066 -0.0988 -0.0465
26564W        W42638   3.374   3.681   2.055  0.1188 -0.0462 -0.0318
26565W        W42639  16.426   9.235  13.508 -0.1803 -0.2765  0.4111
26566W        W42640  17.366   2.479  14.049 -0.1076  0.1297 -0.2143
26567W        W42641  16.549  16.180   6.058  0.0887  0.1872  0.0092
26568W        W42642  11.003   1.063   5.844  0.2512  0.0366 -0.0733
26569W        W42643  16.245   1.880   2.154 -0.1328 -0.0088  0.4358
26570W        W42644  14.235  12.348  11.762 -0.2195 -0.2900 -0.3460
26571W        W42645   6.176   1.360  15.250  0.4042  0.1312  0.1826
26572W        W42646   3.811  11.193   1.598 -0.1553  0.1116  0.3200
26573W        W42647  16.386  17.467   2.638 -0.1610  0.1537  0.0269
26574W        W42648   8.000   2.605  13.526 -0.0563  0.1464  0.0133
26575W        W42649   7.045   0.543   0.200 -0.0634 -0.0263 -0.1741
26576W        W42650  15.456   3.319   0.957 -0.1088  0.0437 -0.1246
26577W        W42651   3.085   5.050  16.438 -0.2280 -0.0017 -0.0601
26578W        W42652  15.490  13.157  15.976 -0.1909  0.0628  0.3186
26579W        W42653   7.141   8.977  12.486  0.1003 -0.1013 -0.0502
26580W        W42654   9.962  14.230  12.920  0.0752  0.3122 -0.0690
26581W        W42655  10.659   4.477   0.206 -0.1240  0.0769 -0.1508
26582W        W42656   6.369  12.849   0.708 -0.0173  0.0691  0.1686
26583W        W42657   2.109  12.860   4.066 -0.0204 -0.2329 -0.3408
26584W        W42658   1.233   0.510   1.200 -0.0534 -0.0681 -0.2177
26585W        W42659  10.227  11.510   2.524  0.1972 -0.1325  0.2108
26586W        W42660   8.140  13.477   0.955 -0.1089 -0.1586 -0.4678
26587W        W42661  16.974   5.463   2.837  0.1972  0.0477  0.1655
26588W        W42662   0.216   8.742   0.508 -0.1475 -0.3555 -0.2240
26589W        W42663  10.110  16.928   2.756 -0.0219  0.1789 -0.0308
26590W        W42664   5.527  11.803  15.057 -0.0174 -0.1833 -0.3859
26591W        W42665   4.486   2.901   2.377 -0.1797 -0.1925 -0.2659
26592W        W42666   1.225  16.702   2.316 -0.4421  0.3108 -0.0577
26593W        W42667   5.240  13.893  15.980 -0.0152  0.0011  0.2055
26594W        W42668   1.653   0.336   0.905 -0.0965  0.2243 -0.0523
26595W        W42669   3.033  16.226  10.768 -0.2306  0.0002 -0.4648
26596W        W42670  11.646  10.912   3.429 -0.0295  0.1926 -0.3225
26597W        W42671   6.682   3.214   1.313 -0.0540 -0.1561 -0.1473
26598W        W42672   2.877  16.168   0.953 -0.0025  0.3910 -0.1276
26599W        W42673   9.944  17.737   3.646  0.2029 -0.2909 -0.2067
26600W        W42674   4.981  16.676  13.584 -0.0444 -0.0627 -0.2800
26601W        W42675  11.561   7.247  11.972  0.3232  0.1031 -0.4407
26602W        W42676   8.893   8.883  11.456 -0.1896 -0.2363 -0.0236
26603W        W42677  14.063  13.363  16.022  0.1300 -0.0414 -0.0477
26604W        W42678   4.607  11.996  12.864 -0.3097  0.2305 -0.0369
26605W        W42679  17.065  11.593   4.812  0.1715 -0.1211 -0.0848
26606W        W42680   7.156   5.285  14.593 -0.2972 -0.0315  0.2318
26607W        W42681  17.859   8.892   2.812 -0.4165  0.2988  0.0455
26608W        W42682  12.389  14.984   0.598 -0.1084 -0.1661  0.3233
26609W        W42683   9.057  14.244  11.161  0.0763  0.0308  0.0038
26610W        W42684  10.391   0.910   4.702 -0.5033  0.0371  0.2243
26611W        W42685   4.872  17.215   6.246  0.1194 -0.2060 -0.2799
26612W        W42686  12.483  15.334  15.159  0.1167  0.0642  0.0893
26613W        W42687   5.066   2.498  13.359  0.0279 -0.0522  0.0081
26614W        W42688  10.544  18.099  16.095 -0.1363 -0.0198 -0.1691
26615W        W42689  15.915  10.033  12.468 -0.0659 -0.2927 -0.1501
26616W        W42690  12.534   2.244  15.747  0.0508 -0.0968  0.1351
26617W        W42691  17.714  13.108  16.487  0.0265  0.1701 -0.1074
26618W        W42692  10.035  15.059   0.101  0.3250  0.1770  0.2914
26619W        W42693  15.481   0.876   0.368 -0.4877 -0.0918  0.1975
26620W        W42694   1.079  12.640   4.031 -0.0773 -0.0797  0.2491
26621W        W42695   1.632   1.381  11.478 -0.0259  0.2606 -0.0149
26622W        W42696   4.036  11.290  13.139 -0.1437  0.2128 -0.0267
26623W        W42697  17.621   6.011   1.616 -0.2192 -0.0928  0.1532
26624W        W42698  17.558  11.246   4.827 -0.0831 -0.3623 -0.1454
26625W        W42699   4.310   3.076   0.619 -0.1472 -0.2553 -0.2223
26626W        W42700   1.154  12.468  11.506  0.1761 -0.0418  0.1228
26627W        W42701   7.459   0.471   5.315 -0.2320 -0.1911 -0.1408
26628W        W42702   5.459   7.104  13.668  0.0036 -0.1454  0.3215
26629W        W42703  11.280  14.540   1.570 -0.4130 -0.0373 -0.2564
26630W        W42704   7.175  11.550  15.836  0.1192  0.1353  0.0913
26631W        W42705  13.459   8.550   1.486 -0.0376 -0.3035 -0.0639
26632W        W42706   9.631  10.513   1.176  0.0606 -0.0333 -0.5857
26633W        W42707  10.536   6.829   4.537 -0.0027  0.4811 -0.0111
26634W        W42708  13.827   2.186   0.719  0.4121  0.3770 -0.0721
26635W        W42709   8.129   4.109   4.534  0.4507 -0.2854 -0.1181
26636W        W42710   6.443   3.018   2.235 -0.2981  0.1943 -0.0153
26637W        W42711   9.304  12.283   3.886  0.1010  0.0504 -0.3133
26638W        W42712  15.043   9.553   3.369 -0.0957 -0.0723 -0.0693
26639W        W42713  10.968   4.006   5.742  0.1923  0.0093 -0.0517
26640W        W42714   1.778   1.133   1.604 -0.3322 -0.0108 -0.2458
26641W        W42715  12.103  17.917  12.940 -0.1108 -0.0362  0.1216
26642W        W42716  10.683  17.758   3.168 -0.1705 -0.0780  0.1172
26643W        W42717  15.907   9.550  12.826  0.0469 -0.2748  0.1094
26644W        W42718  11.375  11.249   1.446 -0.0270 -0.1635 -0.0851
26645W        W42719  12.024   9.248  14.184  0.0384  0.0523  0.2356
26646W        W42720  12.073   1.994  15.287  0.0142  0.1329  0.1122
26647W        W42721   3.251   9.364  12.500  0.0871  0.3590 -0.2304
26648W        W42722  10.858  18.015  13.279 -0.1928  0.1172 -0.1671
26649W        W42723   7.727  11.617   1.415  0.0848 -0.0118  0.2937
26650W        W42724  13.144   8.643  12.727 -0.1841 -0.0930  0.0169
26651W        W42725   5.522   9.199   3.577  0.2245  0.2177 -0.0908
26652W        W42726  17.041  13.301   0.593  0.1374 -0.1781  0.0818
26653W        W42727  11.939   6.237   4.795 -0.0233  0.2099 -0.2342
26654W        W42728  14.577   7.323  12.668 -0.0713 -0.0253  0.0635
26655W        W42729   1.162  10.837   4.584 -0.0888  0.2020  0.2756
26656W        W42730  14.059   2.710  13.601 -0.1033 -0.0625 -0.0723
26657W        W42731  15.006  15.481  15.445  0.0845 -0.1707 -0.0438
26658W        W42732  12.517  14.608  15.888  0.0521  0.0322 -0.1057
26659W        W42733   3.707   3.308  13.784 -0.3988  0.1460 -0.0232
26660W        W42734  17.169   9.838   2.467 -0.3153  0.3068 -0.1712
26661W        W42735  14.592   2.790   4.551  0.0175 -0.2278  0.0741
26662W        W42736   1.759   2.801   2.817 -0.0105 -0.0956 -0.0186
26663W        W42737   2.246  15.290   1.404  0.4352 -0.2269  0.4988
26664W        W42738  14.086   8.244  13.866  0.3012  0.1635  0.2325
26665W        W42739  15.791   2.566   1.709  0.0060 -0.2734  0.0219
26666W        W42740   4.053  16.569   1.702 -0.1172 -0.2138 -0.0067
26667W        W42741   6.246   1.394   1.015 -0.1189 -0.2876  0.0658
26668W        W42742   5.827  12.646   5.800 -0.3714  0.1706 -0.1664
26669W        W42743  14.011  14.802   4.756  0.2375  0.0379  0.0520
26670W        W42744  10.377  13.271   2.681 -0.3508 -0.0679 -0.0666
26671W        W42745   3.131  10.353  12.133  0.2077  0.0658  0.0522
26672W        W42746   9.392  10.301   1.597  0.1736  0.0779  0.4996
26673W        W42747   9.263   5.578   4.046 -0.2984  0.1823 -0.1046
26674W        W42748  17.239   3.644   2.024 -0.0285 -0.2216 -0.1254
26675W        W42749  15.514  18.078   2.888 -0.1093 -0.0540  0.3400
26676W        W42750   2.964   3.027  13.871  0.1500  0.0558  0.0043
26677W        W42751   5.146  16.049  13.299 -0.0749 -0.2863  0.0314
26678W        W42752  17.168   0.625  15.798 -0.0455 -0.1645  0.0020
26679W        W42753  17.815  16.195  11.212  0.0193  0.0924 -0.2062
26680W        W42754   7.858   6.957   6.183 -0.1441 -0.3467 -0.3141
26681W        W42755   8.139   8.098   2.881 -0.0189  0.1748 -0.1667
26682W        W42756   3.538   7.777   3.051  0.0799 -0.1424 -0.1570
26683W        W42757   5.508  12.307   1.678  0.2901  0.0538  0.3003
26684W        W42758   0.545  14.636  13.233 -0.1151  0.0763 -0.0044
26685W        W42759   2.868  12.289   3.947  0.0837 -0.4428  0.2253
26686W        W42760   7.091   1.698   5.208  0.2205  0.3510  0.0415
26687W        W42761  10.028  17.940   4.888 -0.1495  0.0427  0.4738
26688W        W42762   4.508   1.290   3.198 -0.1094  0.1608  0.2859
26689W        W42763  11.544  13.362  12.101 -0.2889 -0.2748 -0.2961
26690W        W42764  16.345   2.440  13.134 -0.0723  0.1952  0.2081
26691W        W42765   9.888  17.792   1.972  0.1101  0.1573 -0.2719
26692W        W42766  14.183  17.930  12.920  0.0166 -0.1517  0.1040
26693W        W42767  12.128   7.903   4.055  0.0917  0.4710 -0.2522
26694W        W42768  13.365   3.369   3.561  0.2408 -0.1903 -0.0484
26695W        W42769   1.140  16.399   6.175  0.1670 -0.1958 -0.1029
26696W        W42770   8.274  16.570   3.125 -0.1060  0.1124 -0.0788
26697W        W42771   0.537  16.063  11.566  0.1013  0.0663 -0.4021
26698W        W42772   9.888  16.808  16.054 -0.1326 -0.0237  0.4216
26699W        W42773   4.813  14.685  15.569 -0.1294 -0.1369 -0.1243
26700W        W42774   2.357   2.090  16.360 -0.1451 -0.1896 -0.3785
26701W        W42775   5.784   9.881  16.404  0.0239  0.1177 -0.1594
26702W        W42776   5.529   7.441   3.979  0.1623  0.0605  0.1368
26703W        W42777  12.152  11.788   1.142 -0.2877  0.1333 -0.1288
26704W        W42778   1.177   4.424  11.154  0.2458  0.0303 -0.2296
26705W        W42779  13.902   9.450  12.009  0.0448  0.3078 -0.3687
26706W        W42780   1.794   3.591   5.506  0.0189  0.1892 -0.0547
26707W        W42781   7.079  15.482   3.175  0.0581  0.0135 -0.3586
26708W        W42782   2.131   5.736   5.687 -0.3430  0.2823 -0.2109
26709W        W42783  15.602  11.451   3.707 -0.0818  0.0756 -0.1870
26710W        W42784   3.928   8.513  11.173 -0.2605 -0.1775 -0.0434
26711W        W42785  14.931  10.834   5.746  0.1759 -0.1414  0.1000
26712W        W42786   4.225   4.586  14.248 -0.1465 -0.0424 -0.1821
26713W        W42787   0.389   5.788  14.364  0.2558  0.0642 -0.2509
26714W        W42788  13.207   8.191   6.059  0.0923  0.0006 -0.1704
26715W        W42789   2.951   1.440   0.776 -0.0217 -0.0444 -0.0653
26716W        W42790  16.270   4.806   0.188  0.0160  0.0911  0.2995
26717W        W42791  17.763   9.117   4.944 -0.0446  0.1859 -0.0189
26718W        W42792   0.480  15.783  15.212  0.1156  0.1981 -0.1071
26719W        W42793   3.132   5.367   2.079 -0.1401  0.1229 -0.0598
26720W        W42794   8.879   0.607  16.151 -0.3676  0.2570  0.3149
26721W        W42795  15.803  17.309  16.214 -0.0228 -0.0635 -0.2308
26722W        W42796   2.932   1.143  16.429  0.2416  0.0393  0.0150
26723W        W42797   1.598   1.227   3.464  0.1065  0.1309 -0.0484
26724W        W42798   1.231   2.976  13.340 -0.0545 -0.3453 -0.2706
26725W        W42799  16.800   0.968   4.871 -0.3081  0.0818 -0.0640
26726W        W42800   0.118   0.623   1.472 -0.0054 -0.3549 -0.0756
26727W        W42801  17.450  18.225   0.343  0.0953  0.2312  0.1510
26728W        W42802   8.543  15.463  14.102 -0.2523 -0.0071  0.0856
26729W        W42803  14.696  15.688   2.554 -0.2333  0.1245  0.3636
26730W        W42804   6.142   7.605  15.838 -0.0636  0.1952  0.0499
26731W        W42805   4.390  10.753  11.131 -0.0200 -0.0185  0.0841
26732W        W42806   4.802   0.924   3.084 -0.2657 -0.0912  0.2557
26733W        W42807   6.029   9.655   5.246 -0.1789 -0.1311 -0.0719
26734W        W42808  17.975   6.888   1.674 -0.1372 -0.2572 -0.0369
26735W        W42809  16.136   7.766  15.189  0.0035  0.0201  0.1214
26736W        W42810   2.786   9.387   4.554  0.0941  0.0211  0.1296
26737W        W42811   4.118  10.188   1.599  0.0479  0.2849  0.1045
26738W        W42812   5.956   1.351  13.301  0.0259 -0.1851  0.0642
26739W        W42813  10.894  15.687   3.801  0.0373  0.1458 -0.0249
26740W        W42814  13.545   6.795  14.636  0.0162 -0.2668 -0.0306
26741W        W42815   1.753   1.313   2.374 -0.0372 -0.0644 -0.1631
26742W        W42816  11.381   5.842  15.531 -0.0242  0.2538  0.2848
26743W        W42817  16.916   3.303   4.423 -0.0332 -0.1438  0.1167
26744W        W42818   6.350  15.972  10.812  0.3331  0.1484 -0.3773
26745W        W42819  17.909   6.588   3.396  0.1502 -0.1104 -0.2918
26746W        W42820  11.581  14.733  15.673 -0.0764  0.0610 -0.2243
26747W        W42821  13.893   8.245   4.913 -0.1606 -0.3178  0.1058
26748W        W42822  14.356  12.130   4.332  0.0322  0.0771 -0.1531
26749W        W42823   6.717   8.515   4.884  0.0311 -0.1920 -0.1810
26750W        W42824  13.279  10.573  14.945 -0.1277 -0.2924  0.0413
26751W        W42825  14.210   2.421   4.448 -0.1573 -0.3859  0.0673
26752W        W42826  17.383   6.935   2.415 -0.3044 -0.0509  0.3580
26753W        W42827  12.696  12.410  14.566  0.4441  0.2686  0.1847
26754W        W42828   1.121  11.548  16.385 -0.0162 -0.0384 -0.3715
26755W        W42829   8.455  10.229   4.356 -0.1841 -0.1849 -0.1235
26756W        W42830  16.441  10.583  11.783 -0.1168 -0.0385  0.2444
26757W        W42831   8.659  14.506  11.399  0.0430  0.0276  0.2547
26758W        W42832   9.137  11.502   2.010 -0.1430 -0.3164  0.0317
26759W        W42833   5.848   4.090   4.061  0.2364  0.1766 -0.1822
26760W        W42834  12.790   8.702   4.156 -0.2603  0.3407 -0.2250
26761W        W42835   1.559   8.243   6.034 -0.1314  0.1068 -0.0721
26762W        W42836   2.750   3.096   1.950 -0.0034 -0.0746 -0.2048
26763W        W42837  15.304  14.208  11.909  0.0973  0.0436 -0.0334
26764W        W42838   8.842   4.353  11.577  0.2451 -0.0734 -0.0873
26765W        W42839   5.779  17.485   6.129 -0.1469 -0.2070  0.2398
26766W        W42840   9.715   5.521   3.477 -0.0115 -0.0626 -0.0963
26767W        W42841   8.689  14.339   1.979 -0.0057  0.0350 -0.0246
26768W        W42842  14.589  11.956  12.046  0.0689  0.0794  0.1457
26769W        W42843   9.039  17.231   0.022 -0.0815  0.1099  0.0197
26770W        W42844  12.184   8.824  13.501  0.1500 -0.1058 -0.0457
26771W        W42845  12.959  14.414  13.271  0.1675  0.0875  0.5491
26772W        W42846   3.649   4.373  12.896  0.2661  0.1069  0.0037
26773W        W42847  11.894  15.902  10.788 -0.1402 -0.1965  0.2150
26774W        W42848  15.008  10.669   3.396 -0.0682  0.0039 -0.0907
26775W        W42849   7.286  16.778   2.848 -0.0221 -0.1604 -0.1566
26776W        W42850  17.808   9.059  11.437 -0.2754 -0.1860  0.2123
26777W        W42851   2.945  17.877  12.257 -0.1327  0.1478 -0.0434
26778W        W42852  13.481  12.251  14.404 -0.0306  0.2191  0.0632
26779W        W42853  13.334   2.995  14.974 -0.1023  0.1607 -0.0414
26780W        W42854  17.761   9.436   2.533 -0.0126 -0.1470  0.1431
26781W        W42855  15.270   3.170  12.193  0.1394  0.1678  0.0443
26782W        W42856  11.731  10.516   3.056  0.0941 -0.0482  0.1106
26783W        W42857   3.907  14.638  13.681 -0.0268 -0.5795  0.1369
26784W        W42858   6.691   1.793   0.775 -0.0806 -0.0411 -0.5973
26785W        W42859   6.907  17.858   1.237 -0.0672  0.2353 -0.1685
26786W        W42860  12.531   7.540   2.930  0.2580 -0.1767 -0.1334
26787W        W42861   3.019  10.510   5.397  0.1473 -0.2329 -0.0581
26788W        W42862   9.826   4.091   4.845  0.0088 -0.0953  0.0769
26789W        W42863   5.996  14.666   2.035  0.0548 -0.0707  0.2381
26790W        W42864  17.014   3.228   6.192 -0.0877 -0.0578  0.0200
26791W        W42865   9.735   5.032   3.101 -0.1299  0.3560 -0.0764
26792W        W42866   8.053  16.374  11.965 -0.3300  0.0956  0.0686
26793W        W42867  16.385   8.005   2.549 -0.2148  0.1486  0.0902
26794W        W42868   2.949  18.089   4.784 -0.2960  0.2882 -0.0039
26795W        W42869   9.260   0.889   3.343 -0.0626  0.1078 -0.2972
26796W        W42870  11.119   1.245  14.134 -0.0970  0.1272 -0.0244
26797W        W42871   8.351   1.931   0.400  0.0047  0.1840 -0.1209
26798W        W42872   0.742  13.333   9.957  0.1417 -0.0093  0.1024
26799W        W42873  17.841  14.544  11.355  0.0346 -0.1990 -0.2747
26800W        W42874  14.742  14.473  11.557 -0.1221  0.2475 -0.0283
26801W        W42875  10.924  11.371  13.809  0.3305  0.4728 -0.0633
26802W        W42876  13.530   6.676  15.819 -0.0166 -0.0047 -0.2537
26803W        W42877   4.384   5.058  12.836  0.3008 -0.1884 -0.0776
26804W        W42878  12.195   8.403   4.984  0.0899  0.0513  0.2973
26805W        W42879   4.217   6.717   4.902 -0.2362 -0.1575 -0.0968
26806W        W42880  10.909   5.952  12.533 -0.1698  0.2041 -0.1088
26807W        W42881   8.087   7.651  11.485  0.3234 -0.1270  0.0502
26808W        W42882  11.663   2.917   2.687 -0.2180 -0.1227 -0.0856
26809W        W42883  16.954  11.211  14.513 -0.0823 -0.1966  0.0394
26810W        W42884   1.239  11.571  13.165  0.0462  0.1817 -0.1333
26811W        W42885   9.680   7.618  16.146 -0.3274  0.1325 -0.6336
26812W        W42886  15.703  16.817   4.264 -0.1888 -0.2766 -0.4186
26813W        W42887   2.604   6.516  11.172 -0.2987  0.2719  0.1913
26814W        W42888   9.696  11.743  12.654 -0.1798  0.0678 -0.2149
26815W        W42889  14.395  16.755  11.512  0.1294  0.0611 -0.0193
26816W        W42890   9.244  13.781  14.579 -0.0730  0.2201 -0.1040
26817W        W42891  13.512   2.540  11.730 -0.1601  0.1907  0.1113
26818W        W42892   2.391  16.586  12.593 -0.3180  0.1012  0.0075
26819W        W42893  17.413  17.397  15.318  0.2181 -0.0016  0.0857
26820W        W42894   7.672   6.737   0.906  0.0592  0.3134  0.2236
26821W        W42895  10.190   1.179   1.466 -0.0338 -0.1220 -0.0909
26822W        W42896  16.981   4.652  15.724  0.0359 -0.3435 -0.1492
26823W        W42897   8.528   4.841   3.883 -0.1394 -0.1004  0.2070
26824W        W42898   9.206  13.517  12.905  0.0226 -0.0472 -0.1214
26825W        W42899   3.631   3.776  15.726 -0.1359  0.0561  0.1630
26826W        W42900  17.921   6.525   3.955 -0.2402 -0.3123 -0.0422
26827W        W42901  10.560   2.404  14.894  0.1454  0.1182 -0.0631
26828W        W42902   3.241   4.999  13.964 -0.3715 -0.3298  0.0427
26829W        W42903   1.766   4.834   0.081  0.1378  0.0343  0.2134
26830W        W42904   7.450  14.633  14.285  0.2069 -0.0452 -0.1316
26831W        W42905   5.970  10.940   0.726  0.2063 -0.2419  0.0092
26832W        W42906  11.639   1.236  14.293 -0.2166  0.2046 -0.2457
26833W        W42907   9.205   5.002  12.008  0.1790 -0.0462 -0.0361
26834W        W42908  17.386   2.431   5.344 -0.0256  0.0237  0.2139
26835W        W42909   5.123   0.386   1.818 -0.1174  0.1147  0.0964
26836W        W42910  16.019   3.860  11.823  0.2199 -0.1359  0.3410
26837W        W42911   7.877  15.270  14.737 -0.1880 -0.3039  0.1107
26838W        W42912  15.546   5.191   2.842 -0.1167 -0.0224  0.1488
26839W        W42913   1.908   7.133   3.879 -0.0611  0.1433 -0.0867
26840W        W42914  17.779   3.583  16.364 -0.1950  0.1313  0.3689
26841W        W42915   5.605  13.091  13.066  0.0386 -0.0362  0.0565
26842W        W42916   3.041   1.381  15.303 -0.2252 -0.0654 -0.0382
26843W        W42917   4.761  12.038  14.876 -0.0762  0.3122 -0.0607
26844W        W42918  13.830   8.239   1.395  0.1381  0.1159  0.0612
26845W        W42919  17.256  10.076  12.248  0.1379  0.1271 -0.2636
26846W        W42920  18.068   3.574  14.754  0.4067 -0.0221 -0.2132
26847W        W42921   4.481  16.839  15.353  0.3141 -0.0419  0.1497
26848W        W42922   3.501   2.912   2.685  0.0930 -0.2023 -0.0959
26849W        W42923   5.463   4.733   1.120 -0.1468  0.1909 -0.0793
26850W        W42924  16.348   5.698  16.329  0.1166 -0.0415 -0.0823
26851W        W42925   3.402  14.927  12.731  0.0319 -0.2104  0.5055
26852W        W42926  13.996  14.590  11.246  0.1073 -0.0663 -0.1388
26853W        W42927  17.261  13.513  13.191  0.1710  0.1047 -0.1250
26854W        W42928   5.133  12.398  12.652 -0.1246 -0.1064  0.3165
26855W        W42929  17.211   0.890   3.367 -0.2202 -0.2229 -0.0540
26856W        W42930  12.458  10.985   5.190 -0.1611  0.0206 -0.0144
26857W        W42931   9.377  13.213   5.524  0.0367 -0.1330  0.2988
26858W        W42932   2.473  13.445   6.419  0.2071  0.1929  0.1508
26859W        W42933   1.168   8.582   1.033  0.0632  0.2037  0.0419
26860W        W42934   9.884   9.204  14.741 -0.0579  0.1409 -0.0439
26861W        W42935  13.996  12.778   4.186  0.1255 -0.0632 -0.0182
26862W        W42936  15.504   4.299   4.385  0.1276 -0.0815 -0.0023
26863W        W42937  15.867  16.443   5.168  0.1511 -0.1259  0.2433
26864W        W42938  10.023   5.553   1.802 -0.0913 -0.1241  0.0776
26865W        W42939  17.784   0.234   5.484  0.2109 -0.1701 -0.1036
26866W        W42940   8.473   8.689  12.406  0.2539  0.2087 -0.0230
26867W        W42941   1.744   3.861  13.583 -0.0187  0.1652 -0.3762
26868W        W42942  17.005  16.629  13.065 -0.2724  0.6075 -0.0296
26869W        W42943   6.134  11.295   2.950  0.1871  0.1415  0.0278
26870W        W42944   4.948  13.515  11.839  0.0115  0.1858  0.0077
26871W        W42945  12.785   6.095  13.522  0.1316  0.1203 -0.0951
26872W        W42946   8.044   7.075   4.236  0.0420  0.0037  0.1543
26873W        W42947   8.151   9.283   5.052 -0.0506  0.0584 -0.0548
26874W        W42948  16.959  13.865  10.376 -0.0806  0.0793  0.0247
26875W        W42949   5.665   6.741   0.408  0.4073 -0.1765 -0.3380
26876W        W42950   6.220  10.390  13.514 -0.0412 -0.0077  0.0860
26877W        W42951  13.263  11.371   3.870  0.0418 -0.0259 -0.1782
26878W        W42952  10.315   4.303   5.639 -0.0928  0.0929  0.0411
26879W        W42953   4.436  15.897  11.919 -0.1953 -0.2267  0.1223
26880W        W42954   2.006   7.318  15.864  0.0947  0.0721 -0.1034
26881W        W42955   1.006  11.535  13.716 -0.1492  0.1119 -0.2901
26882W        W42956   8.270  12.884   3.400  0.3500 -0.3269  0.0939
26883W        W42957   9.074   5.477   0.920 -0.0287  0.2948  0.0058
26884W        W42958   7.418  10.413  13.139  0.2239  0.2574 -0.3287
26885W        W42959   3.933  16.621  13.839  0.1260  0.1539 -0.1486
26886W        W42960   6.962   7.066  15.316  0.3783 -0.0341  0.0429
26887W        W42961  14.468   7.808   5.586 -0.1786  0.1226  0.1060
26888W        W42962   3.457   3.736   4.048 -0.0908 -0.2074 -0.0935
26889W        W42963   3.311   6.359  13.990  0.1508 -0.0270  0.0696
26890W        W42964   9.380   1.308  14.369  0.0361  0.0779  0.0289
26891W        W42965   6.166   5.361  15.969 -0.0130  0.5239 -0.2011
26892W        W42966  13.677   2.561   3.279 -0.0089  0.2883 -0.0821
26893W        W42967   6.483  12.852  13.077  0.0752  0.0749 -0.0180
26894W        W42968   8.570   1.416   3.822  0.0634 -0.1741  0.0348
26895W        W42969   8.477  12.054   4.597 -0.1568  0.2552 -0.3711
26896W        W42970  17.700  14.231   5.265 -0.0507  0.0533  0.3061
26897W        W42971  15.394  16.763   5.266  0.0859 -0.1186 -0.0708
26898W        W42972  10.958   2.784   1.586  0.2905  0.0110 -0.2415
26899W        W42973   2.119  13.325  11.397  0.1264 -0.0531 -0.0001
26900W        W42974  10.769  15.865   3.372  0.0621  0.0111 -0.0316
26901W        W42975   6.404   7.665  12.696  0.1614  0.0301 -0.0322
26902W        W42976   3.071  10.804   4.416  0.2030  0.0020 -0.0307
26903W        W42977  11.123   3.971   5.272 -0.0500 -0.4040  0.0042
26904W        W42978   2.526   2.778  12.581 -0.1794 -0.2137 -0.2604
26905W        W42979   2.246   3.108   0.762 -0.1340  0.0821 -0.1711
26906W        W42980  17.304  15.203  14.905 -0.0031  0.1157  0.0703
26907W        W42981   5.118  12.459   5.358  0.3560 -0.0322 -0.1914
26908W        W42982   8.131  13.584  13.906 -0.2825 -0.2794  0.2113
26909W        W42983  10.104   5.588  12.343 -0.0685  0.2347  0.0332
26910W        W42984  17.319   3.624  13.020 -0.2190  0.0496  0.0904
26911W        W42985   4.703   6.729  15.466  0.2001  0.1888  0.0150
26912W        W42986   0.435   8.903  13.701 -0.0911 -0.1204 -0.0653
26913W        W42987   5.806   3.942  12.465 -0.2300 -0.1101 -0.0327
26914W        W42988  12.926  14.927   5.606  0.1433 -0.0084  0.1029
26915W        W42989   5.158   7.543   3.507  0.1619  0.0920 -0.0031
26916W        W42990   3.780   4.081   0.729  0.0665  0.1740 -0.3514
26917W        W42991   6.346   1.842  13.944  0.1194 -0.3144 -0.2919
26918W        W42992  16.269   2.825   3.216 -0.1673  0.0214  0.2511
26919W        W42993  12.353   6.879  13.447  0.0099  0.0982  0.1166
26920W        W42994   1.184   1.143   3.905 -0.3566 -0.0446  0.1795
26921W        W42995   5.219  17.903  11.976  0.1310  0.4092  0.0041
26922W        W42996   4.173   6.136   1.924  0.0172 -0.0162 -0.0246
26923W        W42997   9.094  13.550  13.557  0.1124 -0.1205  0.4504
26924W        W42998   9.033  15.992  15.282 -0.0698  0.0025  0.1568
26925W        W42999  14.331   9.745   0.792 -0.2579 -0.2810  0.1897
26926W        W43000  11.873  11.071  12.746  0.0584 -0.0648 -0.0575
26927W        W43001   9.756   5.286  13.273 -0.1942 -0.2730  0.0647
26928W        W43002  12.821  14.706   2.332  0.1297 -0.0410  0.2585
26929W        W43003  11.069   2.539  13.607 -0.1190  0.2793 -0.1420
26930W        W43004  12.208  17.823   1.285  0.1822  0.1471 -0.4071
26931W        W43005  16.615   7.313   4.098  0.1218 -0.0214  0.1042
26932W        W43006   0.860  17.117   4.255 -0.0767 -0.0970  0.0934
26933W        W43007  15.334   2.788  12.534 -0.0529 -0.1738 -0.0384
26934W        W43008  17.849  12.559  16.214  0.1361  0.0276 -0.0320
26935W        W43009  14.015   3.609  14.583  0.0933 -0.0813  0.0384
26936W        W43010   2.696  16.416  13.289 -0.0699  0.1531  0.1532
26937W        W43011  18.173   2.290  12.646 -0.1505 -0.0488 -0.0261
26938W        W43012  10.337   4.607  12.363  0.0990  0.2608  0.2078
26939W        W43013   0.375   1.879   3.073  0.3251  0.3025 -0.2774
26940W        W43014  16.400  13.996   1.707  0.1522  0.0327 -0.2828
26941W        W43015   7.903   1.095  15.129 -0.0067 -0.0097  0.0635
26942W        W43016  13.894  16.325   1.149 -0.1925 -0.3630  0.1432
26943W        W43017  11.163  13.443  15.926 -0.2243 -0.1042 -0.1788
26944W        W43018  17.653   3.128   4.034 -0.0216 -0.2132  0.0391
26945W        W43019  12.357   2.664  15.410 -0.0916 -0.0905 -0.1062
26946W        W43020   0.805  17.801   4.745 -0.0061  0.2612  0.1778
26947W        W43021   9.187  17.196  12.250  0.2562  0.0309 -0.0096
26948W        W43022   1.091   2.634  12.969 -0.0393 -0.0446  0.1024
26949W        W43023   0.971   1.616  13.892  0.0432 -0.0280 -0.0635
26950W        W43024  16.283   1.310  15.971  0.0200  0.1066 -0.0040
26951W        W43025  13.929   7.370   3.106 -0.0488  0.0872  0.5332
26952W        W43026  12.231   5.137  11.859 -0.0157  0.3486  0.2362
26953W        W43027  11.407  11.738   5.359 -0.0581  0.1282  0.0603
26954W        W43028  12.107   4.165  16.397 -0.4037  0.0336  0.3993
26955W        W43029   7.456   8.429  11.696  0.0476 -0.4566  0.1095
26956W        W43030  12.496   3.889   3.502  0.0746 -0.1373 -0.0495
26957W        W43031   7.616   5.338   1.196 -0.1654  0.1424 -0.0162
26958W        W43032  11.282   8.551   3.796  0.1327 -0.0450  0.0846
26959W        W43033   0.716   5.142  13.546  0.0075 -0.0717  0.0626
26960W        W43034  17.600  18.098  12.659  0.0265 -0.0622 -0.2965
26961W        W43035   7.323   9.086  11.239 -0.2294 -0.0803  0.0325
26962W        W43036   2.607   2.679   0.627  0.0065  0.1846  0.1162
26963W        W43037  11.177   9.870  12.532 -0.0204 -0.1870 -0.2068
26964W        W43038  14.717   7.492  14.712 -0.1144 -0.1195 -0.0092
26965W        W43039   2.477  13.757   1.992 -0.0071 -0.2018  0.2083
26966W        W43040   3.463   1.734   4.258  0.0439 -0.1404 -0.2117
26967W        W43041   6.098  10.126   0.993 -0.1022  0.2141 -0.0061
26968W        W43042   1.714   0.389   2.962  0.2396  0.2528  0.1184
26969W        W43043   5.505  16.989   1.730 -0.0322 -0.0668  0.1678
26970W        W43044   5.449   4.283  14.218  0.2544 -0.2987  0.3132
26971W        W43045   2.746  11.976  10.599 -0.3680 -0.0770  0.2281
26972W        W43046   5.718   7.126   3.530  0.1590 -0.2530  0.1700
26973W        W43047  14.252   4.887   4.025 -0.1028  0.1786  0.2863
26974W        W43048  15.220   3.199   0.400 -0.0862 -0.0093 -0.0194
26975W        W43049  10.395  12.238   4.470  0.2672  0.1922  0.1479
26976W        W43050   5.952   7.077  13.033 -0.0721  0.1446 -0.0903
26977W        W43051   9.907   4.207  14.386 -0.0042  0.1082 -0.0515
26978W        W43052   5.183  13.420   0.397  0.0907  0.0914  0.0064
26979W        W43053   8.833  11.864  14.192 -0.2498 -0.1555  0.1568
26980W        W43054  14.154   5.449   0.657 -0.7510 -0.4708  0.0702
26981W        W43055   2.305  11.016   2.183  0.3942  0.2171  0.1428
26982W        W43056   4.606  16.659   2.794 -0.1650 -0.1115  0.0623
26983W        W43057   4.509  12.536  15.798  0.0271  0.0471  0.1584
26984W        W43058   2.778  13.195   3.338 -0.2087  0.0202  0.3329
26985W        W43059   4.175  16.355  13.467 -0.0872  0.0022  0.0490
26986W        W43060   3.266   9.576   3.535 -0.1103  0.0982  0.0763
26987W        W43061  14.488  12.175   1.920 -0.1016 -0.1398  0.1007
26988W        W43062   2.291   3.907  12.883  0.0839 -0.0486  0.3032
26989W        W43063  15.878  15.887  11.377  0.3326 -0.2225 -0.1856
26990W        W43064  13.997  10.808  15.509  0.3727  0.1481  0.1120
26991W        W43065   3.479  17.484   2.688  0.3216 -0.0837 -0.1519
26992W        W43066  12.629  16.181  15.905  0.3750  0.2345 -0.1525
26993W        W43067   9.476  16.150   2.889  0.2805  0.0051  0.0533
26994W        W43068   4.381  12.413  14.733  0.0997 -0.0310 -0.0145
26995W        W43069  11.231  18.009   1.522 -0.0568 -0.1087 -0.2960
26996W        W43070  17.192   4.194  11.595 -0.3143  0.0666 -0.2713
26997W        W43071  13.347   7.103  12.020  0.0423 -0.0367 -0.1163
26998W        W43072   7.026   3.282   0.488  0.0805 -0.1049 -0.0390
26999W        W43073  11.232   7.654  14.207 -0.0212 -0.1357  0.0794
27000W        W43074   9.838   0.266  12.556 -0.2743 -0.1371  0.1348
27001W        W43075  17.968   7.066   3.269 -0.1933 -0.0594  0.0823
27002W        W43076  16.878  14.912   5.184 -0.0065 -0.0566 -0.1188
27003W        W43077  17.720   9.304  15.330  0.0710  0.3599  0.2378
27004W        W43078   0.304   5.308  12.683  0.1401 -0.2383  0.0381
27005W        W43079   5.295  12.962  14.057  0.0474  0.0857  0.1070
27006W        W43080   4.134   8.788   4.782 -0.0892 -0.1078  0.0912
27007W        W43081  13.950   6.435  13.529  0.2067 -0.0017 -0.3387
27008W        W43082   4.225  15.740   5.778  0.0609 -0.0634  0.1065
27009W        W43083  11.295   2.663  12.157  0.0322  0.2262  0.1060
27010W        W43084   1.977  15.541  12.900  0.0299 -0.2003  0.2761
27011W        W43085  15.511  16.521  13.947 -0.1778  0.1519  0.0417
27012W        W43086   0.514  13.663   1.401  0.2260 -0.2199  0.1923
27013W        W43087   3.064  13.995  12.802  0.0378 -0.1659 -0.0958
27014W        W43088  13.053   1.012  12.248  0.0359  0.1236  0.0510
27015W        W43089   9.371  15.638   3.014 -0.0205  0.0664 -0.0675
27016W        W43090  15.351   8.814  11.744  0.2287  0.0313  0.2772
27017W        W43091   0.545  14.051  15.340 -0.0232  0.1605 -0.0718
27018W        W43092  12.928  15.187  12.361 -0.0776  0.3203 -0.0771
27019W        W43093  18.002   0.845   4.351  0.2262 -0.0615 -0.2067
27020W        W43094   2.854   7.834  11.354  0.0069 -0.3642 -0.1619
27021W        W43095   8.382   9.574  13.637  0.1303  0.0924 -0.0074
27022W        W43096  16.336   7.987   0.431 -0.0272 -0.2265  0.1431
27023W        W43097   9.495   6.275  12.535  0.2341  0.0612  0.1436
27024W        W43098   7.226  13.249  16.467  0.0638  0.1351  0.3069
27025W        W43099  16.150   9.219   3.982 -0.2849 -0.1675  0.0588
27026W        W43100   9.133  16.315  15.613 -0.3042  0.2070  0.2664
27027W        W43101   9.739   6.938  13.620  0.2920  0.2089 -0.2140
27028W        W43102  14.968   4.966  13.907 -0.2358  0.1629  0.3091
27029W        W43103  12.946  11.642   3.540 -0.1773 -0.0125 -0.2968
27030W        W43104   1.716  17.800  11.431 -0.2238 -0.0128  0.1551
27031W        W43105   7.019  12.823  15.208 -0.3461 -0.0917  0.2191
27032W        W43106   5.627  17.458  16.443  0.1304 -0.1371  0.0054
27033W        W43107   0.824  18.066  12.859 -0.0948 -0.2388  0.0685
27034W        W43108   4.334   2.326  11.513  0.3043 -0.3052  0.0144
27035W        W43109  17.668  14.450  13.922  0.0451 -0.0613  0.1289
27036W        W43110   5.706  13.041  12.555  0.2209 -0.2976  0.2875
27037W        W43111   9.608   7.903  14.108  0.1305 -0.0298 -0.2173
27038W        W43112  17.397   1.835   1.401 -0.1626 -0.0682 -0.0516
27039W        W43113   4.076   6.809   3.678  0.1016 -0.1986  0.1039
27040W        W43114   3.918   1.376  15.167 -0.0688 -0.1296 -0.0931
27041W        W43115   3.296   7.622  11.646  0.0294  0.1187  0.2762
27042W        W43116  15.524  15.206   3.574  0.0537  0.1072 -0.1918
27043W        W43117  14.233  13.573  14.268 -0.1137 -0.2612  0.0599
27044W        W43118   5.547   8.557  14.607 -0.1823 -0.2210  0.0762
27045W        W43119  14.066   8.066  15.770  0.1022  0.2321  0.2595
27046W        W43120   1.626   5.543   1.266 -0.3574 -0.1570 -0.6156
27047W        W43121   8.744  17.777   2.704  0.1667  0.1070  0.3475
27048W        W43122  10.727   6.059   3.792  0.0161  0.1853 -0.1420
27049W        W43123  14.328   0.652   2.203 -0.1872 -0.0169  0.0669
27050W        W43124  18.149   9.936  16.372  0.2450  0.0495  0.1094
27051W        W43125   1.839  10.708   1.263 -0.1400 -0.1922  0.0836
27052W        W43126   6.002  15.919   4.361  0.1615 -0.0866  0.1671
27053W        W43127   4.314   0.343  16.007  0.0736 -0.1567  0.2404
27054W        W43128   9.388   1.141  13.833  0.0687 -0.1763  0.1547
27055W        W43129  11.963   7.404  15.842  0.3224 -0.0062  0.0578
27056W        W43130   7.092   9.892  11.570 -0.0507  0.3078  0.0705
27057W        W43131   5.444  14.111   3.117 -0.1557  0.1115 -0.0796
27058W        W43132  16.348  14.775  12.621  0.0554 -0.1869 -0.0383
27059W        W43133   5.459  12.095   2.802  0.0689  0.0286  0.1615
27060W        W43134   6.301   8.410   4.565  0.0782 -0.1764  0.5206
27061W        W43135   2.952   0.410   0.501  0.1906  0.1444  0.0978
27062W        W43136   4.036  14.289  15.901 -0.3131 -0.0766 -0.1330
27063W        W43137  15.967  14.289   2.860 -0.0757 -0.4299  0.2222
27064W        W43138  13.743   2.200  13.184  0.0044  0.1289 -0.1177
27065W        W43139   7.239  10.359  14.679 -0.0569 -0.2940  0.3096
27066W        W43140  16.707  17.746  11.860 -0.1366 -0.3503  0.0072
27067W        W43141   9.275  11.884  13.593  0.1048 -0.3077  0.1717
27068W        W43142   5.779   0.306  11.926  0.2110  0.0398 -0.2322
27069W        W43143  16.573  16.233   2.882  0.0432  0.1170  0.0687
27070W        W43144   7.955   3.973  11.581 -0.1204  0.3166  0.2430
27071W        W43145  14.019   1.910  15.459 -0.0148 -0.1224 -0.0985
27072W        W43146   3.178   8.436  14.627  0.3142 -0.0255 -0.0491
27073W        W43147  14.930  15.563   1.287 -0.2413 -0.2208 -0.0279
27074W        W43148   0.279   9.992  15.347  0.0973  0.0850  0.1948
27075W        W43149   6.378  12.866  15.465 -0.3217 -0.2224  0.0055
27076W        W43150   3.655   0.252  15.541  0.3034  0.3971  0.0471
27077W        W43151  17.788   1.621   1.764  0.1087  0.0271  0.0867
27078W        W43152  12.946   8.269   3.732  0.2270  0.1089 -0.2436
27079W        W43153  12.314   5.660   0.204 -0.2391  0.1030 -0.1415
27080W        W43154  10.995  13.371   1.844 -0.2989  0.0502 -0.0969
27081W        W43155   1.940   8.614  13.416 -0.0089 -0.1056  0.1031
27082W        W43156   0.770   8.022   3.154 -0.0924  0.0846 -0.1552
27083W        W43157  12.509   7.331   3.378  0.0657  0.1112 -0.2893
27084W        W43158   2.876   3.374   2.919 -0.1749  0.3877  0.1766
27085W        W43159   4.708   3.984   1.349  0.0037 -0.2306  0.0446
27086W        W43160  12.405  11.049  12.539  0.5009  0.1982  0.2641
27087W        W43161   9.124   9.330   3.755  0.1568  0.2023 -0.0987
27088W        W43162   2.647  17.430   3.244  0.2176 -0.0495  0.0858
27089W        W43163   8.300  16.849  16.303  0.2007  0.2892 -0.0920
27090W        W43164   9.625  15.010   1.411  0.1760  0.1952  0.0939
27091W        W43165  14.557  11.019   2.537 -0.2538 -0.1221 -0.1725
27092W        W43166  15.849   3.116   3.211 -0.2660 -0.1087 -0.0515
27093W        W43167   1.961   8.319  11.430  0.1614 -0.1064  0.1223
27094W        W43168   1.277  18.008  15.014 -0.0686  0.4424  0.0474
27095W        W43169   3.945  15.521   1.592  0.2390 -0.0796  0.1046
27096W        W43170  12.850   0.083   1.193 -0.0519  0.0009  0.1853
27097W        W43171   3.893   1.985  12.639 -0.0562  0.3991  0.0445
27098W        W43172   5.928   3.822  11.914 -0.1417  0.1229 -0.1838
27099W        W43173   9.324  11.269   5.122 -0.3955 -0.1425  0.1155
27100W        W43174   1.301  10.619   1.230  0.1173 -0.0544 -0.3167
27101W        W43175   3.895  14.232   5.528  0.0291  0.2711 -0.0588
27102W        W43176   2.825  16.659  12.371  0.5372 -0.1196 -0.2696
27103W        W43177   7.761  13.524   2.546 -0.3442 -0.1579 -0.0270
27104W        W43178   9.450   2.750  14.271  0.0621  0.0467  0.0890
27105W        W43179  10.847   0.255   0.012 -0.2275  0.2399 -0.1011
27106W        W43180   9.526   7.940  13.279  0.1819 -0.3357  0.0216
27107W        W43181   4.359   0.817   3.432 -0.0860  0.1265 -0.0268
27108W        W43182   5.509   7.980  11.917 -0.2999  0.0233 -0.0314
27109W        W43183   0.176  16.296   5.751 -0.0152 -0.0007  0.1008
27110W        W43184   0.798   6.929   0.882 -0.0281 -0.2104 -0.0195
27111W        W43185  12.181  11.362  12.084 -0.0653  0.1583 -0.1253
27112W        W43186  15.334   5.919   0.405 -0.0094 -0.0742 -0.0584
27113W        W43187   6.248   5.796  13.225  0.3372  0.2169  0.2290
27114W        W43188   7.977   3.447  12.914 -0.1763 -0.0913 -0.1936
27115W        W43189   1.933   1.700  12.782  0.1811  0.1842  0.2998
27116W        W43190   5.686  14.804  14.051  0.0335 -0.0610 -0.2368
27117W        W43191   8.959   5.907   1.085  0.1815 -0.1654  0.1361
27118W        W43192  10.166  15.144  14.917  0.1120  0.3132  0.0639
27119W        W43193   5.796   4.529   2.164 -0.0321  0.1114 -0.2183
27120W        W43194  17.422   8.341  13.776  0.3323 -0.2149  0.3526
27121W        W43195  12.238  10.593  12.726  0.0846 -0.1362  0.0613
27122W        W43196   3.644   1.276   4.938 -0.3141 -0.5668  0.0691
27123W        W43197   9.175   6.873   3.313 -0.0917 -0.0745  0.2090
27124W        W43198   0.105   6.632   4.520 -0.0885 -0.0008 -0.0849
27125W        W43199  12.868  17.837   4.199 -0.5723  0.1259  0.0513
27126W        W43200   4.949  10.342  14.468 -0.0441 -0.2533 -0.0216
27127W        W43201   8.427   7.763  13.544  0.0607 -0.2357  0.0086
27128W        W43202  17.701  16.232   0.953  0.1837 -0.0584  0.2456
27129W        W43203   5.855   6.460  16.229  0.1583 -0.0338  0.1293
27130W        W43204   0.628   4.437   4.789  0.0663 -0.2514  0.1925
27131W        W43205   3.445  11.789  12.210 -0.1694 -0.3502  0.2714
27132W        W43206   9.119  15.450   6.118 -0.2305 -0.1661  0.0258
27133W        W43207   1.904  12.112  12.020 -0.0826  0.0979  0.3939
27134W        W43208   1.828  15.880   3.856 -0.1221  0.2369  0.1378
27135W        W43209   4.597  15.049  15.943  0.1753  0.4006 -0.2783
27136W        W43210  10.872  12.061  13.860  0.0803  0.0851  0.2480
27137W        W43211  14.387  11.146  15.352 -0.1620  0.1189  0.0702
27138W        W43212   6.434   3.761  13.752  0.1211  0.0508 -0.0304
27139W        W43213  17.686   8.375   5.787  0.1138 -0.1568 -0.1110
27140W        W43214   7.631   7.028  13.338  0.4573 -0.1119  0.2130
27141W        W43215   1.951   5.446   2.755 -0.1663  0.0158  0.0789
27142W        W43216   8.348  10.502  12.451 -0.0344  0.0619 -0.2094
27143W        W43217   5.461   0.042  12.237 -0.1368  0.0189  0.0284
27144W        W43218   7.558   8.198   5.298 -0.1035  0.2708 -0.0478
27145W        W43219   3.508  17.548   4.410 -0.1619  0.0315 -0.0064
27146W        W43220   9.056   7.638   4.668  0.0411 -0.1023 -0.1730
27147W        W43221   1.804  15.927  14.655 -0.1002  0.1604  0.1366
27148W        W43222   6.400  16.559  15.628  0.1774 -0.0688 -0.0583
27149W        W43223   4.680  10.862   1.017 -0.3189  0.1139 -0.1270
27150W        W43224  10.455  14.565   0.164 -0.1171  0.0674  0.2423
27151W        W43225   9.813   0.256   4.994 -0.1297 -0.0258  0.0187
27152W        W43226   2.307  14.798  14.998  0.1624 -0.0229  0.0412
27153W        W43227   4.954  15.154   0.783 -0.2860  0.1453 -0.1262
27154W        W43228   5.441  11.228   4.146  0.1316 -0.1040  0.2164
27155W        W43229  12.954   1.426  16.409  0.5275 -0.1003 -0.2732
27156W        W43230  10.794   8.721  11.856 -0.3100 -0.1740 -0.1773
27157W        W43231  16.359   9.642  15.081  0.2575  0.2368  0.0222
27158W        W43232   8.002   5.917   6.039 -0.0029  0.0162  0.0178
27159W        W43233  14.463  16.353  16.302  0.0052  0.0234 -0.0954
27160W        W43234  12.014   2.351   1.398 -0.0279 -0.2321  0.1737
27161W        W43235   9.398  15.994   4.443  0.0857 -0.0002 -0.1667
27162W        W43236  17.750   5.975  11.461 -0.1758 -0.2056  0.1442
27163W        W43237  13.274   2.862  16.091 -0.3192  0.2661 -0.0656
27164W        W43238   7.458   8.002   1.063  0.1364 -0.2183 -0.1215
27165W        W43239  10.178   3.715  15.120  0.2396  0.0357  0.2693
27166W        W43240   9.720   5.199  15.514  0.3107 -0.1331  0.0959
27167W        W43241  10.449  14.116   0.750  0.0235 -0.1513  0.1814
27168W        W43242  12.066  17.407  13.062  0.0762  0.2802 -0.1098
27169W        W43243   0.488  17.208  16.439 -0.1298  0.1059  0.1618
27170W        W43244  16.709   2.033   5.792  0.0241 -0.2233 -0.1008
27171W        W43245   2.618   7.007  14.832  0.0583 -0.1816 -0.1334
27172W        W43246   8.751  16.799  16.495 -0.0077  0.0177  0.0859
27173W        W43247   8.091   7.851  15.177 -0.0751 -0.0569 -0.0480
27174W        W43248   5.929  17.132   0.346 -0.0286  0.1060 -0.2678
27175W        W43249  16.318  15.793   3.581  0.0138  0.2241  0.0458
27176W        W43250   4.614  13.009   3.388 -0.0078  0.0201 -0.1873
27177W        W43251  15.978  11.390   0.965 -0.3203 -0.1167  0.2633
27178W        W43252   1.844  11.900  13.617 -0.1058  0.1168 -0.1570
27179W        W43253   6.789  14.681   0.183 -0.1900 -0.1715 -0.0890
27180W        W43254  14.619  14.473  14.487 -0.0997  0.1620  0.0553
27181W        W43255   2.470   0.947  13.705 -0.0474 -0.0086  0.1796
27182W        W43256   4.302  12.408   2.628 -0.1425 -0.1282  0.1310
27183W        W43257  16.062  10.349  15.765  0.1274 -0.0027  0.2168
27184W        W43258  10.886  11.681  14.301 -0.1618 -0.1300  0.1838
27185W        W43259  10.112  13.265   3.164  0.0862 -0.0407 -0.4649
27186W        W43260   5.801  16.408  16.235  0.3485 -0.1349  0.2386
27187W        W43261  13.489   0.727   3.244  0.1400 -0.2116  0.0280
27188W        W43262  16.087   9.637   4.534  0.2050  0.2267 -0.4557
27189W        W43263   8.770  13.356  15.747 -0.0872 -0.3218 -0.3278
27190W        W43264  12.819  11.072  14.408 -0.0513 -0.2826 -0.0370
27191W        W43265  13.537   8.605   5.402 -0.1413 -0.3831  0.0115
27192W        W43266  17.077  16.604  16.385 -0.1055  0.0375  0.0116
27193W        W43267   6.896  14.161  13.527 -0.1188 -0.1654 -0.3751
27194W        W43268  14.902   9.379  15.236  0.0101 -0.0160  0.1957
27195W        W43269  17.996   8.480  13.197  0.2041 -0.0009 -0.0774
27196W        W43270   0.405   8.773   3.657 -0.1130 -0.3344 -0.3964
27197W        W43271  16.064   1.032   4.391  0.0909  0.0301 -0.0528
27198W        W43272   1.042  15.645  12.895  0.1895  0.3088  0.2214
27199W        W43273   6.849   4.217   2.993  0.0782 -0.0483 -0.1601
27200W        W43274  14.669   1.399   2.725 -0.2537  0.3108 -0.2354
27201W        W43275   1.204   7.611   2.769  0.1753 -0.0842 -0.0338
27202W        W43276   3.185  12.951  13.767  0.2784  0.0184  0.2089
27203W        W43277   9.667  13.755  11.488 -0.4781 -0.1095  0.1238
27204W        W43278   7.470  15.013   0.749  0.1324  0.1245 -0.0794
27205W        W43279  12.893  11.196  11.377 -0.1158 -0.0646 -0.1313
27206W        W43280  15.849   7.451   2.651 -0.2829  0.0003  0.3276
27207W        W43281   8.268   2.702   3.630  0.0113 -0.2605  0.1940
27208W        W43282   1.535   6.490  14.258  0.0917 -0.3171 -0.1306
27209W        W43283  14.889   0.348  13.327 -0.1993 -0.0938 -0.0803
27210W        W43284  10.825   8.136  13.191 -0.2669 -0.2245  0.3558
27211W        W43285   7.806  16.731   3.261 -0.0271  0.1433 -0.0646
27212W        W43286  13.488   2.617   4.003  0.1623  0.1382  0.0591
27213W        W43287   8.665   3.073  12.139 -0.0150  0.3284 -0.0344
27214W        W43288  10.879   4.358  14.273  0.1004  0.0144 -0.2354
27215W        W43289  10.866   6.582  14.421 -0.1111  0.0030 -0.2359
27216W        W43290  11.306  17.892   2.043  0.1060 -0.0012  0.2490
27217W        W43291  17.627   0.059   4.398  0.0839  0.1687 -0.0750
27218W        W43292   0.027  12.788   2.260 -0.2424 -0.2179  0.0794
27219W        W43293   7.556  13.014   0.351 -0.3274 -0.2098  0.0439
27220W        W43294   7.238  10.909  12.430  0.1778  0.2044 -0.2238
27221W        W43295   6.716   7.926   2.058  0.1858  0.2000  0.1820
27222W        W43296   1.112  12.523  16.112 -0.1028 -0.2793 -0.0464
27223W        W43297   3.576   9.738   1.650 -0.0067 -0.0131 -0.1339
27224W        W43298   6.878   5.543   1.723 -0.2364 -0.3259  0.1260
27225W        W43299  13.843   6.866  12.691  0.0784  0.3340 -0.1406
27226W        W43300  11.388  13.779   2.045 -0.0551  0.0911  0.2675
27227W        W43301   5.571  15.995   1.779  0.1351 -0.0144  0.2291
27228W        W43302  16.750   7.342   3.613  0.0570 -0.2008  0.0606
27229W        W43303   1.338  17.967  12.608  0.1139 -0.0124 -0.0982
27230W        W43304  16.124  13.400  12.289  0.3018  0.2947 -0.2256
27231W        W43305  13.531  17.582   5.017 -0.0695 -0.2546 -0.2625
27232W        W43306   5.094   3.772   2.121  0.2355  0.2831  0.2267
27233W        W43307   4.838  12.739  12.957  0.0410  0.1235  0.0202
27234W        W43308  11.764   2.094  14.043 -0.0147  0.0962 -0.5427
27235W        W43309  10.648  13.281  12.203 -0.1851  0.0785  0.0042
27236W        W43310   5.032  17.844   4.076  0.0050  0.1830 -0.1600
27237W        W43311  13.921  11.753  14.871  0.0550 -0.0256 -0.0401
27238W        W43312  15.339   0.674  14.063 -0.3283 -0.1548 -0.1345
27239W        W43313  11.364  10.411  13.308 -0.0046 -0.1043 -0.2150
27240W        W43314  16.432   2.149  14.579  0.2131  0.0604  0.0880
27241W        W43315  14.242   2.634  14.408 -0.0023 -0.1771 -0.1577
27242W        W43316   7.727  13.548   6.268 -0.2186  0.2575 -0.1307
27243W        W43317   4.738  10.111   3.545 -0.1355  0.1127 -0.2251
27244W        W43318  15.490  14.050   2.834  0.0225  0.0100 -0.1920
27245W        W43319   1.477  18.226   2.994 -0.1075  0.1831  0.1313
27246W        W43320   9.537   8.759  12.683 -0.0502  0.0850  0.0881
27247W        W43321  10.498   8.925   0.966  0.1623 -0.0968 -0.3308
27248W        W43322  14.010  16.599  16.271  0.0355 -0.0479  0.2800
27249W        W43323   6.281  14.669   1.194  0.1448 -0.0054 -0.0733
27250W        W43324  11.108  15.887  12.038  0.0984 -0.0112  0.2059
27251W        W43325   0.831  10.944  15.777 -0.1350 -0.0578 -0.0271
27252W        W43326   9.206  12.678   0.754 -0.0322  0.1904 -0.1989
27253W        W43327   5.804  16.622  13.300 -0.1367  0.0342 -0.0709
27254W        W43328   5.744  13.574  13.056  0.1243 -0.0687  0.1589
27255W        W43329  15.733   3.824   4.406 -0.0232 -0.4061  0.0747
27256W        W43330  10.917   3.229  14.000  0.0771 -0.1772 -0.1938
27257W        W43331   5.888   9.054  11.603  0.1496 -0.2219 -0.2297
27258W        W43332  13.327   2.835   3.481 -0.0626 -0.0448 -0.0423
27259W        W43333  10.111   3.582   4.813  0.1224 -0.1546  0.0371
27260W        W43334   8.873   2.131  12.049  0.0027 -0.3085  0.1384
27261W        W43335   0.758  15.968   1.646  0.3266  0.0465  0.3208
27262W        W43336   1.894   5.924  11.117 -0.1054  0.0349  0.0020
27263W        W43337  17.076   9.067  12.327  0.1590 -0.1836  0.1800
27264W        W43338  17.350   1.932   5.214 -0.0414  0.0055 -0.0004
27265W        W43339  13.667  10.372  11.960  0.1651  0.0535  0.1855
27266W        W43340   1.879  16.239  13.574  0.1224  0.0202 -0.1859
27267W        W43341   2.423  17.904   1.456 -0.3553  0.4913  0.1310
27268W        W43342   3.801   1.820   0.039 -0.1614 -0.3510 -0.1230
27269W        W43343   7.288  12.191   4.874 -0.2825 -0.1990  0.1852
27270W        W43344  16.525   4.758  12.129  0.0091  0.2076 -0.2854
27271W        W43345  10.134   9.851   1.837 -0.0230 -0.2095 -0.0755
27272W        W43346   8.911  16.843  13.584  0.0283 -0.2200  0.2033
27273W        W43347  17.727   3.722   2.045  0.1295 -0.2738 -0.1058
27274W        W43348  10.179   2.220   0.442  0.1146 -0.4267 -0.2001
27275W        W43349   0.331   0.816  15.982  0.1711  0.3881 -0.1707
27276W        W43350  15.933   9.537  15.323  0.2276  0.0026  0.0050
27277W        W43351   9.617   7.808   5.477 -0.2197  0.0724  0.2548
27278W        W43352   6.961  16.393  14.488  0.1330  0.2202  0.5045
27279W        W43353   8.234   9.387   0.576  0.0926  0.0594  0.1149
27280W        W43354   0.677  14.539  11.912 -0.1092  0.1400  0.2605
27281W        W43355  14.611   2.626   2.551  0.1773  0.1151 -0.1273
27282W        W43356   9.313  10.979  14.386 -0.2964  0.3097 -0.0745
27283W        W43357  12.196   7.702  10.256  0.2664  0.2810  0.0729
27284W        W43358   3.711   3.237  14.373  0.1236 -0.0321 -0.1692
27285W        W43359   4.100  13.224   2.144 -0.2779  0.1296 -0.0193
27286W        W43360   0.882   4.564   1.440  0.0431 -0.2456 -0.0623
27287W        W43361  11.964  11.591   2.197 -0.0095 -0.0081 -0.1571
27288W        W43362   3.361   7.847  14.273  0.1711  0.1711  0.5137
27289W        W43363   5.109   5.462   3.138  0.1310 -0.2974 -0.2516
27290W        W43364   4.309   9.769  11.973 -0.1429  0.0725 -0.1591
27291W        W43365  14.151  14.637  15.349  0.0154 -0.0884  0.2003
27292W        W43366  13.496   1.240  12.192 -0.0107 -0.2639  0.1007
27293W        W43367   5.111   4.018  16.095 -0.2702 -0.0268  0.2638
27294W        W43368  17.121   7.991  14.008  0.2420 -0.1482 -0.0620
27295W        W43369   8.320   0.082   2.582  0.1981 -0.2465 -0.2874
27296W        W43370   1.198   9.036   2.549  0.2214 -0.1726  0.0024
27297W        W43371  16.542   6.898   1.588 -0.0417 -0.1406 -0.1705
27298W        W43372   3.658   4.189  15.357  0.0159  0.3122 -0.0840
27299W        W43373   2.284  17.004   1.036  0.1132  0.3727 -0.1254
27300W        W43374   1.887   3.740   2.998  0.2487 -0.0823  0.1592
27301W        W43375   3.839   8.457  14.761  0.0278  0.0407 -0.1052
27302W        W43376   4.836  11.358   1.234 -0.3276  0.0001 -0.1987
27303W        W43377   0.261  10.126   0.484  0.0101 -0.1446  0.0732
27304W        W43378  13.691   8.783  13.112  0.1484 -0.0603  0.0819
27305W        W43379  17.605  17.383   4.739 -0.1018 -0.1217  0.2978
27306W        W43380   7.579   3.724   5.068 -0.0459  0.0707 -0.3268
27307W        W43381  11.410   1.882   3.472  0.4138 -0.3143  0.2935
27308W        W43382   9.439  17.074   0.865 -0.2272 -0.0648 -0.1870
27309W        W43383   9.234   8.075   1.314  0.2774  0.1109  0.0701
27310W        W43384   4.525  11.131  14.434  0.0745 -0.0486 -0.0852
27311W        W43385   4.950   6.554   3.171 -0.1706 -0.3011  0.0181
27312W        W43386  14.444  17.283  12.236 -0.4145 -0.1217 -0.0374
27313W        W43387  15.689   3.254  13.389 -0.0281 -0.0511 -0.0582
27314W        W43388   1.144   3.525   5.147 -0.1652  0.2018 -0.2543
27315W        W43389  17.353  14.678  15.630  0.2457 -0.0334 -0.7482
27316W        W43390   2.739   9.866   4.746 -0.2649 -0.0606  0.1293
27317W        W43391   2.409   8.921   2.803  0.1895 -0.0629 -0.4084
27318W        W43392  16.017   5.539   0.236  0.0967 -0.1577 -0.2306
27319W        W43393   3.021   0.509  11.780  0.0564  0.2296  0.1584
27320W        W43394   2.165   4.632  11.533  0.1313  0.1218  0.0435
27321W        W43395   5.421  11.855  13.362  0.1069 -0.0635  0.2249
27322W        W43396   7.541  17.878  15.718 -0.2647 -0.1486 -0.2165
27323W        W43397   6.201   1.466   3.527 -0.1245 -0.1466 -0.0573
27324W        W43398   7.362   2.529  12.091 -0.0050  0.0344  0.0930
27325W        W43399   7.501   8.345  15.428 -0.3540  0.1204  0.0671
27326W        W43400   2.786  11.485  13.113 -0.1817  0.0880  0.3160
27327W        W43401   9.211  14.180   2.400  0.2868 -0.1758 -0.0406
27328W        W43402  14.868  11.546  15.158 -0.1409  0.1110  0.2836
27329W        W43403  17.019  16.506   0.400 -0.0052  0.2807 -0.1213
27330W        W43404  14.747   1.361  15.626  0.2803  0.1899  0.0769
27331W        W43405  17.742  15.133  14.366  0.0595  0.2500  0.2553
27332W        W43406   3.544   0.043  14.027 -0.0547  0.1006  0.1985
27333W        W43407   5.059  12.098  11.477  0.2525 -0.0317 -0.0264
27334W        W43408   4.026   1.727   5.666  0.3016  0.0099  0.2234
27335W        W43409  18.068  13.516   1.447  0.0921  0.5385  0.0092
27336W        W43410   3.388   7.212  16.090 -0.0279 -0.1339  0.0406
27337W        W43411   4.428  12.732   2.146  0.0771 -0.1490 -0.1017
27338W        W43412   3.902  10.030   4.609 -0.0661 -0.1590 -0.1834
27339W        W43413   4.989  11.448  10.893  0.0581 -0.2377 -0.1023
27340W        W43414   7.433   6.454   2.387  0.1011 -0.1360  0.1092
27341W        W43415  11.433   4.512   6.496  0.3451 -0.2398 -0.1515
27342W        W43416   6.297   8.964   2.522  0.1816  0.1466  0.1321
27343W        W43417   6.797   9.549   4.753 -0.2448 -0.0491 -0.0515
27344W        W43418   9.535   3.677   5.475  0.0628  0.5644  0.2635
27345W        W43419   0.068   7.963  11.686 -0.0556 -0.1320  0.1090
27346W        W43420   3.143  10.402  16.187 -0.2496 -0.2265  0.1992
27347W        W43421   2.639  12.427  13.226 -0.1710  0.0082  0.2263
27348W        W43422   0.836  16.067  15.558  0.1012 -0.2552  0.1272
27349W        W43423   8.604   0.269  12.059 -0.0965  0.1387 -0.0930
27350W        W43424  16.891   9.602   1.970  0.1772 -0.1447 -0.3885
27351W        W43425   7.081   2.932   1.525 -0.0731 -0.2962  0.2874
27352W        W43426  16.827   3.171   2.696  0.1685 -0.0045 -0.1951
27353W        W43427   0.285   7.587   2.398 -0.1573  0.0515  0.0862
27354W        W43428   0.728   0.091   1.416 -0.2599 -0.0602 -0.0272
27355W        W43429  15.498  13.071  12.805 -0.1003  0.1086 -0.2702
27356W        W43430   1.683  17.793  12.990 -0.0299  0.1831  0.2803
27357W        W43431   1.168   2.917   2.718 -0.0078  0.2839 -0.1127
27358W        W43432   3.935   8.043  15.037  0.0197  0.0392  0.0635
27359W        W43433  10.854  13.231  15.528 -0.2341  0.2805 -0.0887
27360W        W43434   6.956  14.861   2.288 -0.2816 -0.2384  0.0508
27361W        W43435  13.791  12.674  14.563 -0.2226 -0.1202 -0.2550
27362W        W43436  16.947  16.689  11.392 -0.2276  0.0031  0.0766
27363W        W43437   1.171   1.894   1.310  0.0737 -0.0066  0.0144
27364W        W43438   3.985  13.314  16.099 -0.0388 -0.1069 -0.3431
27365W        W43439  16.672   7.695   2.151 -0.2609 -0.0041  0.2325
27366W        W43440  10.759   5.876   0.791 -0.3825  0.1000 -0.0550
27367W        W43441   4.282  11.697  11.578 -0.4050 -0.1750  0.2404
27368W        W43442  17.101   2.649  14.387  0.2495 -0.1208  0.0056
27369W        W43443   4.879   9.106  15.362 -0.2151  0.0116  0.1449
27370W        W43444   2.535   4.943   3.199  0.1947 -0.0036  0.1409
27371W        W43445  17.593  13.380  13.707 -0.1403 -0.0682 -0.0137
27372W        W43446   1.323  14.342   2.461 -0.0205  0.0659 -0.2417
27373W        W43447   0.916   5.502   6.041 -0.1019  0.1198  0.0988
27374W        W43448  17.249   0.922  13.672 -0.1527 -0.1378  0.0507
27375W        W43449  11.986  10.758   4.974  0.2708 -0.0882  0.4108
27376W        W43450   4.873   1.115  15.904 -0.1298  0.0834  0.0173
27377W        W43451   6.753   8.439  14.824  0.2480  0.4604 -0.0487
27378W        W43452   6.102  11.427   5.334  0.2997 -0.0005 -0.1579
27379W        W43453  12.201  13.010  10.917  0.1144  0.0707  0.1585
27380W        W43454  16.341  12.091   4.698 -0.2216 -0.0183  0.1710
27381W        W43455   2.626  10.205  16.010  0.4049 -0.5780  0.2104
27382W        W43456   4.107  15.348   4.653  0.0963  0.0225 -0.0663
27383W        W43457  11.600   4.348  15.623  0.0209  0.5545 -0.0689
27384W        W43458  11.237  14.898   2.810  0.0647 -0.1270 -0.0854
27385W        W43459  13.495  12.483  13.226 -0.0381  0.0105  0.1342
27386W        W43460   6.743  10.554   0.826 -0.2099 -0.1669 -0.0958
27387W        W43461  12.870  10.714  11.645  0.1630  0.0137 -0.1645
27388W        W43462  11.179  10.337   4.389 -0.1384  0.0625 -0.0686
27389W        W43463   8.927   0.990   3.754 -0.2671 -0.2051  0.1742
27390W        W43464   1.258  16.700  16.001  0.5607  0.0553 -0.0182
27391W        W43465   6.879   4.032  15.389 -0.1249 -0.0037  0.1483
27392W        W43466   9.748  13.110   1.246  0.0017  0.1704  0.0857
27393W        W43467   5.615   3.405  14.471  0.1474 -0.0041 -0.1585
27394W        W43468  15.151   3.878  16.147 -0.1368 -0.3988 -0.0536
27395W        W43469  17.958  10.999   4.626 -0.2723 -0.1563  0.1661
27396W        W43470  14.967  13.061   2.052 -0.1260  0.4066  0.0567
27397W        W43471  14.314   9.500  11.049 -0.0604  0.0327  0.0090
27398W        W43472  16.867   5.804  14.260 -0.0070 -0.0355  0.1366
27399W        W43473  15.963   3.007  15.414 -0.1698  0.1495 -0.2428
27400W        W43474  14.704   4.838   2.623 -0.0906  0.0247 -0.0634
27401W        W43475  14.461   2.178  14.518  0.1652 -0.3300 -0.5928
27402W        W43476  14.446  16.719  15.918 -0.1038  0.1150 -0.0098
27403W        W43477  13.581  13.290  12.846  0.1101  0.0855  0.2013
27404W        W43478   2.373   0.180  14.681 -0.3314 -0.0930 -0.1633
27405W        W43479  13.401   1.280   4.176 -0.3510  0.4172 -0.3223
27406W        W43480   9.001  15.417   0.927  0.2369 -0.3760 -0.0495
27407W        W43481  15.075  12.218  13.872 -0.1387  0.2204  0.0425
27408W        W43482  18.134  12.389   0.515  0.3160  0.1381  0.2190
27409W        W43483   0.253  13.393  16.287 -0.0367  0.0204 -0.0657
27410W        W43484  15.678  15.678  11.837 -0.2679 -0.1099 -0.0542
27411W        W43485  12.520   0.224  15.137 -0.0852 -0.1584 -0.1424
27412W        W43486   4.000   7.676  15.377 -0.1936 -0.0084  0.0770
27413W        W43487  12.616  16.879   0.214 -0.1723  0.0060 -0.0147
27414W        W43488   7.386   9.603  13.076  0.0831  0.0899  0.1546
27415W        W43489  10.194  13.875   3.053  0.0419 -0.2134 -0.1830
27416W        W43490  17.373   5.349   0.919 -0.0746 -0.2504 -0.0779
27417W        W43491   1.569   3.283   5.150 -0.1270 -0.2490  0.0569
27418W        W43492   5.392   9.230   2.840 -0.1471  0.1529  0.0925
27419W        W43493   4.680   4.265   0.863  0.1679  0.2236  0.1566
27420W        W43494   2.315  12.531   3.693 -0.0404 -0.1563  0.0726
27421W        W43495  17.848  13.890  15.929  0.1644 -0.1488  0.0103
27422W        W43496  11.140  16.622   1.370  0.0771 -0.2459  0.1522
27423W        W43497   6.251   6.430  12.617 -0.2774 -0.3761  0.0568
27424W        W43498  18.206   3.464   5.517  0.0701 -0.5137 -0.0552
27425W        W43499   7.281  12.888  14.271 -0.3418  0.1236 -0.1405
27426W        W43500   0.531  18.151  11.972  0.1121  0.4073  0.2105
27427W        W43501  15.318   1.148  14.198 -0.0548  0.2901 -0.0267
27428W        W43502  13.956  13.469   0.659  0.0471 -0.1748  0.0450
27429W        W43503   0.496  17.912  14.794 -0.1691  0.2408 -0.1553
27430W        W43504  11.570   1.872  15.443 -0.1110  0.2456  0.1577
27431W        W43505   5.727  17.934   0.789  0.0629 -0.0467  0.2999
27432W        W43506   8.347   5.096  14.233 -0.0499  0.1660  0.1743
27433W        W43507   2.230  16.354   2.585 -0.0713 -0.2073 -0.1725
27434W        W43508   3.809   1.493   4.540 -0.1729  0.0493 -0.0528
27435W        W43509   9.206   0.900  12.252 -0.0402 -0.2429 -0.2515
27436W        W43510   5.679  12.275   4.577  0.1789  0.2585  0.0797
27437W        W43511  15.358  18.122  13.663  0.1670 -0.4703 -0.2118
27438W        W43512   2.828   4.765  13.108 -0.0943 -0.2491 -0.1476
27439W        W43513  14.712   3.118  16.499  0.1194  0.3342 -0.0394
27440W        W43514   5.422   3.515  11.722 -0.2135 -0.1854  0.0019
27441W        W43515   6.049   2.364  14.137  0.4722 -0.2278  0.1467
27442W        W43516  10.609  11.306   4.657 -0.1074 -0.3046 -0.0346
27443W        W43517   4.140   9.176  14.235 -0.0086 -0.0560  0.0988
27444W        W43518   3.757   8.676   0.354 -0.1793  0.2362 -0.0224
27445W        W43519  10.768   3.843   2.214 -0.1037 -0.2595  0.2473
27446W        W43520  12.345   4.204  13.869  0.0503  0.0035  0.4481
27447W        W43521   2.143   9.353  12.685 -0.0018  0.1876 -0.1737
27448W        W43522  14.347   0.962   0.787  0.0507 -0.1087 -0.1090
27449W        W43523   8.117   8.677   1.956 -0.2290  0.0940  0.1801
27450W        W43524   4.657   8.662   1.792  0.0462 -0.1733  0.0673
27451W        W43525   6.409  13.355   4.536  0.0777 -0.1974  0.4469
27452W        W43526   6.187  17.751   4.348 -0.1451  0.1376  0.1108
27453W        W43527  16.959   5.966  11.645  0.2152 -0.1397 -0.0467
27454W        W43528   3.406  11.462  15.552  0.3348 -0.1256  0.0002
27455W        W43529  17.618  15.195  12.928  0.0453 -0.1011 -0.2860
27456W        W43530   4.419  12.131  15.259  0.0728  0.0711  0.1819
27457W        W43531   0.190   5.248   2.272 -0.0079 -0.0742  0.0590
27458W        W43532  12.093   5.052   5.338 -0.0031  0.0201  0.1857
27459W        W43533   6.065   2.934  16.128  0.1255 -0.0137  0.0707
27460W        W43534  12.367  17.071  14.681  0.1078 -0.0823  0.2503
27461W        W43535  14.242  17.726   2.117  0.0743  0.2160  0.1040
27462W        W43536  18.113   8.796   3.781 -0.0581 -0.4516  0.0367
27463W        W43537   0.032  14.398   4.163 -0.1576 -0.2507 -0.2625
27464W        W43538   4.637   1.765  15.777 -0.0749  0.1577  0.0599
27465W        W43539   2.479   8.088   2.155 -0.2637  0.0763 -0.1145
27466W        W43540  18.215  16.416   2.587 -0.3724  0.1333 -0.4377
27467W        W43541  13.397  17.022  15.399  0.4208 -0.0257  0.0703
27468W        W43542  17.989  10.466   0.440 -0.0521  0.1010 -0.1642
27469W        W43543   5.912   6.468  11.369  0.0647 -0.0118  0.3022
27470W        W43544   1.165   3.256  15.125  0.0710  0.4921  0.4402
27471W        W43545  12.612   5.501   3.123  0.2058  0.2838  0.1342
27472W        W43546   0.104   6.036   2.696  0.1517  0.1273  0.1199
27473W        W43547   9.297  17.762   4.144 -0.0491  0.0806  0.1707
27474W        W43548  12.709   7.969   1.396  0.1246  0.3117 -0.0537
27475W        W43549  16.028   6.339   0.191  0.0012 -0.1166  0.0923
27476W        W43550  16.516   7.125   2.041  0.2185 -0.3062  0.1476
27477W        W43551  16.288  14.125  14.623 -0.0204 -0.2747 -0.0239
27478W        W43552   3.518  13.534  12.699  0.0849  0.0247 -0.0459
27479W        W43553   9.896   1.485  16.223 -0.2355  0.4595 -0.0141
27480W        W43554  10.854  14.513   5.848 -0.1431 -0.2204  0.0629
27481W        W43555   1.719   4.961  16.083 -0.2167  0.4403 -0.0208
27482W        W43556  16.939  10.607   1.384 -0.1634  0.2079 -0.2625
27483W        W43557   9.295   8.528   4.827 -0.4125 -0.0025  0.2912
27484W        W43558   5.950  10.477   3.306  0.0455  0.0966 -0.0754
27485W        W43559   9.104   5.533   3.589 -0.1738  0.0253 -0.0697
27486W        W43560   6.917  17.031  15.030 -0.0182 -0.0653  0.1904
27487W        W43561   4.265   5.782   1.271 -0.1178 -0.0006 -0.0721
27488W        W43562  16.551   2.721   2.759  0.1830 -0.2381 -0.0057
27489W        W43563  12.442   2.441  14.765 -0.2130  0.1455  0.1456
27490W        W43564   2.596   4.505   0.612  0.3224 -0.1065  0.0059
27491W        W43565   1.347  12.835  11.877 -0.0142 -0.2917  0.2148
27492W        W43566  12.402   9.463  14.700  0.0200  0.2916 -0.2279
27493W        W43567   8.509   9.787  12.093 -0.1042 -0.0170 -0.2393
27494W        W43568  16.005  13.124   2.335  0.1705  0.0919  0.2360
27495W        W43569  15.860   1.181   5.207 -0.2725  0.1273  0.0040
27496W        W43570  10.598  11.478   2.865 -0.0566  0.3367  0.1749
27497W        W43571  14.834  14.258   2.158 -0.2547 -0.2191 -0.0047
27498W        W43572   8.576   6.957   0.307  0.2892 -0.2877 -0.0338
27499W        W43573  14.207   2.356  14.023 -0.0460 -0.2301  0.0404
27500W        W43574   5.084  15.452   5.661 -0.2516 -0.3762  0.1260
27501W        W43575   2.361   8.734  10.807 -0.0307  0.0153 -0.3349
27502W        W43576   5.855   8.910   5.401 -0.1236  0.1043 -0.1867
27503W        W43577   9.426   7.026   1.718  0.0275  0.1961  0.0911
27504W        W43578   3.479  15.373   1.294 -0.0413 -0.0041  0.2764
27505W        W43579  12.191   8.057   6.216  0.0712  0.1052 -0.1919
27506W        W43580   8.240   6.529  12.366  0.2323  0.2738  0.1150
27507W        W43581   3.515  16.485   1.517  0.0463 -0.2288 -0.0960
27508W        W43582   9.780   9.807  11.356 -0.0960 -0.3421  0.2324
27509W        W43583   1.768  15.850   5.219  0.2427 -0.2994 -0.1042
27510W        W43584  12.077   0.649   1.273 -0.0632 -0.0017  0.1884
27511W        W43585  13.898  13.244   4.387  0.1466  0.2128  0.1017
27512W        W43586   9.332   5.908   3.178  0.1103  0.1162 -0.4937
27513W        W43587   5.247   9.235   4.033  0.1987 -0.1293  0.1764
27514W        W43588  11.869   3.833   5.346  0.1718  0.0780  0.1868
27515W        W43589  10.134   1.054  12.553  0.1819 -0.2158  0.2193
27516W        W43590  17.440   3.788  14.501 -0.1951 -0.1118 -0.2348
27517W        W43591  16.441  14.339  12.374 -0.0642  0.0848  0.1213
27518W        W43592   4.054   2.713  12.169  0.1831 -0.0903  0.1456
27519W        W43593   0.461   9.984  13.058  0.0594 -0.2385 -0.0600
27520W        W43594  17.793   5.083   4.223  0.2010  0.0289  0.3084
27521W        W43595  10.615   8.472  13.572  0.0184 -0.0427 -0.1855
27522W        W43596  13.420   6.818  12.418 -0.0400 -0.1160 -0.2958
27523W        W43597  17.089   4.179  10.664  0.0191 -0.1227 -0.1382
27524W        W43598   9.836   7.656   0.630 -0.3659  0.3424 -0.0946
27525W        W43599  10.387   7.810  15.013 -0.2414  0.2401 -0.0201
27526W        W43600   7.080   5.162   3.364  0.0711 -0.0964  0.0714
27527W        W43601   4.449  14.681  13.497 -0.0068  0.0554 -0.2331
27528W        W43602   9.619   7.406  13.213 -0.1720 -0.1449  0.0896
27529W        W43603  10.684   8.871  14.040 -0.1258 -0.0793  0.1792
27530W        W43604   5.455   6.814   4.764  0.0392  0.2738  0.0097
27531W        W43605   2.436   5.771   0.439  0.2474 -0.0668 -0.1468
27532W        W43606   6.270  13.686   2.954  0.1632 -0.2145 -0.0474
27533W        W43607   5.802  14.646   1.050 -0.1320  0.2060  0.0661
27534W        W43608   8.415  13.603  11.281 -0.2120 -0.2793  0.2942
27535W        W43609  15.299   1.958  12.807 -0.2345 -0.1319 -0.1298
27536W        W43610   6.153   6.500   3.549 -0.4510 -0.3881  0.4305
27537W        W43611  10.282   4.462   1.215 -0.3645  0.1287 -0.1109
27538W        W43612  16.016   9.916  13.638  0.2154 -0.0538 -0.0988
27539W        W43613  14.863  13.422   4.573  0.0318  0.1939  0.1682
27540W        W43614  15.199   9.059  14.023  0.1083  0.2414 -0.1811
27541W        W43615   0.863   9.320   5.515 -0.0863  0.1306  0.1468
27542W        W43616  15.254  14.701   0.855  0.1026 -0.0239  0.3322
27543W        W43617   3.235   3.156   2.146  0.2160  0.0878 -0.3495
27544W        W43618  14.398   5.028   0.822  0.0727 -0.0282  0.2172
27545W        W43619   6.654  13.522  11.360 -0.0084 -0.0471 -0.0178
27546W        W43620   5.125   8.417   4.472  0.0796 -0.0181  0.1906
27547W        W43621   2.974   1.526   0.254  0.2938 -0.0581  0.3494
27548W        W43622  10.758  18.084   5.362  0.4945  0.0874  0.0738
27549W        W43623  11.216   8.412   2.175  0.3004  0.0296 -0.0318
27550W        W43624  16.745   1.230   3.232 -0.0428 -0.0670 -0.1830
27551W        W43625   3.699   6.857   2.759 -0.0901 -0.0187  0.0780
27552W        W43626   0.416  17.601   4.454  0.0686  0.1604 -0.0038
27553W        W43627  15.969   9.692  11.156  0.1512 -0.0481 -0.3171
27554W        W43628  15.284  11.377  16.410  0.0887 -0.2936 -0.4965
27555W        W43629  18.067   1.552   6.340 -0.3677 -0.0843 -0.0294
27556W        W43630   5.929   2.152   0.652 -0.0836 -0.0706  0.1236
27557W        W43631   9.451   6.254   4.637 -0.0809 -0.2007  0.1098
27558W        W43632   3.027  12.139  11.495 -0.0418 -0.0712  0.1650
27559W        W43633   1.623  11.686  16.341  0.0205  0.1359 -0.2504
27560W        W43634  15.546   8.268  13.017 -0.2124 -0.3570 -0.0000
27561W        W43635  16.963   7.710   3.923  0.1711 -0.0035  0.3008
27562W        W43636   1.240   4.933  12.568  0.0565  0.2350 -0.1744
27563W        W43637  16.423   1.006   3.578 -0.2213  0.0629 -0.0231
27564W        W43638  18.146  15.250  15.749  0.1197 -0.0509  0.0706
27565W        W43639   0.821   0.264  12.654 -0.0600 -0.4233 -0.1550
27566W        W43640  10.946   7.899  16.046  0.0246  0.1741 -0.3519
27567W        W43641  17.736   7.658  15.278  0.0858 -0.0254 -0.0759
27568W        W43642  12.233   6.476   2.882 -0.0803 -0.1232  0.3887
27569W        W43643  11.248   2.749   5.353  0.0271  0.1912  0.3769
27570W        W43644   8.176   9.994  13.980 -0.4208  0.0277  0.3314
27571W        W43645  13.233   3.747   2.986 -0.1148  0.1197 -0.0727
27572W        W43646  11.241   2.941   0.645 -0.1695  0.0200  0.2728
27573W        W43647   1.469  11.908  12.288 -0.0108  0.0511 -0.0949
27574W        W43648   6.777   0.064  13.590 -0.4310  0.2838  0.0430
27575W        W43649   6.592   2.189  10.794 -0.2813  0.1404  0.2087
27576W        W43650   1.079   6.548  10.728  0.2222  0.2405 -0.0650
27577W        W43651   9.961  13.972  12.405 -0.5609  0.3219 -0.0414
27578W        W43652   3.328   9.158   2.534 -0.3464 -0.1023  0.0627
27579W        W43653  14.106   8.688   3.369  0.1314 -0.4535  0.1704
27580W        W43654   1.420  18.099   3.466 -0.2398  0.2198  0.2350
27581W        W43655  13.638   8.260   3.846 -0.2302 -0.0658  0.0380
27582W        W43656   4.711   2.238   2.746 -0.3024  0.3378  0.0182
27583W        W43657   7.834  14.869   2.027  0.2289 -0.0607  0.0757
27584W        W43658  17.477  15.458   1.969 -0.0620 -0.3024 -0.3575
27585W        W43659   0.740   1.990   1.069  0.2112 -0.0568 -0.1024
27586W        W43660  16.456  17.549  14.913 -0.0410  0.0581 -0.0979
27587W        W43661  13.082   0.891   4.937  0.2237 -0.1697  0.2449
27588W        W43662   8.187  12.087   1.980 -0.1960 -0.2370  0.0223
27589W        W43663  15.753  11.824  14.611 -0.0130  0.3072 -0.1594
27590W        W43664  18.107  13.301  13.543  0.1446  0.0475  0.0099
27591W        W43665   2.538   6.099   4.724 -0.3736 -0.0011 -0.0449
27592W        W43666   9.963  15.267   1.164  0.1060 -0.0111 -0.0595
27593W        W43667   2.613   6.277   0.672  0.3561  0.0089 -0.0826
27594W        W43668   3.879  12.515  11.876 -0.1600 -0.1524 -0.1857
27595W        W43669  13.164  18.184   1.538  0.1324  0.0222 -0.4706
27596W        W43670   3.420  17.271  11.741  0.3472 -0.2451 -0.1015
27597W        W43671  11.770  17.393   4.821 -0.1680  0.2947 -0.0004
27598W        W43672   4.948  10.305  15.492 -0.0887 -0.0046  0.1136
27599W        W43673   4.777   8.156  14.064 -0.1610  0.2213 -0.0335
27600W        W43674   6.911  13.369   2.402  0.2653 -0.1472 -0.3182
27601W        W43675   1.544  14.134  12.514 -0.0226 -0.1056  0.0400
27602W        W43676   6.433   9.590   1.265 -0.2186  0.1332  0.3979
27603W        W43677   6.927  12.515   3.097 -0.1409 -0.0636 -0.1356
27604W        W43678  11.376   1.751   2.189 -0.0735 -0.2293 -0.0642
27605W        W43679  16.890  11.191  13.551 -0.0472 -0.0016  0.0532
27606W        W43680   0.185   1.496   0.523 -0.0607 -0.3796  0.3201
27607W        W43681   1.067  17.877   4.268  0.1629 -0.2438  0.2175
27608W        W43682   9.670   7.138   4.206  0.0015 -0.2936  0.1819
27609W        W43683   0.011   0.288  13.055 -0.0686  0.3075 -0.3747
27610W        W43684   5.996  10.251  15.825  0.2298  0.0772  0.2618
27611W        W43685   7.701  11.091   4.455  0.2632 -0.0676 -0.0895
27612W        W43686   2.925   4.203   2.835  0.1533  0.0712 -0.0795
27613W        W43687  15.673  14.902   1.146 -0.0763 -0.1361  0.0469
27614W        W43688   2.620   7.533   1.396  0.1692 -0.1317  0.0726
27615W        W43689   3.778  11.463   3.062 -0.2339 -0.0903  0.2674
27616W        W43690   4.329  12.927   2.608 -0.0159  0.2111 -0.1083
27617W        W43691   0.796   3.406  13.877 -0.0225 -0.1288 -0.0352
27618W        W43692   3.465  15.722  13.093 -0.1301 -0.0623  0.2608
27619W        W43693   5.504  10.611  11.941 -0.4787 -0.1238 -0.0803
27620W        W43694  12.259  16.582  15.724 -0.2883  0.0984 -0.0930
27621W        W43695  15.535   2.673  12.084  0.1089  0.2141  0.0050
27622W        W43696   2.964  11.585  15.277  0.1272 -0.1140 -0.0423
27623W        W43697   6.381   8.070   3.771  0.0360 -0.1800 -0.0078
27624W        W43698   4.944  13.076   2.125 -0.2298  0.2817  0.0202
27625W        W43699  10.618   2.815   1.107 -0.4212  0.1644 -0.1207
27626W        W43700   5.235   1.672  15.309  0.1891  0.0672 -0.1294
27627W        W43701   9.601   9.343   1.332  0.0354 -0.3709  0.0723
27628W        W43702   7.927   7.206  14.242 -0.0404  0.0499 -0.0471
27629W        W43703  16.581   8.223  15.246  0.0263  0.1962 -0.3170
27630W        W43704   5.942  13.003  13.859 -0.2412  0.2303  0.1263
27631W        W43705   7.677   9.669   5.106 -0.0104  0.1795 -0.2344
27632W        W43706   9.227   7.636   5.261  0.1101  0.0227 -0.1867
27633W        W43707   4.963  11.527   5.131  0.1475 -0.1477  0.1999
27634W        W43708   1.888   1.091  16.453  0.1622  0.2126  0.2516
27635W        W43709  14.020  14.188   5.500 -0.2221  0.0535 -0.2132
27636W        W43710   0.668  15.220   0.953 -0.2326  0.0748  0.0261
27637W        W43711   8.672  10.410   2.030  0.2486  0.2459 -0.3060
27638W        W43712   0.772  13.281  16.428  0.2137 -0.0734 -0.2500
27639W        W43713  13.972  12.345   5.233 -0.0934 -0.1312 -0.2561
27640W        W43714   5.660  10.618  14.027  0.0730  0.1434 -0.0586
27641W        W43715   4.510  12.245   4.689 -0.1420  0.3290  0.2756
27642W        W43716  17.600   4.948   2.367  0.3163 -0.1271 -0.0128
27643W        W43717   3.779  15.976   0.714 -0.0204 -0.2264  0.1257
27644W        W43718   3.125   5.586   1.573  0.3139 -0.2782  0.1047
27645W        W43719   2.607   5.973  11.845  0.1232  0.1278  0.1702
27646W        W43720  16.828   6.076   5.633  0.0160 -0.1078  0.0055
27647W        W43721   2.984   4.220   5.776 -0.2211 -0.0302  0.3272
27648W        W43722   0.055   2.884  14.173 -0.1714  0.2471 -0.4096
27649W        W43723   3.584  12.840   3.736  0.0386 -0.0728 -0.6015
27650W        W43724   6.403  12.717  13.660  0.1806  0.0063 -0.1902
27651W        W43725  17.796  10.939   2.376  0.2399  0.1652  0.0666
27652W        W43726   9.285  16.392  13.262  0.0906 -0.0406  0.0092
27653W        W43727   2.555   3.212  11.353 -0.0845 -0.0788 -0.1353
27654W        W43728  11.702   1.304  11.708 -0.0490 -0.0419 -0.0574
27655W        W43729   3.358   0.481   2.277  0.2715  0.3303 -0.1271
27656W        W43730   5.209   1.503  12.030  0.0332  0.2272 -0.0414
27657W        W43731  15.195  13.143   3.820 -0.1537  0.1129  0.0535
27658W        W43732   5.365   4.776  10.983 -0.2710  0.2708  0.2272
27659W        W43733  10.097  15.285   3.023 -0.4433 -0.1978 -0.1307
27660W        W43734   3.538  14.231  15.127 -0.1383 -0.0057 -0.0005
27661W        W43735   2.273  10.485   1.307  0.3327 -0.0354 -0.0053
27662W        W43736   6.358  11.990  14.555 -0.3008 -0.4106  0.0412
27663W        W43737  11.616   4.758   2.177 -0.0426  0.1640 -0.1709
27664W        W43738  15.011   5.567  16.134  0.0767  0.3313 -0.0098
27665W        W43739  16.977  13.074  12.615 -0.0310  0.3303 -0.0274
27666W        W43740   3.611   7.516  15.762  0.0334  0.1118  0.2570
27667W        W43741   9.305  15.428  15.452  0.4532 -0.1195  0.0952
27668W        W43742  17.747  12.748  13.450  0.0578  0.1551 -0.0821
27669W        W43743   3.555   7.293  12.827 -0.1020 -0.1790  0.0511
27670W        W43744  15.385   9.818   3.700 -0.0883 -0.1816  0.0847
27671W        W43745   7.515   6.185   0.082  0.0711 -0.0205 -0.3040
27672W        W43746   9.964  11.627   4.883 -0.2339 -0.1302  0.0553
27673W        W43747  15.653  13.740  12.930  0.1612 -0.3603  0.0312
27674W        W43748   2.727   6.288   3.240  0.2062  0.1123  0.1347
27675W        W43749   1.376  10.095  11.953 -0.0207  0.0324 -0.5424
27676W        W43750   4.350  14.708  13.989 -0.0156  0.0047  0.2108
27677W        W43751   4.542  10.860  16.158  0.1797  0.2335  0.0139
27678W        W43752  11.426  18.221  11.881  0.0462  0.0648  0.2124
27679W        W43753   4.187  11.359   6.011 -0.1007  0.1061 -0.0790
27680W        W43754  12.001   8.151   0.368  0.4143  0.0582 -0.1433
27681W        W43755  12.132   3.563   4.746 -0.2666 -0.0265  0.1377
27682W        W43756   6.423  10.949  14.640 -0.0340  0.1189 -0.3473
27683W        W43757   0.434   5.847   1.635 -0.0930 -0.2976 -0.0945
27684W        W43758  13.001   2.798  13.589  0.1388  0.1251 -0.3361
27685W        W43759  17.783   2.535   1.672 -0.0688  0.2329 -0.2604
27686W        W43760   3.583   3.398   6.105 -0.4453  0.2538 -0.0260
27687W        W43761   7.932  11.244  14.034 -0.0697 -0.3022 -0.0006
27688W        W43762   4.538  18.179   3.656  0.0860 -0.1509 -0.0972
27689W        W43763  11.449   4.538  15.111 -0.0710 -0.4026  0.4354
27690W        W43764  13.264   2.886   0.150  0.1529  0.2380 -0.0552
27691W        W43765   4.377  17.472   2.500 -0.1197  0.2294 -0.0703
27692W        W43766   7.116  17.411   2.201  0.1225 -0.6559 -0.0784
27693W        W43767   1.196  16.224   0.095 -0.3399  0.0568  0.0050
27694W        W43768   2.488  11.620   0.275 -0.1335  0.0531  0.2500
27695W        W43769   2.286  13.756   4.072 -0.1905 -0.0586  0.0120
27696W        W43770   4.379   6.221  12.087  0.0417  0.0307 -0.0779
27697W        W43771  16.648  17.950   5.290 -0.2048 -0.1399 -0.2066
27698W        W43772  11.294  12.319  13.723 -0.1741  0.2466  0.0902
27699W        W43773   6.703   9.311  15.129 -0.1368  0.1408  0.2630
27700W        W43774  16.478   3.584   0.046 -0.3551 -0.0931  0.1268
27701W        W43775   6.490   1.768   6.428  0.4395  0.0630 -0.0891
27702W        W43776  11.593   5.886   5.082 -0.0977  0.1089  0.1751
27703W        W43777   0.673   8.642  16.177  0.3295 -0.0621  0.1471
27704W        W43778  15.262   9.108   3.333  0.2767 -0.0134  0.1887
27705W        W43779   0.409  17.009   4.467  0.2038 -0.0368  0.2019
27706W        W43780   0.422  14.497  15.507  0.0878  0.2540  0.1135
27707W        W43781  11.605  16.770  12.283  0.2141 -0.0052  0.2797
27708W        W43782   2.884  11.675   2.715 -0.1113  0.0164 -0.0472
27709W        W43783  15.321  16.856  14.270 -0.1320  0.4595 -0.2094
27710W        W43784  14.446   6.379  15.593  0.0761 -0.1351  0.3200
27711W        W43785   7.897  16.954   2.675 -0.0700  0.3604  0.1307
27712W        W43786  12.400   5.180  14.420  0.2170  0.1931  0.1416
27713W        W43787   6.049   6.783   2.334  0.2209 -0.0994 -0.1646
27714W        W43788   3.024  17.683   2.854 -0.0643  0.1319  0.3211
27715W        W43789  15.677  13.942   3.634 -0.0543 -0.3912  0.1914
27716W        W43790   8.783   1.697   5.124 -0.1845  0.0147  0.0672
27717W        W43791  14.128  12.124   4.762  0.0731 -0.0719  0.1559
27718W        W43792   1.569   3.012  14.252 -0.6351 -0.4368 -0.2177
27719W        W43793  12.597   4.933   5.463  0.1803  0.0998  0.1398
27720W        W43794  16.949   4.971  13.586  0.3971  0.4672 -0.2715
27721W        W43795  15.151   4.364  14.956 -0.1506  0.4557 -0.0111
27722W        W43796   6.623  10.262  12.792  0.0864 -0.1474 -0.3455
27723W        W43797   2.015   8.824   4.752  0.0373 -0.2021 -0.0028
27724W        W43798   8.005  15.635  12.419  0.2317  0.2012  0.1945
27725W        W43799  15.734  16.269   1.777  0.0672  0.0148 -0.1821
27726W        W43800  11.428   3.970   1.962  0.0344  0.0372  0.3456
27727W        W43801   4.396   0.514  13.688  0.0237  0.1223 -0.0277
27728W        W43802   1.076   4.196  14.312  0.2898  0.2860  0.0546
27729W        W43803   1.531   9.599  16.414 -0.1837  0.2269  0.1193
27730W        W43804  15.009   3.374  15.637 -0.1670  0.1612 -0.0641
27731W        W43805  13.410   0.349   1.881 -0.0708  0.0188 -0.1983
27732W        W43806  11.126   7.656  11.940  0.4055  0.0893 -0.1738
27733W        W43807  13.785   3.347   2.029  0.1400  0.1853  0.1003
27734W        W43808   7.070   0.745   5.528 -0.1475  0.0619  0.1823
27735W        W43809   0.880  18.055  12.293  0.1718 -0.1679  0.1267
27736W        W43810   4.489   5.552  13.355 -0.1053 -0.0001 -0.0731
27737W        W43811  17.323  13.136   2.370  0.0910 -0.1597 -0.0858
27738W        W43812   7.144  17.988  13.215 -0.3985 -0.0751  0.3384
27739W        W43813   5.308  12.649  13.152 -0.4701 -0.2840  0.0012
27740W        W43814   2.647  15.772  11.994 -0.2013  0.4683  0.1559
27741W        W43815   3.585   7.862   4.426  0.2473 -0.1909  0.0823
27742W        W43816  14.519   7.318   2.492 -0.0933  0.5133  0.1111
27743W        W43817   5.124  12.504  14.362  0.2287  0.0227  0.1477
27744W        W43818  12.302   9.874  16.032 -0.2423  0.0348 -0.0080
27745W        W43819  17.223  12.421   5.534  0.1419 -0.1442  0.0858
27746W        W43820   5.681   0.745  14.310  0.1254  0.1107 -0.1629
27747W        W43821   4.820   8.311   0.938  0.4128 -0.3832  0.1529
27748W        W43822  13.128   7.525   4.509  0.0323 -0.0730  0.0850
27749W        W43823   5.848   0.717   6.255 -0.0999  0.2923 -0.0486
27750W        W43824  17.214   1.261   4.716 -0.4181  0.4183  0.0965
27751W        W43825  13.499   8.726  15.491 -0.0314  0.1550 -0.1247
27752W        W43826   7.396   7.110   3.323  0.1727  0.4204 -0.2138
27753W        W43827  12.593   2.639   1.988 -0.0176 -0.1223  0.0750
27754W        W43828   2.149   4.974  12.057 -0.0374  0.1766  0.3708
27755W        W43829  13.565   5.260  15.860 -0.0866  0.0067 -0.1271
27756W        W43830  16.709  12.057  14.344  0.0694  0.3744 -0.0048
27757W        W43831   9.589   2.484   5.532 -0.0124  0.2027 -0.1604
27758W        W43832   8.080  15.879   2.847  0.0662  0.2623 -0.2584
27759W        W43833   4.678   5.318  11.103 -0.1666 -0.0195  0.1276
27760W        W43834   2.985  14.984   4.366 -0.0351  0.0280 -0.1183
27761W        W43835   3.033   3.028   2.611  0.0625 -0.2917 -0.1566
27762W        W43836   4.887  14.959  12.042  0.2349 -0.0817 -0.0159
27763W        W43837  11.815  11.328  13.967 -0.0286 -0.2941  0.2221
27764W        W43838   6.253  13.923   1.728 -0.0662 -0.1042 -0.0478
27765W        W43839   5.929   6.332   4.646  0.0003 -0.2484  0.3376
27766W        W43840  11.597   7.899   4.157  0.0114 -0.1372  0.1682
27767W        W43841   9.699  17.765  15.991 -0.2917 -0.0585 -0.0535
27768W        W43842  13.610   5.572   2.317 -0.0465  0.1010 -0.1415
27769W        W43843   2.132   3.128   3.973 -0.0847 -0.0617 -0.0218
27770W        W43844   6.412   2.290   0.643 -0.0530 -0.1709  0.1798
27771W        W43845   4.974   4.141   1.771 -0.2598  0.2322  0.1482
27772W        W43846  12.540   4.899   0.226 -0.2647 -0.0269  0.0623
27773W        W43847   9.038  17.076  15.187  0.0439 -0.2086 -0.2798
27774W        W43848  13.153  15.833   4.322  0.1867 -0.1521  0.0760
27775W        W43849   6.120   7.902  14.372 -0.1389  0.0448  0.1350
27776W        W43850   3.991  11.981   1.188  0.0850  0.0004  0.0650
27777W        W43851  11.436  17.798   3.677  0.0763  0.0194  0.1228
27778W        W43852   3.124   3.571  12.658 -0.3606  0.1511 -0.1793
27779W        W43853   1.375  16.562   2.926  0.1831  0.1237 -0.0164
27780W        W43854  13.833   5.440   5.949 -0.0122 -0.3335  0.2594
27781W        W43855  10.425  12.054   4.935 -0.1734 -0.2448 -0.0525
27782W        W43856   3.450  15.579   1.996  0.0472  0.2575 -0.1665
27783W        W43857  12.311   1.009   5.532 -0.0923  0.1184 -0.0114
27784W        W43858   8.146  13.202  13.588  0.3460 -0.1219 -0.1707
27785W        W43859   5.324  10.174   2.497 -0.2142  0.0598  0.3081
27786W        W43860   4.085   4.351  11.590  0.0844  0.2735 -0.0095
27787W        W43861   6.378   5.850  15.958 -0.1156 -0.0774  0.0300
27788W        W43862  12.769  14.760   3.321  0.1093 -0.0734  0.1273
27789W        W43863   6.633  14.671  15.689 -0.1525 -0.1580 -0.1768
27790W        W43864   0.756  15.278  11.155 -0.0157 -0.2201 -0.1575
27791W        W43865  15.697  14.701  13.922  0.0940  0.2072 -0.6129
27792W        W43866  18.096  14.886   2.457  0.0800 -0.0238  0.3428
27793W        W43867   5.002  12.411  11.079 -0.0372 -0.0181  0.3730
27794W        W43868  17.302  15.918   3.263  0.2522  0.1640 -0.0929
27795W        W43869   9.015   1.388   2.254 -0.1978  0.2348  0.3955
27796W        W43870  11.371   8.120  14.203 -0.0561 -0.0911 -0.2010
27797W        W43871   1.998  11.194  12.205  0.1922  0.2790 -0.1130
27798W        W43872  12.594   3.583   0.458 -0.2365  0.0978 -0.2215
27799W        W43873   1.230  11.493  15.798 -0.0676  0.4401 -0.3725
27800W        W43874   7.890   1.944   2.671 -0.6273  0.0484  0.0080
27801W        W43875   3.776   5.553  13.487 -0.0976  0.1787  0.1485
27802W        W43876   3.958   4.443   3.250 -0.1198  0.1952 -0.0890
27803W        W43877   6.150  13.471   1.566 -0.0259 -0.1982 -0.1050
27804W        W43878  13.306   5.523  15.165  0.0765 -0.0480 -0.2035
27805W        W43879   7.490   6.936  13.987 -0.2395  0.3564  0.3980
27806W        W43880  16.584   3.999  12.952  0.1511  0.3605  0.2471
27807W        W43881   4.952   9.292   4.517  0.0763  0.1675 -0.0886
27808W        W43882  16.571   0.838   4.429  0.2799  0.2167 -0.0961
27809W        W43883   9.902   4.989  14.725  0.0180 -0.4426 -0.0252
27810W        W43884  12.435  15.092  12.161  0.1163 -0.0754  0.2935
27811W        W43885   3.450   5.279  12.856 -0.1211  0.1255  0.0305
27812W        W43886   4.219   9.806  14.030  0.0692 -0.3320 -0.0457
27813W        W43887   3.910  12.464   0.819 -0.0796 -0.0427 -0.0747
27814W        W43888   9.875   6.392  13.178  0.0879  0.0109 -0.0669
27815W        W43889   0.208   3.779   2.544 -0.2228  0.4161  0.0134
27816W        W43890  10.217  17.820  13.745 -0.2712  0.1445  0.0857
27817W        W43891  14.669  16.826  13.613 -0.0808 -0.2958  0.0887
27818W        W43892   9.416  14.158   3.176 -0.0043 -0.2186 -0.1894
27819W        W43893  13.822   6.974   0.310  0.0238 -0.0639  0.1508
27820W        W43894   8.332  16.248  14.456 -0.0800 -0.1157  0.2100
27821W        W43895   5.246   9.476  15.036  0.4793 -0.0999  0.0639
27822W        W43896  16.304   7.299  14.586  0.2221  0.1312 -0.3722
27823W        W43897  17.450  13.779   3.249  0.0136 -0.0563  0.5200
27824W        W43898  12.519   9.236   0.977 -0.0073 -0.1887  0.1437
27825W        W43899  14.306   0.636  16.090 -0.1908 -0.3623 -0.0006
27826W        W43900   1.311   1.060  12.288 -0.1576  0.1822  0.0074
27827W        W43901   0.868  13.383   4.520  0.2109 -0.2168 -0.2712
27828W        W43902   2.448   9.726  15.097 -0.2180  0.1218  0.1052
27829W        W43903  13.269  17.130   1.468  0.3416 -0.0298  0.0499
27830W        W43904   7.537   2.966  15.036 -0.0307 -0.4483 -0.2813
27831W        W43905   3.815   2.446  16.159  0.0434 -0.0873  0.1778
27832W        W43906  12.321  11.201  14.514 -0.1171 -0.1966 -0.2291
27833W        W43907  13.835  11.273  12.590  0.0770  0.1493 -0.0811
27834W        W43908   5.901  11.298   4.473 -0.3153 -0.0664 -0.1568
27835W        W43909   9.822  12.909   5.667 -0.1615 -0.1171 -0.0208
27836W        W43910  12.275   3.382  14.962  0.3318 -0.0849  0.0132
27837W        W43911   7.458  12.272  11.839  0.0590  0.0867  0.1174
27838W        W43912   7.077  14.201   0.745 -0.2879 -0.1219 -0.1769
27839W        W43913  10.904  10.404  13.398 -0.0688 -0.3750 -0.0352
27840W        W43914   0.037  17.705  15.607 -0.0376  0.0446  0.1721
27841W        W43915  15.545  12.998   2.747  0.1037 -0.1261  0.2537
27842W        W43916  14.875  15.380   5.014  0.0044 -0.1024  0.0803
27843W        W43917  17.959   6.662  16.215 -0.0229  0.4542  0.3705
27844W        W43918  17.264   9.370  15.450 -0.0306  0.0145  0.0093
27845W        W43919   1.764  11.909   1.455 -0.2155  0.1551  0.0229
27846W        W43920  17.961  18.051   2.991  0.2267  0.0871 -0.0789
27847W        W43921   6.136   3.535   3.479  0.2321  0.0522 -0.2431
27848W        W43922   1.969   9.729   2.329 -0.0527 -0.5314 -0.2068
27849W        W43923   7.209   5.308   2.116 -0.1284  0.3116  0.0507
27850W        W43924   9.488  11.768   1.002 -0.1232 -0.1648 -0.5338
27851W        W43925  17.532   0.370  12.412 -0.2097 -0.2160  0.1525
27852W        W43926  18.189   8.892   1.851  0.0963  0.0998  0.0904
27853W        W43927   6.873  12.621  12.777 -0.1272 -0.1224 -0.0850
27854W        W43928  14.837  11.853  13.616  0.2073  0.2979 -0.0101
27855W        W43929   2.165   7.779   0.803 -0.1541  0.2637  0.0518
27856W        W43930  11.509  11.083  13.037 -0.2919 -0.4031  0.0355
27857W        W43931   6.964  14.997  15.402 -0.0452  0.2051 -0.2264
27858W        W43932   8.067   3.281  12.008  0.0085  0.2092 -0.0169
27859W        W43933  11.702   2.193   3.081  0.0092  0.1496  0.0142
27860W        W43934   4.413  11.073  12.917 -0.3059 -0.2242 -0.0288
27861W        W43935   3.932   9.271   4.584 -0.0224 -0.1350  0.1405
27862W        W43936   9.415   9.834   5.036 -0.2310  0.2300  0.1531
27863W        W43937   8.373  14.683   1.034  0.0649  0.0557 -0.3561
27864W        W43938  12.559  16.518   3.403  0.1097 -0.0818 -0.0454
27865W        W43939   7.122   6.326   3.894  0.1781 -0.0258  0.2514
27866W        W43940  12.768  18.114  13.672 -0.2240 -0.0858  0.1053
27867W        W43941   6.605  17.667   2.994  0.3042 -0.1382  0.2564
27868W        W43942  11.350  12.809   1.437 -0.0920  0.2821 -0.2178
27869W        W43943  11.682  14.192  14.823 -0.1791 -0.0838 -0.2685
27870W        W43944  13.312   5.754  14.702  0.1173  0.0930 -0.1502
27871W        W43945   9.529  15.886   2.312 -0.0621  0.1561 -0.2233
27872W        W43946  16.324  13.538  16.126 -0.0551  0.0516 -0.1832
27873W        W43947   3.360   0.069   0.557  0.1695 -0.0805 -0.0819
27874W        W43948  15.844  14.773   3.111 -0.1935 -0.1241 -0.3765
27875W        W43949   4.101  17.520   0.619 -0.0948  0.2008  0.0572
27876W        W43950  10.543   6.529   2.565 -0.2146 -0.2517  0.0303
27877W        W43951   9.654   7.665  10.840  0.1120 -0.1070 -0.0291
27878W        W43952  10.736  12.016   4.134 -0.2134  0.0120 -0.1708
27879W        W43953   5.938  10.368  16.454  0.1569  0.1431 -0.1909
27880W        W43954  16.556   8.427   2.817  0.2980  0.2197 -0.1247
27881W        W43955  17.512  16.146  14.075 -0.0062 -0.1876  0.2856
27882W        W43956  15.788   7.827   2.117  0.1524 -0.3263 -0.0370
27883W        W43957   1.979   1.592   3.156  0.2070  0.0130  0.1727
27884W        W43958   6.604   9.420  15.654  0.0125  0.1211  0.4359
27885W        W43959  15.339   3.606   1.999  0.2856 -0.2033  0.1000
27886W        W43960  12.152   7.474  14.243 -0.0306 -0.0988  0.1148
27887W        W43961   2.519  16.293  12.066 -0.1763  0.0238  0.0761
27888W        W43962  15.312  12.068   0.488  0.0430 -0.0338 -0.2289
27889W        W43963   3.827  10.835  12.115  0.0150  0.0456 -0.0211
27890W        W43964   8.129   8.987   1.580 -0.0785  0.2930 -0.1374
27891W        W43965   1.794  12.188  12.626  0.1594  0.2300 -0.1599
27892W        W43966  14.324   3.187  14.952 -0.4210  0.1170  0.2018
27893W        W43967  15.720  17.369   4.162  0.1725 -0.2434 -0.2438
27894W        W43968  17.450  13.975   4.391  0.2192  0.1709  0.0226
27895W        W43969   6.800  17.958   0.004 -0.0335 -0.1890  0.2606
27896W        W43970   7.602  10.125   4.246  0.2772 -0.2221  0.1851
27897W        W43971   0.086   7.176   1.918  0.3081  0.0121 -0.1591
27898W        W43972   4.829   9.624   3.702 -0.0441  0.1555 -0.0110
27899W        W43973  17.788  12.637   4.938 -0.1661 -0.1305  0.2229
27900W        W43974   2.633  10.314   0.522 -0.2277 -0.0485 -0.3736
27901W        W43975  11.444   4.510  13.622 -0.0215 -0.0698 -0.1669
27902W        W43976   9.789  16.299   3.870 -0.0317 -0.5135  0.1547
27903W        W43977   4.534   1.026   5.722 -0.0670 -0.1715  0.3360
27904W        W43978   4.537  12.203  11.357 -0.2164  0.2703  0.3083
27905W        W43979   9.753   1.818  15.903 -0.0875  0.0321 -0.2048
27906W        W43980  11.229   4.825   3.636  0.1391 -0.1121  0.0969
27907W        W43981   8.967   3.938  14.410 -0.3860 -0.2906  0.0396
27908W        W43982  11.757  13.820  13.046  0.0930  0.2111 -0.2690
27909W        W43983  13.748   2.723  16.041 -0.0046 -0.0667 -0.2056
27910W        W43984   4.099   9.542  11.530  0.3128 -0.2433 -0.0568
27911W        W43985  12.556  17.415  13.078 -0.0239  0.1468  0.0122
27912W        W43986  15.134  12.853   0.173  0.0479 -0.2009  0.3006
27913W        W43987   0.275  13.533   2.844 -0.1790  0.1056  0.0742
27914W        W43988   7.313   9.055  13.274 -0.3464  0.0328 -0.4109
27915W        W43989   8.296  13.382  13.114  0.0288  0.0790 -0.1224
27916W        W43990   4.488   3.077   3.226  0.1354  0.2803  0.2285
27917W        W43991  11.630   5.522   3.144 -0.1043 -0.0006  0.3502
27918W        W43992  16.195   9.956   0.138 -0.0861  0.2116 -0.0353
27919W        W43993   0.127   6.079   1.315 -0.2925 -0.0285 -0.3934
27920W        W43994   8.441   9.925   1.312 -0.0918  0.0196 -0.0877
27921W        W43995   9.385  15.028   4.374  0.0815  0.2658  0.2136
27922W        W43996   9.561  17.931  14.395  0.0785  0.0006  0.2163
27923W        W43997   6.001   0.024   1.015 -0.0143  0.0903 -0.3094
27924W        W43998   5.519  13.340   2.374  0.1978  0.0733 -0.2081
27925W        W43999   9.705  11.632  13.904 -0.0865 -0.2286 -0.2719
27926W        W44000   2.377  13.290  13.062 -0.0644 -0.1376  0.0763
27927W        W44001  16.686   5.037  11.635 -0.0993  0.0044 -0.3637
27928W        W44002  17.113   7.064  14.971  0.0889 -0.1404  0.1861
27929W        W44003   0.120   4.697   2.100  0.4514 -0.0694 -0.3055
27930W        W44004   7.768   9.325   1.285 -0.1369  0.0789  0.5212
27931W        W44005   5.395  17.886  13.895 -0.0041  0.1502  0.0324
27932W        W44006   4.997  10.970   4.309  0.1835 -0.0488  0.3332
27933W        W44007  12.832  14.381  15.565  0.0010 -0.2247 -0.0637
27934W        W44008  12.441  16.179   4.686  0.0103  0.2218  0.3351
27935W        W44009   5.185   3.265  12.697 -0.2787  0.0837 -0.2426
27936W        W44010   9.312   1.831  15.248  0.0953  0.0774 -0.1560
27937W        W44011   3.251   3.636  11.417 -0.2744  0.1226  0.0193
27938W        W44012  12.857   2.531   4.741 -0.0587  0.0555  0.1002
27939W        W44013   4.154  18.197   5.628 -0.0184 -0.1222  0.1269
27940W        W44014   2.575  17.051   1.448 -0.2389  0.2353  0.1643
27941W        W44015   2.287   2.318  14.256 -0.0805  0.1848 -0.2449
27942W        W44016  16.033  16.441  12.318 -0.0685  0.0415 -0.2705
27943W        W44017   5.548  14.605   4.918 -0.0040 -0.2716 -0.1492
27944W        W44018   5.120   2.943   4.978 -0.2116 -0.1660 -0.4765
27945W        W44019   6.485   0.794   2.800 -0.2559  0.0715  0.2652
27946W        W44020   9.103   1.717   3.104 -0.0545  0.5330  0.0117
27947W        W44021   0.048  10.731  12.381  0.3490 -0.0057  0.1425
27948W        W44022   8.827   0.517  14.285 -0.1449  0.4624  0.0740
27949W        W44023  16.607  14.006  15.039 -0.2992 -0.1165 -0.3778
27950W        W44024   8.716   0.152   4.221  0.2800  0.2660  0.1608
27951W        W44025   6.489   9.633   2.074 -0.0179  0.1168  0.0210
27952W        W44026   0.877   5.991   1.921 -0.0564  0.0788 -0.0173
27953W        W44027   6.956  16.866  16.480 -0.0067 -0.3506  0.0777
27954W        W44028   1.549   4.023   4.610  0.2427 -0.0659  0.2937
27955W        W44029   9.379   8.868   1.757  0.2617 -0.1223  0.2967
27956W        W44030  11.537   7.425   0.289  0.1562  0.0221 -0.1406
27957W        W44031  14.143  17.570  11.945  0.2044  0.1333 -0.3501
27958W        W44032   0.315  15.978   0.392  0.0029  0.0475 -0.3337
27959W        W44033  11.217  13.198   1.131  0.2262 -0.2159  0.0821
27960W        W44034   9.756   1.816   1.288 -0.2624  0.1793  0.2806
27961W        W44035  16.449   6.525   4.536  0.0511  0.0648  0.2333
27962W        W44036   9.969   1.182   1.019  0.0534 -0.1747  0.0997
27963W        W44037  16.175  15.082  11.407  0.0076 -0.0847 -0.2269
27964W        W44038   6.001   8.027  12.802  0.1187 -0.2704  0.1554
27965W        W44039  14.463   3.536   5.873  0.1318  0.1838  0.0142
27966W        W44040  12.931   5.809  15.053 -0.1306  0.1235 -0.1206
27967W        W44041  14.027  14.223   2.467  0.1596  0.1688  0.0568
27968W        W44042   2.342  11.164   0.523 -0.0465  0.2036  0.0415
27969W        W44043  11.541   6.186   4.392 -0.0337  0.1795 -0.1169
27970W        W44044  16.321  16.928  15.678 -0.0486 -0.3462 -0.0118
27971W        W44045  17.458   9.034  16.218  0.0489  0.0657  0.1002
27972W        W44046   3.644  13.061  13.393 -0.0294 -0.1803  0.0934
27973W        W44047  12.407  15.123  15.759  0.1671  0.2137 -0.0044
27974W        W44048  16.314  13.701  15.603  0.1753  0.0517  0.0972
27975W        W44049   0.877   2.510  14.439  0.0451 -0.0189 -0.0694
27976W        W44050   0.593   5.514   2.029 -0.2832  0.1650  0.0472
27977W        W44051   7.574  14.355   0.040  0.1137 -0.5686 -0.0820
27978W        W44052  15.643   1.203  14.654 -0.2046  0.0267  0.0129
27979W        W44053  10.320   9.927   0.981  0.1138 -0.1069 -0.2681
27980W        W44054   3.616  16.586  13.468 -0.1827 -0.1221 -0.2056
27981W        W44055   5.563   4.645   1.644 -0.1276  0.0336 -0.1285
27982W        W44056   5.602  16.066   6.136 -0.2416 -0.2348 -0.1776
27983W        W44057   6.236  11.435   1.574  0.1480 -0.1037  0.2101
27984W        W44058   2.871   5.010  14.473  0.3672  0.1510 -0.0733
27985W        W44059   4.856  16.155   1.209 -0.2924 -0.3404  0.1632
27986W        W44060  10.977   0.564   2.980  0.2246  0.1592  0.3673
27987W        W44061   6.856   5.785   1.148 -0.2268 -0.0247 -0.1386
27988W        W44062  10.319   4.829   3.518  0.0370 -0.3102  0.1752
27989W        W44063   8.291   2.535  14.367 -0.0399 -0.0948 -0.1805
27990W        W44064  10.447  12.941  15.435 -0.0756  0.1356 -0.1561
27991W        W44065   2.690   3.731   0.135  0.2911 -0.0328  0.1222
27992W        W44066   8.151  16.130   2.147 -0.1401  0.1643 -0.2550
27993W        W44067   2.501  16.665  15.124 -0.2885 -0.1764  0.0455
27994W        W44068   1.313  14.605  15.426 -0.2824  0.0513 -0.2585
27995W        W44069  12.242   9.258   3.459  0.2824 -0.2870 -0.2130
27996W        W44070   3.155   2.669  13.644  0.1887 -0.3852  0.2281
27997W        W44071  11.670   0.025   0.502 -0.0151 -0.1773 -0.0908
27998W        W44072   1.342   5.867   1.622  0.0864 -0.0760  0.2965
27999W        W44073   9.540  13.680  15.251 -0.1427 -0.1494  0.0184
28000W        W44074   1.522  12.397  12.254 -0.3510  0.0338  0.1584
28001W        W44075   6.868   5.581   2.475  0.0696  0.1287 -0.2835
28002W        W44076   0.825   1.326   4.295 -0.0280 -0.1607  0.0540
28003W        W44077  14.201  14.914   5.401 -0.1950 -0.0682  0.0371
28004W        W44078  10.356  13.299   3.613  0.0058  0.0277 -0.1308
28005W        W44079   4.422   4.712   0.518  0.3042 -0.0042 -0.1463
28006W        W44080  16.382   4.216  11.596 -0.1557  0.1439 -0.0962
28007W        W44081  16.348  17.571  11.403 -0.2927  0.1315 -0.3445
28008W        W44082  16.450   8.955   1.606  0.0734  0.1118  0.2351
28009W        W44083   0.979  13.901   5.165 -0.0570  0.0490 -0.1885
28010W        W44084  10.483   3.600   6.497 -0.1109 -0.3250  0.0300
28011W        W44085  18.141  17.683  10.058  0.0562  0.4034 -0.2776
28012W        W44086   2.121   5.733  15.183  0.0664 -0.0855 -0.0446
28013W        W44087  10.501   6.659  14.788  0.3735 -0.0363  0.0056
28014W        W44088  15.858   0.450   0.669  0.0654 -0.4445  0.2219
28015W        W44089  12.250   4.711   3.004 -0.1493 -0.3001  0.2523
28016W        W44090  14.574  16.865  16.391 -0.0104 -0.3106  0.0361
28017W        W44091   1.855  10.118   3.578  0.1109 -0.0731  0.2533
28018W        W44092  13.405  17.616   0.695  0.1988  0.0336  0.1389
28019W        W44093  10.508   2.252   5.098 -0.2547  0.0597 -0.0175
28020W        W44094  12.323   7.619  15.223 -0.1002  0.1747 -0.0243
28021W        W44095   5.252   0.923   0.354 -0.2688 -0.1236 -0.1245
28022W        W44096  15.037  17.421   2.083  0.0865  0.2520  0.0368
28023W        W44097  14.669  17.660   2.917  0.4234  0.0962  0.1712
28024W        W44098   0.900   2.467   3.749 -0.2420 -0.0555 -0.0742
28025W        W44099   2.318  15.553  11.085 -0.1704 -0.4451  0.2474
28026W        W44100  17.846  14.515   1.105  0.1273 -0.0171  0.0663
28027W        W44101   8.499   8.789   0.639 -0.0520  0.1669 -0.2078
28028W        W44102  15.197  15.965  14.041 -0.2266 -0.1315  0.1035
28029W        W44103   8.452  14.381  12.799 -0.0935 -0.0254  0.1146
28030W        W44104  16.674  13.296  11.454  0.1566 -0.1478  0.0048
28031W        W44105   8.445   4.361   4.211 -0.1159 -0.0738  0.2231
28032W        W44106  15.815  17.023   5.103  0.1229 -0.0659 -0.0251
28033W        W44107  15.710  10.682  15.917 -0.0132  0.1103 -0.0402
28034W        W44108  15.253   3.526  11.805  0.1182 -0.4516  0.0446
28035W        W44109  15.980  13.721  14.613 -0.1522 -0.3049  0.0147
28036W        W44110   3.906   6.545   1.771  0.1463 -0.1176  0.1104
28037W        W44111  10.439  10.084  14.236  0.1099  0.1925 -0.1150
28038W        W44112  10.858  14.251  15.364 -0.0986 -0.1964 -0.1961
28039W        W44113  14.606   3.053  14.551  0.1755 -0.0314  0.0708
28040W        W44114  15.691  17.949   5.455  0.2000  0.5393 -0.3222
28041W        W44115   2.755   2.329   5.225  0.1461  0.0422 -0.2922
28042W        W44116   4.140   2.502  13.788 -0.0788 -0.0840  0.2332
28043W        W44117   5.952   5.923   0.680  0.0123 -0.0871 -0.2489
28044W        W44118   0.051   1.839   1.718 -0.1058 -0.2319 -0.3672
28045W        W44119  12.146  12.291  16.343  0.0224  0.2880 -0.0650
28046W        W44120   7.748  10.791  13.864  0.1417  0.4313  0.3456
28047W        W44121   6.804   8.924   3.659 -0.0848  0.3220  0.0383
28048W        W44122  14.607   4.210  14.940  0.1523 -0.2646  0.1514
28049W        W44123   6.057   1.058  11.880 -0.0619 -0.1841 -0.0850
28050W        W44124  14.309   5.875   0.452  0.1808  0.0564 -0.2384
28051W        W44125   3.693  14.519  11.037 -0.0188  0.1063 -0.0003
28052W        W44126  15.658   5.897  15.649  0.2710 -0.0526 -0.2464
28053W        W44127  11.003   6.739  13.682  0.0986 -0.4140 -0.0192
28054W        W44128  16.483  15.349  13.503 -0.3682 -0.1147  0.0665
28055W        W44129   5.546   7.536   5.508  0.0956 -0.0131 -0.0548
28056W        W44130   8.104  18.222   5.853 -0.1024 -0.0280  0.0717
28057W        W44131   1.495   5.995  14.344 -0.1257  0.3173  0.1318
28058W        W44132   3.344   1.491  16.333 -0.1198  0.0783  0.1969
28059W        W44133   7.478   5.067   0.097 -0.1011 -0.3694 -0.1113
28060W        W44134   6.483  11.311  14.328 -0.2108  0.0726  0.1596
28061W        W44135  11.423  16.246   2.968  0.1115  0.0159 -0.2137
28062W        W44136  10.496   7.793  11.237  0.1103  0.0017  0.3473
28063W        W44137   7.138   8.273   5.049  0.2376  0.2565  0.3171
28064W        W44138   7.518   1.066   4.849 -0.0388 -0.0897  0.0978
28065W        W44139  10.003   8.793   2.693  0.2911 -0.3432 -0.1009
28066W        W44140   9.194   0.476   2.521 -0.0966 -0.3245  0.2075
28067W        W44141   5.307  10.491  14.833 -0.0635 -0.0156  0.0649
28068W        W44142  10.177   2.146   4.721 -0.1277  0.0670 -0.1538
28069W        W44143  13.537   5.103   3.700 -0.2110  0.0812 -0.4449
28070W        W44144   4.592  17.212  14.896  0.2801 -0.0522  0.2942
28071W        W44145   0.514  13.925   1.898  0.0753  0.1939 -0.1409
28072W        W44146   8.290  15.276  15.067 -0.1760 -0.0500 -0.0994
28073W        W44147  15.691   1.801   4.268  0.0090  0.0985  0.2607
28074W        W44148  14.122  16.556   4.979  0.2774  0.3056 -0.0265
28075W        W44149   2.936  17.865  13.383 -0.0617 -0.1319 -0.0219
28076W        W44150  11.055  10.901  12.217  0.0731  0.0381  0.0745
28077W        W44151   3.414  16.977   4.436 -0.0797 -0.0761 -0.0842
28078W        W44152   7.878  15.804   0.331 -0.0439  0.1314 -0.1054
28079W        W44153  13.597   5.659   5.587  0.0219 -0.0605  0.3233
28080W        W44154  15.352  13.429   4.790  0.3547 -0.1126 -0.1981
28081W        W44155   1.640   2.563  13.201  0.1155 -0.0728  0.5901
28082W        W44156  12.119  14.825  12.994 -0.0566  0.2016 -0.1075
28083W        W44157   1.402  11.735  15.354 -0.0727 -0.0547 -0.0178
28084W        W44158  11.350  14.973  14.289 -0.0691 -0.0815  0.0631
28085W        W44159   8.334  13.274  16.493 -0.0718  0.0181 -0.0222
28086W        W44160  11.680   7.755   4.990 -0.4496  0.2478  0.3070
28087W        W44161   3.979   9.295  11.934 -0.1066 -0.4346 -0.0188
28088W        W44162  16.974   6.318   4.115  0.0666 -0.0782  0.0714
28089W        W44163  13.063  15.953  13.681  0.2715  0.2203  0.0635
28090W        W44164   6.256  16.403   5.448  0.0558  0.0009  0.2101
28091W        W44165   9.687   7.376   0.972 -0.3192 -0.1061  0.1010
28092W        W44166  17.229   8.336  15.927  0.0563 -0.3764 -0.2354
28093W        W44167  14.144  12.985  14.373 -0.0146 -0.0331 -0.2220
28094W        W44168   3.615   6.178   4.701  0.3423 -0.0678  0.0392
28095W        W44169   7.963   2.857   5.821  0.3165  0.1074 -0.1135
28096W        W44170  11.722   8.677   3.510  0.2344 -0.1020 -0.2445
28097W        W44171   2.505   7.915  12.299 -0.0305  0.2078 -0.1051
28098W        W44172   0.742   5.028   1.495  0.1362 -0.1291  0.0463
28099W        W44173   4.197  10.623  12.578 -0.0865  0.3165 -0.0736
28100W        W44174  11.158   5.471  15.180  0.2287  0.0078  0.4090
28101W        W44175  12.126  12.202   0.900  0.0004 -0.1613  0.1971
28102W        W44176   0.909   3.319   0.246 -0.0888 -0.1098  0.1371
28103W        W44177  16.465   3.213   1.750 -0.1830 -0.0431 -0.4524
28104W        W44178   5.487  10.680   1.553 -0.2484 -0.1027 -0.2999
28105W        W44179  10.117  11.356   4.491 -0.1432 -0.1310 -0.1273
28106W        W44180   0.145   9.595  16.237  0.0916 -0.0009  0.2996
28107W        W44181   3.954   0.076  14.333  0.1895  0.3957  0.1119
28108W        W44182   2.450  11.916   2.541 -0.2637 -0.0072 -0.1112
28109W        W44183   0.040  11.407   4.562  0.2203  0.0906  0.0917
28110W        W44184  10.563   5.467   1.742  0.1443 -0.0845 -0.0263
28111W        W44185  16.452  15.372   5.745  0.0499 -0.2601  0.0262
28112W        W44186  15.963   8.825   3.798  0.0241 -0.2581 -0.0642
28113W        W44187   0.835  11.240  13.285 -0.3745 -0.0681  0.5289
28114W        W44188  17.908   3.493  13.365  0.1837 -0.2349 -0.0675
28115W        W44189  17.672  17.313   2.008  0.0016  0.2631 -0.0482
28116W        W44190   8.840   0.022  14.647  0.1273  0.3741 -0.2655
28117W        W44191   6.577   3.009  14.638 -0.1810  0.1341 -0.2970
28118W        W44192   8.641  11.338  11.378 -0.1705  0.0423 -0.0189
28119W        W44193  18.151   5.629   2.976 -0.2227  0.4321  0.2773
28120W        W44194  16.142  14.602  13.883 -0.2337  0.2138  0.0174
28121W        W44195  16.769   3.971  11.379 -0.1348 -0.0632  0.1869
28122W        W44196   9.832   3.426  14.829 -0.1731 -0.3927 -0.1278
28123W        W44197  13.801  17.283  14.618  0.2478 -0.1110 -0.0889
28124W        W44198  13.247   8.292   4.175 -0.1688  0.1285  0.0409
28125W        W44199   8.490   6.982   0.783  0.0566 -0.1425  0.0953
28126W        W44200  10.596   5.935  13.070  0.0841  0.2954 -0.1812
28127W        W44201   5.517   0.586  12.345 -0.0562  0.0277 -0.0046
28128W        W44202   0.291  18.213  15.919  0.0208 -0.2101  0.0255
28129W        W44203   2.523   3.981   5.376 -0.2179 -0.0976  0.0781
28130W        W44204  13.916   0.969  14.018  0.0714 -0.2295  0.0363
28131W        W44205   6.350   9.494   2.564 -0.1213 -0.2673 -0.3079
28132W        W44206   1.557   9.265  11.539 -0.0914  0.0383  0.0461
28133W        W44207   0.093  15.245  11.853  0.1163  0.1949  0.2478
28134W        W44208  14.948  12.584  11.258 -0.1487  0.1113 -0.0001
28135W        W44209  16.287  13.171  15.726  0.0273  0.0815 -0.0006
28136W        W44210   9.061   4.458   1.089  0.1980 -0.0630  0.1955
28137W        W44211  17.625   9.203   1.926  0.0334  0.0735  0.2247
28138W        W44212  15.165  14.730  13.783 -0.0986  0.0179 -0.0685
28139W        W44213   6.392  12.588  11.624  0.2701  0.0814 -0.1591
28140W        W44214   2.720  17.921  16.048  0.3698  0.0054 -0.3798
28141W        W44215   1.662  11.912   5.445  0.2576 -0.0873  0.0541
28142W        W44216  13.608  17.565   1.356 -0.0243 -0.0898 -0.1047
28143W        W44217   0.830  11.611   2.024 -0.5186 -0.0190 -0.0642
28144W        W44218   2.735   8.340   4.804 -0.0614 -0.0865  0.1041
28145W        W44219  16.594   9.788   4.632  0.0696 -0.0731  0.2719
28146W        W44220   3.842  13.479   5.024  0.0527  0.2507  0.1398
28147W        W44221  17.306  12.896  11.301  0.0016 -0.0556  0.2145
28148W        W44222   2.520   5.184   4.069  0.3001  0.1512 -0.0217
28149W        W44223  12.779   1.263   3.679  0.0961 -0.2861 -0.0841
28150W        W44224   3.819  15.516  14.009  0.2282 -0.0137  0.3379
28151W        W44225   2.478  11.863  15.435  0.2565  0.1713  0.1931
28152W        W44226  13.701  13.439  12.336 -0.3142 -0.3715 -0.1470
28153W        W44227   9.103   8.156  13.999 -0.0081  0.1579  0.0099
28154W        W44228   3.273   4.046  11.856 -0.0528  0.2971 -0.1960
28155W        W44229   4.685   0.514   2.843 -0.0224  0.3710  0.2226
28156W        W44230  10.741  10.278  13.888 -0.1664 -0.1655  0.2056
28157W        W44231   1.687   2.184  12.772 -0.2330  0.0615  0.1104
28158W        W44232   1.486   7.965   1.779 -0.1056 -0.0181  0.0172
28159W        W44233  10.149   1.293   5.690 -0.1445 -0.1416 -0.1285
28160W        W44234   6.096  17.930  12.392 -0.0663 -0.0752  0.1728
28161W        W44235   8.059   5.290  14.567 -0.0484 -0.1581 -0.2446
28162W        W44236   4.459  13.566   1.893 -0.2000  0.1501  0.0747
28163W        W44237  10.352  16.628  16.108  0.0804 -0.1669 -0.0512
28164W        W44238   0.165   7.217  10.858 -0.0629  0.2691 -0.2158
28165W        W44239  14.652   1.908   3.838  0.1133 -0.0520 -0.0987
28166W        W44240   2.393  12.702   4.834 -0.0334  0.2525 -0.1274
28167W        W44241  15.301   9.820   0.654  0.1309  0.0988  0.1911
28168W        W44242  15.853  11.751   4.043 -0.1810 -0.1746  0.1162
28169W        W44243   8.228   2.564   5.557  0.2961 -0.3849 -0.0201
28170W        W44244  13.368  11.229  11.658 -0.0728  0.2144 -0.1064
28171W        W44245  17.350  17.758   0.109  0.1001 -0.0726 -0.0373
28172W        W44246  17.856   0.709   1.770 -0.2246 -0.4768 -0.0649
28173W        W44247  11.313  11.566  14.148 -0.1708 -0.2034  0.1227
28174W        W44248  17.486  10.232   2.635 -0.1581  0.0254 -0.0612
28175W        W44249   5.450   2.934   3.120  0.0834  0.0452  0.0145
28176W        W44250  18.009  15.347   2.125  0.0774  0.0380 -0.1967
28177W        W44251  16.462   7.795   3.931  0.0354  0.1358 -0.1060
28178W        W44252  17.143  10.506  11.597 -0.2910 -0.1213 -0.1966
28179W        W44253  11.327  16.162  12.926  0.0141  0.0531  0.2303
28180W        W44254   6.178  12.760   1.283  0.1322  0.1629 -0.0276
28181W        W44255   0.262   6.697   1.608 -0.0844  0.0181  0.0111
28182W        W44256  11.967   1.403  12.127 -0.0448 -0.2594 -0.0820
28183W        W44257  10.917  14.006   5.681  0.2760  0.0621  0.0251
28184W        W44258  17.670  17.852  14.067  0.0271 -0.1722 -0.3644
28185W        W44259  15.262  15.965  11.913 -0.3451 -0.1303 -0.0285
28186W        W44260   9.551  13.430   1.838 -0.1514  0.2582 -0.1992
28187W        W44261   2.805  15.142   3.420 -0.1160 -0.0167 -0.1221
28188W        W44262  13.099  17.315   5.384  0.4474 -0.0801 -0.1606
28189W        W44263  16.196   0.047  12.617 -0.3833 -0.1886  0.3865
28190W        W44264   2.532   6.678   4.480  0.1115  0.1452 -0.0727
28191W        W44265   1.527   8.994   0.972  0.0131 -0.2091 -0.2162
28192W        W44266  11.981   6.670  13.986  0.2610 -0.0305 -0.4171
28193W        W44267  16.829  12.973   3.228  0.0475  0.1356  0.1146
28194W        W44268  13.378   8.732  13.490  0.0144 -0.0753  0.2035
28195W        W44269  13.024  18.203   0.717 -0.1519  0.2417 -0.1089
28196W        W44270  16.070  12.114   5.512 -0.1000 -0.0836 -0.0249
28197W        W44271   8.499  17.882   4.859  0.2256 -0.0662  0.4091
28198W        W44272   9.576   0.554  14.823 -0.2071  0.0812  0.1958
28199W        W44273  13.206  10.146   5.634 -0.1591  0.1860  0.0387
28200W        W44274  13.904  16.577  15.624  0.0742 -0.0053  0.1996
28201W        W44275   3.046   7.305  12.051 -0.2008 -0.2558  0.0684
28202W        W44276   0.333  13.028  14.103 -0.0305 -0.2428 -0.1972
28203W        W44277   1.366   3.902  12.241  0.0251  0.4092 -0.0554
28204W        W44278   8.404   9.955  15.320  0.0051  0.3423  0.0102
28205W        W44279   5.864  13.504  16.489 -0.0121  0.1781  0.3032
28206W        W44280   0.455   2.229   5.131  0.0930  0.1419  0.3269
28207W        W44281  12.804   3.870   5.506 -0.0116  0.1032 -0.0416
28208W        W44282   9.793   9.982   1.411 -0.4860 -0.1247 -0.1054
28209W        W44283   3.613  13.993  14.344 -0.1370  0.2996  0.1136
28210W        W44284   7.868  17.323  14.168 -0.1991  0.0430 -0.0418
28211W        W44285   6.753  17.487  14.136 -0.0736 -0.3302 -0.3374
28212W        W44286  15.462   7.141   3.900 -0.0394 -0.0153 -0.0809
28213W        W44287  13.478  10.829   2.657  0.1724 -0.1077 -0.1301
28214W        W44288   7.742  10.641  10.736 -0.2038 -0.1793 -0.5365
28215W        W44289   5.235   3.167   0.036  0.3015  0.1391  0.2467
28216W        W44290  13.557  16.351  15.345 -0.0633  0.2306 -0.0291
28217W        W44291   3.814   1.945  10.888 -0.2175  0.1284 -0.2169
28218W        W44292   1.095  12.029   0.788 -0.1139  0.3094 -0.0745
28219W        W44293  12.659   6.790  14.081  0.0951 -0.1691  0.1201
28220W        W44294   3.636   3.080  12.785 -0.1525 -0.1557  0.0245
28221W        W44295  17.160   9.625  12.435 -0.1328 -0.3927 -0.2586
28222W        W44296  16.852   6.410   3.092 -0.2578 -0.0723 -0.0431
28223W        W44297   7.504  13.224  14.562 -0.2654  0.1013  0.1345
28224W        W44298   2.898   8.822  11.466  0.2803 -0.0738 -0.0695
28225W        W44299   8.759   8.339   4.013 -0.1254  0.1108 -0.0864
28226W        W44300  12.685   8.110  16.085 -0.1360 -0.2608 -0.0582
28227W        W44301   4.608  16.967   5.305  0.1225  0.1442 -0.1281
28228W        W44302   3.126  13.909   6.218  0.0572  0.0636 -0.1832
28229W        W44303   8.951   1.010  14.365 -0.1347  0.3162 -0.0223
28230W        W44304   7.404   6.983  12.182  0.0568 -0.2004  0.0045
28231W        W44305   5.219  10.895  13.255  0.1999 -0.0478  0.2955
28232W        W44306  10.362   7.622   0.208  0.3807  0.0305 -0.2117
28233W        W44307   8.651  13.941   3.827  0.2322  0.0006  0.4826
28234W        W44308  12.600  12.214   4.242 -0.1155  0.1205  0.1444
28235W        W44309  13.588  10.815  12.092 -0.0574  0.1065  0.2375
28236W        W44310  12.130  10.166  13.100 -0.2329 -0.1103  0.1453
28237W        W44311  14.622   9.336  11.490 -0.2622  0.1524  0.2942
28238W        W44312   4.916  14.335  13.427 -0.0344  0.2836 -0.0203
28239W        W44313   1.305  14.843   2.391 -0.5612 -0.3781  0.1680
28240W        W44314   3.620   9.668  11.398 -0.0762 -0.4971 -0.0274
28241W        W44315   1.019  13.959  13.876  0.1157  0.1835  0.1724
28242W        W44316   6.893  11.694  12.612 -0.1314 -0.1834 -0.0354
28243W        W44317   4.829  12.505  13.409 -0.1814 -0.0000  0.0820
28244W        W44318  14.388  13.951   2.039  0.1678  0.1231  0.0282
28245W        W44319   1.113   7.333  14.357  0.2407  0.1671  0.1472
28246W        W44320   3.296   1.292  13.316 -0.2148 -0.2105  0.1228
28247W        W44321  15.116  13.715  12.078  0.0128 -0.1024 -0.1228
28248W        W44322  15.346   3.707  15.615  0.0849 -0.2624 -0.2176
28249W        W44323  12.825  10.559  14.709 -0.0907 -0.1985  0.1665
28250W        W44324  16.666  16.444  15.689  0.0622  0.1871 -0.1532
28251W        W44325  15.234  14.188  12.836  0.2491 -0.2301 -0.1535
28252W        W44326   2.527  16.598   2.233  0.0188 -0.0266 -0.3690
28253W        W44327   4.210   6.626   1.025 -0.0673 -0.0181 -0.2916
28254W        W44328   0.162   4.958   4.994  0.1215  0.0390 -0.2076
28255W        W44329   7.222  11.732  13.007 -0.2259  0.0361  0.2118
28256W        W44330  11.563  16.009  14.014  0.0032  0.1944  0.0628
28257W        W44331   1.038  12.280   0.052  0.0559 -0.2139 -0.2793
28258W        W44332   6.424  15.523   0.600  0.0188 -0.1022  0.1427
28259W        W44333  12.947  12.344  15.747  0.0539  0.0111 -0.1469
28260W        W44334  14.382  11.420   5.110 -0.0137  0.0909  0.1465
28261W        W44335   5.539   5.135   5.135 -0.2796 -0.3791  0.0462
28262W        W44336  11.556  13.256   0.756 -0.2664  0.1994  0.1000
28263W        W44337  14.308   5.944   6.146  0.1343 -0.0979 -0.1011
28264W        W44338   6.571  13.872   3.849 -0.2537 -0.0748 -0.1999
28265W        W44339   2.381  10.091  13.708  0.1052 -0.4381  0.0777
28266W        W44340   3.557   8.455   3.604 -0.0614 -0.1846 -0.1605
28267W        W44341  14.771  16.765   0.967  0.0655  0.3337  0.0904
28268W        W44342   6.751   3.883   5.284 -0.0956  0.2622 -0.2291
28269W        W44343   3.106   5.038   2.552  0.0790  0.2953  0.0861
28270W        W44344   7.697  13.441  16.118  0.2170  0.2395  0.1377
28271W        W44345  15.761   1.368   4.538  0.2154  0.1595 -0.1106
28272W        W44346   1.164   8.750  13.747 -0.0700 -0.1379  0.1333
28273W        W44347  13.015   2.759   3.875  0.3697 -0.0867  0.2200
28274W        W44348  10.412   6.701  15.656  0.1864 -0.0430  0.0126
28275W        W44349   5.799   0.930   0.269 -0.0449 -0.3556 -0.2969
28276W        W44350  15.749   9.694   5.649 -0.1041  0.1654 -0.1767
28277W        W44351   3.033  13.441  16.443  0.0549 -0.1451 -0.1903
28278W        W44352   6.643  17.663   0.411  0.0089 -0.1242  0.4861
28279W        W44353  16.740   6.874   4.310 -0.2057  0.0542 -0.1037
28280W        W44354  10.187   2.442   1.282 -0.1566 -0.0782  0.0405
28281W        W44355   5.687   5.251  13.323  0.0779 -0.0757 -0.1575
28282W        W44356   5.764   9.164   3.133  0.3560 -0.1116  0.0785
28283W        W44357   9.043   6.764   2.650  0.3545 -0.1919  0.1746
28284W        W44358   8.535  16.731   2.770 -0.0645  0.1558  0.1028
28285W        W44359   1.723  14.182  14.141  0.0767 -0.1730  0.0206
28286W        W44360   1.489   4.000   1.428 -0.1987  0.2052  0.1524
28287W        W44361   7.222   3.372  14.218 -0.0969  0.1662  0.1664
28288W        W44362   5.877   6.541   2.816 -0.3330 -0.1991 -0.1386
28289W        W44363  14.500   9.151   2.127 -0.3082 -0.1120 -0.0094
28290W        W44364   6.526   2.289  13.871  0.0689  0.1300  0.2864
28291W        W44365   2.063  12.505   0.169 -0.0329  0.1176 -0.1762
28292W        W44366  14.822  15.488  14.661  0.0431  0.2309 -0.1790
28293W        W44367   2.153  16.124   4.638 -0.0614  0.1969 -0.0887
28294W        W44368   5.029  10.775  16.340  0.0883  0.3473  0.0282
28295W        W44369   6.333  14.546   2.606  0.1080 -0.1689  0.1640
28296W        W44370   4.692   2.652  16.003 -0.1343 -0.0357  0.0592
28297W        W44371   3.826   7.877  14.561 -0.2412  0.1642  0.1633
28298W        W44372   2.242  13.238  11.927  0.0648 -0.1090  0.2345
28299W        W44373  16.479  13.063  12.505 -0.1023  0.0117  0.0589
28300W        W44374   1.157   4.394   4.628 -0.1980 -0.1379 -0.0697
28301W        W44375  13.575   2.757  12.219  0.3750  0.0668  0.0950
28302W        W44376  12.352  14.599  14.577  0.0112 -0.0246 -0.1179
28303W        W44377   7.886  18.208   0.308 -0.2716 -0.0222 -0.0314
28304W        W44378  16.126   7.161   0.884  0.3505 -0.0613  0.1347
28305W        W44379  16.462  16.862   2.322  0.1647 -0.0805  0.0457
28306W        W44380   7.607  11.400   1.865 -0.3447  0.1443  0.0684
28307W        W44381   1.293   0.732  12.976 -0.0686  0.0816 -0.1196
28308W        W44382   8.928  16.967   0.928 -0.0535  0.1349  0.1859
28309W        W44383   1.337  17.957   2.177  0.1639  0.3444 -0.2007
28310W        W44384   2.409   4.585   2.904 -0.0306  0.0393  0.0823
28311W        W44385   4.969   0.081  12.145 -0.0223  0.0167 -0.0642
28312W        W44386  16.747  10.064  13.066 -0.0248  0.1338 -0.0038
28313W        W44387   5.645  17.235   1.213  0.0522  0.0593  0.1164
28314W        W44388   4.133  18.110   1.225 -0.1052  0.1235 -0.0158
28315W        W44389  10.673  12.649  15.847 -0.0227 -0.2321  0.0161
28316W        W44390   9.362  18.242   2.310  0.0272 -0.0735 -0.0319
28317W        W44391  18.072   0.494  12.502 -0.2441  0.2091 -0.3837
28318W        W44392   4.947  12.689   4.502 -0.2309 -0.4085 -0.1168
28319W        W44393   1.119  10.085   1.236 -0.1651  0.0960 -0.4245
28320W        W44394   6.918   7.584   3.420  0.3510 -0.3632  0.2536
28321W        W44395  15.609  14.882   4.499 -0.1953 -0.0784  0.2978
28322W        W44396   0.857   5.335  15.263 -0.2376 -0.1076 -0.0059
28323W        W44397  11.436  13.980  16.109 -0.1063 -0.0246 -0.0040
28324W        W44398  10.467  11.603   5.093 -0.1234 -0.2000  0.3604
28325W        W44399  13.498   3.150   0.657  0.0392 -0.2591 -0.0012
28326W        W44400  13.990   5.127  15.522  0.0116 -0.0517 -0.0438
28327W        W44401   2.270   2.989   2.652 -0.1277  0.0009 -0.0407
28328W        W44402  17.235  12.171  15.163 -0.1037  0.3361 -0.2864
28329W        W44403   7.089   2.861   0.286 -0.0568  0.0280  0.0318
28330W        W44404  10.607  16.961  13.009  0.2051 -0.1778  0.0248
28331W        W44405   1.634  17.001   3.346  0.2407 -0.1190 -0.0925
28332W        W44406  10.838  16.098  12.652  0.0406 -0.2325  0.1318
28333W        W44407  13.286   0.651  14.918  0.1358  0.0975  0.3795
28334W        W44408   2.278   1.432  15.689 -0.1852  0.1063 -0.0102
28335W        W44409  17.186   3.122   1.362 -0.2095  0.1277 -0.5086
28336W        W44410   3.380  11.410   1.923  0.0900 -0.1879  0.1336
28337W        W44411  17.461  14.191  11.247  0.0264 -0.1784 -0.0268
28338W        W44412   2.430   7.143   3.690  0.0274 -0.1781  0.0746
28339W        W44413  18.056   0.055  15.210  0.4224  0.2160  0.2567
28340W        W44414   6.705   4.580  15.674 -0.0733 -0.0611 -0.0740
28341W        W44415   9.006   5.260   0.443  0.0076  0.3927 -0.0236
28342W        W44416   5.031  12.910   6.171 -0.0510 -0.0751  0.0545
28343W        W44417   6.842   6.476   4.682  0.0407 -0.0497 -0.0064
28344W        W44418   9.109   2.741   5.292  0.2793 -0.1367  0.0532
28345W        W44419   4.073  12.982  13.731  0.0361  0.1290 -0.0716
28346W        W44420   0.317   1.026   4.533 -0.0557  0.0640 -0.0446
28347W        W44421  10.633  14.103  14.505 -0.1648  0.2302  0.1068
28348W        W44422   5.847   7.199  15.933  0.3062  0.2082 -0.1451
28349W        W44423  14.028  11.222  14.823 -0.1741 -0.2944  0.1753
28350W        W44424   7.756  17.962  13.182  0.0021  0.2108 -0.2644
28351W        W44425  17.098  10.726   0.879  0.3983 -0.1442  0.0485
28352W        W44426   0.281  10.289  11.595  0.2204 -0.1887  0.0687
28353W        W44427   2.096  14.345  14.993  0.0309 -0.4385  0.0656
28354W        W44428   2.110  15.300  13.419 -0.1910 -0.0529  0.0833
28355W        W44429  12.324  13.194   0.627  0.2955  0.1837  0.0596
28356W        W44430  11.313  11.509   3.089 -0.1968 -0.1036 -0.0652
28357W        W44431  17.731   2.427   2.426 -0.1702 -0.1628 -0.1134
28358W        W44432   5.539   5.204   2.966  0.2255  0.1246  0.0816
28359W        W44433   1.270  15.929  12.350 -0.1133  0.0729 -0.2552
28360W        W44434   5.530  13.935  12.516 -0.0175 -0.1594 -0.1608
28361W        W44435  13.786   2.026  10.799 -0.1432  0.0024  0.2022
28362W        W44436  11.090  10.595  12.939 -0.0302 -0.4820  0.0876
28363W        W44437   8.017   3.399  16.070 -0.0032  0.1202  0.0358
28364W        W44438   0.193   6.287   0.530  0.2390 -0.0214 -0.0541
28365W        W44439   6.374  12.359  12.185  0.1594  0.0730 -0.2162
28366W        W44440  14.564   7.886  15.982  0.1985  0.1772  0.0634
28367W        W44441  16.372  10.553   3.562 -0.3363  0.0666  0.2254
28368W        W44442  10.420  13.882   3.595  0.1619 -0.0585  0.3139
28369W        W44443   0.710   1.679   2.126 -0.0468 -0.1601  0.1102
28370W        W44444  14.021   7.753  11.755  0.0187  0.1327 -0.0003
28371W        W44445  10.099   5.034  12.325 -0.1832  0.1030  0.3261
28372W        W44446  10.644  15.119   5.848 -0.0798 -0.0685 -0.0517
28373W        W44447   4.158  16.815   4.091 -0.0744 -0.0761 -0.0454
28374W        W44448  14.410   8.633  15.179  0.1450  0.0423 -0.1167
28375W        W44449   3.348   9.263   1.528  0.3379  0.3023  0.0933
28376W        W44450  17.430   8.162   2.140  0.1433 -0.1605  0.3397
28377W        W44451  15.552  14.240  14.998 -0.1065  0.0975  0.1187
28378W        W44452   6.843  13.759  14.164  0.1187 -0.1526 -0.0893
28379W        W44453  17.703  15.548  11.882  0.0630 -0.0051 -0.1307
28380W        W44454  16.076  16.446   1.008 -0.1267  0.0165  0.2982
28381W        W44455  14.783  12.576  12.938  0.0297 -0.1151  0.1640
28382W        W44456   2.372   7.604  13.576  0.1585  0.2785  0.2967
28383W        W44457  15.218  17.766  11.831 -0.0274 -0.0267  0.2549
28384W        W44458   1.743  13.837   4.371 -0.0470  0.1440  0.0372
28385W        W44459  17.721  14.122   3.566  0.1481  0.0178 -0.0544
28386W        W44460  15.581   9.422  14.081 -0.0248 -0.1570 -0.1245
28387W        W44461  16.703  16.843  11.803 -0.0069 -0.0507 -0.3797
28388W        W44462   7.190  12.147   2.889  0.2471  0.1746 -0.1813
28389W        W44463   2.062  17.307   2.594  0.3425  0.0565  0.0997
28390W        W44464   2.140   1.713  13.811 -0.2023 -0.3110  0.2328
28391W        W44465   5.360   0.547  16.385  0.0210  0.0254  0.0180
28392W        W44466  14.638   0.934  15.413  0.0450  0.1504 -0.0181
28393W        W44467   2.353   3.474   1.784 -0.3016  0.4869  0.0801
28394W        W44468   8.986   5.532   3.152 -0.1861  0.0627  0.2036
28395W        W44469   9.324  15.401   3.952  0.2230  0.1487 -0.0049
28396W        W44470   6.564  17.965  15.331 -0.0366  0.0820  0.0251
28397W        W44471   1.515   1.995  11.694  0.1148  0.2227  0.1040
28398W        W44472   6.307   3.204  12.924  0.1402  0.3134  0.1020
28399W        W44473  14.548   9.303   6.037  0.3129  0.0208  0.1004
28400W        W44474  14.354  13.663   0.831  0.2711 -0.0014  0.0199
28401W        W44475   1.996   1.143  13.167  0.0823 -0.0700 -0.1376
28402W        W44476   2.805  12.621  11.780 -0.0061  0.1257  0.2349
28403W        W44477   2.557   1.020  11.311  0.1614  0.0123  0.1612
28404W        W44478  11.219   0.439  15.661 -0.1738 -0.0633 -0.2679
28405W        W44479  16.300  15.896  16.437  0.1059  0.0561  0.0446
28406W        W44480  14.014  15.313  12.010  0.0421 -0.1323 -0.0940
28407W        W44481   7.230  10.504   1.772 -0.0954 -0.0925  0.0135
28408W        W44482  10.747   0.994  14.493 -0.0617 -0.1459 -0.0080
28409W        W44483  12.796   8.940   1.291 -0.1198 -0.2428  0.1145
28410W        W44484   9.968   1.082  13.987  0.2172 -0.1761  0.0690
28411W        W44485  13.331  12.682  11.759  0.2440 -0.0234 -0.0630
28412W        W44486   5.470   1.078  12.147  0.1524  0.0961  0.1422
28413W        W44487   0.096   3.357  12.035  0.1777  0.1506  0.1042
28414W        W44488   9.950   8.694  11.761  0.0277  0.1349 -0.0120
28415W        W44489   0.695   3.786  13.485  0.3128  0.2224 -0.1202
28416W        W44490   0.557  17.520   0.441 -0.1569 -0.0478  0.1446
28417W        W44491   6.458   6.867  15.378 -0.2561 -0.1091 -0.1003
28418W        W44492   4.587  10.467   2.967 -0.1929 -0.1642 -0.0633
28419W        W44493   0.303  17.965   0.338  0.1097  0.0047  0.0229
28420W        W44494   0.166  10.419   3.968 -0.1798  0.1123  0.0708
28421W        W44495  14.086  11.221  16.302  0.0965 -0.0391 -0.0647
28422W        W44496   3.227   5.923  14.712 -0.2036  0.1961  0.0454
28423W        W44497   3.133   5.862  12.202 -0.1502  0.0088  0.1182
28424W        W44498  13.230  13.041   1.519  0.1821 -0.2342 -0.1392
28425W        W44499  17.545  16.910   1.241 -0.1613 -0.0482  0.0988
28426W        W44500   3.632   2.320  12.943  0.0007 -0.0982  0.0425
28427W        W44501  10.697   2.193   0.442  0.3486 -0.1795  0.2145
28428W        W44502   1.691  15.392   0.889 -0.0548  0.2769 -0.0745
28429W        W44503   2.838  13.763  13.685 -0.1352 -0.3241  0.3419
28430W        W44504  10.800   1.486  12.468  0.0939 -0.0753 -0.0015
28431W        W44505   4.388   9.713   3.891  0.0667  0.3653 -0.2428
28432W        W44506   3.124  10.499   4.870 -0.0383 -0.1939  0.2883
28433W        W44507  14.308  15.549  12.549  0.0887 -0.0924  0.1436
28434W        W44508   2.240  13.235  13.827 -0.1047 -0.1810 -0.0939
28435W        W44509   8.101  17.849   0.618 -0.2370  0.1674  0.1675
28436W        W44510   8.606  15.397   4.286 -0.0132  0.0853 -0.0567
28437W        W44511   8.019  12.554   5.152  0.1751 -0.0817  0.0086
28438W        W44512   8.486   9.877  12.615 -0.0615  0.0154  0.1283
28439W        W44513   3.052   2.093   4.433  0.1158  0.2869 -0.0988
28440W        W44514   8.394   3.523  15.248 -0.1113 -0.1286  0.0958
28441W        W44515  16.147  11.057   5.050  0.1423  0.0041 -0.0887
28442W        W44516   6.724  15.979   3.164  0.0916  0.2231  0.2307
28443W        W44517  17.257   0.989   5.108 -0.1635  0.0110  0.1966
28444W        W44518  14.035   9.126   3.650 -0.1153 -0.1565 -0.2195
28445W        W44519  15.434   8.392  13.805  0.1711 -0.0631  0.0913
28446W        W44520   8.575   5.199  12.646 -0.2594  0.0558  0.1321
28447W        W44521  12.057  12.887   4.374  0.0888  0.1941 -0.2998
28448W        W44522  17.155   4.223  14.106  0.1719 -0.2141  0.2175
28449W        W44523  12.970  11.042   0.831 -0.1227  0.2153  0.3155
28450W        W44524   8.780   9.802   2.351 -0.1614  0.0246  0.0512
28451W        W44525   8.257  16.928  14.110  0.0876 -0.4056 -0.0315
28452W        W44526  11.249   8.641   3.291 -0.3930 -0.4508  0.3229
28453W        W44527  10.151   5.672   6.311  0.2363 -0.1842 -0.1451
28454W        W44528  10.658   7.681   4.818  0.2470 -0.0594 -0.0698
28455W        W44529   1.989   5.714  12.665 -0.0367  0.0766  0.0033
28456W        W44530  11.138   1.990  14.480  0.0793  0.2269  0.1523
28457W        W44531  10.765  13.720  13.702 -0.3415  0.1895  0.0302
28458W        W44532   2.043   3.569   4.196  0.1754 -0.0200  0.2660
28459W        W44533  11.817   4.725  12.225 -0.1757 -0.0388 -0.2695
28460W        W44534  17.897  14.036  11.632  0.0549 -0.1065  0.0785
28461W        W44535   8.567  16.766   3.584 -0.0024 -0.0374  0.2699
28462W        W44536   1.392  17.208  15.838 -0.0621  0.1480 -0.1249
28463W        W44537  13.020  10.828   2.515  0.2879  0.1712 -0.0794
28464W        W44538   7.882   9.930   2.678 -0.2148  0.0749  0.0328
28465W        W44539   3.822  10.019  13.838  0.0874  0.1622 -0.2355
28466W        W44540  10.730   0.426   1.360 -0.0240  0.0952  0.0461
28467W        W44541   0.438   7.147   2.817 -0.0055  0.0078 -0.0058
28468W        W44542   7.939  15.137  12.529 -0.3772  0.2878  0.1234
28469W        W44543  11.828   0.250   2.710 -0.1796  0.0249 -0.1739
28470W        W44544   7.019   2.501   5.999 -0.0265 -0.1055  0.3726
28471W        W44545   4.471  16.446  16.261  0.4852 -0.2687  0.1950
28472W        W44546  17.049   6.925  13.370  0.0038 -0.0244  0.0003
28473W        W44547   7.723   4.236   2.852  0.2170 -0.2345 -0.3543
28474W        W44548   9.676  17.031   2.564 -0.1206  0.0825  0.0475
28475W        W44549  17.592   5.687  12.734  0.1320  0.2830  0.0456
28476W        W44550  12.310   9.573   5.614 -0.0692  0.2356 -0.0491
28477W        W44551  17.289   1.976  15.440  0.2008  0.0061  0.4114
28478W        W44552   8.706  11.621   2.910  0.4074 -0.1954 -0.2640
28479W        W44553   8.880  10.104  12.988  0.3019  0.2512  0.0402
28480W        W44554  11.891  12.342  15.893  0.3300 -0.0649  0.1424
28481W        W44555  10.851   8.339  16.196 -0.1185 -0.1567 -0.1509
28482W        W44556  14.667   4.079  13.004 -0.0232 -0.1511 -0.0018
28483W        W44557  14.584   1.460  11.039  0.0673 -0.0908 -0.4230
28484W        W44558   0.396   3.423   4.450  0.5004 -0.0955  0.0667
28485W        W44559   5.831   1.471  12.063  0.0664  0.0335  0.0580
28486W        W44560  10.437  12.694  16.305  0.0498  0.0627  0.1531
28487W        W44561   3.760   3.142  13.275 -0.0548 -0.0210 -0.0717
28488W        W44562  13.254   6.024   4.666  0.0324 -0.0287 -0.0197
28489W        W44563  12.610   3.421   5.625 -0.1295  0.1496  0.1743
28490W        W44564  13.849  11.305   4.957 -0.0340  0.1774 -0.0535
28491W        W44565  16.665   5.589  13.419  0.0533  0.1199 -0.0058
28492W        W44566   5.120  10.971   2.770 -0.2179 -0.4327 -0.1956
28493W        W44567   2.778   0.770   3.076 -0.1897  0.1228 -0.0500
28494W        W44568   0.281  15.994   3.799 -0.0741  0.3567  0.1467
28495W        W44569  17.382   4.101   2.190 -0.0012  0.1258  0.0201
28496W        W44570  14.990  11.080   5.277 -0.0538  0.1218 -0.0313
28497W        W44571  13.373  15.409   1.968  0.2567 -0.0847 -0.1783
28498W        W44572   7.353   7.474   1.902  0.0828 -0.1466  0.0302
28499W        W44573  12.153  16.097   4.315 -0.1358  0.0396  0.1348
28500W        W44574   3.610   9.735  15.085 -0.1924  0.1017 -0.4692
28501W        W44575  13.218   5.780  12.051 -0.2588 -0.3613 -0.0250
28502W        W44576   4.431  11.739  14.359 -0.0524  0.1145 -0.0316
28503W        W44577  11.815  17.387   2.690  0.1207  0.0339  0.0468
28504W        W44578   5.494  15.357   0.396 -0.1402  0.2101  0.1513
28505W        W44579  11.829  10.273   4.084  0.2091 -0.1498  0.1228
28506W        W44580  17.630  10.415   4.386 -0.2693 -0.4045 -0.1448
28507W        W44581   6.164   3.319  13.762  0.3681  0.3928 -0.1763
28508W        W44582   5.407   4.532   0.609  0.1827  0.0516 -0.2162
28509W        W44583   2.558   5.090  16.453  0.2477 -0.1117  0.2543
28510W        W44584  12.635   8.360  11.484 -0.0964 -0.0984  0.0584
28511W        W44585   3.042  17.384  15.443 -0.2575 -0.2209  0.1156
28512W        W44586  10.240   7.958  14.393 -0.0650  0.1968 -0.2324
28513W        W44587  16.353   5.095  12.938 -0.1001 -0.0919 -0.0746
28514W        W44588   0.398   1.551   5.477 -0.3157  0.0726  0.2393
28515W        W44589  16.412   8.856   1.095 -0.1507  0.1922 -0.0720
28516W        W44590   5.832   9.498   0.717 -0.1231  0.0773  0.0938
28517W        W44591   9.023  15.246  13.894  0.1431 -0.0197  0.1579
28518W        W44592   0.060  14.241  14.500 -0.1214 -0.1345  0.0470
28519W        W44593   8.560   6.043  14.071  0.4201  0.2495  0.1124
28520W        W44594   2.356   0.485   1.664 -0.3910  0.1241 -0.0143
28521W        W44595   2.682   2.030   0.339  0.2115  0.1405  0.1837
28522W        W44596  11.632  12.841  13.126 -0.0485 -0.4306  0.0042
28523W        W44597   7.268   3.563  11.480  0.0086  0.5728 -0.2325
28524W        W44598  13.250  13.238   4.532 -0.1019 -0.0649  0.1030
28525W        W44599   1.101   2.801  15.390 -0.1495  0.0836 -0.0564
28526W        W44600  14.469  13.284  12.476  0.1864  0.1323 -0.0270
28527W        W44601   4.415  12.184   4.059  0.0704 -0.0720 -0.2780
28528W        W44602  13.058  17.601  12.517 -0.2056 -0.0887  0.2101
28529W        W44603  18.041  13.795   2.538 -0.0727 -0.1804  0.1303
28530W        W44604  12.371  17.920   0.492 -0.1648 -0.0335  0.0465
28531W        W44605   3.785   4.143   5.266  0.2389  0.1551 -0.0601
28532W        W44606   5.250   8.330   2.985  0.0705 -0.1978  0.0571
28533W        W44607  17.067  17.112  14.912  0.0344  0.2454  0.1829
28534W        W44608  17.480   3.394   1.012 -0.1594 -0.1884  0.2773
28535W        W44609   7.501  16.745   5.859  0.0280  0.1215  0.2218
28536W        W44610  15.232  17.565   4.124 -0.1787  0.1044  0.0470
28537W        W44611  17.175  13.508   2.794 -0.2513  0.3533  0.0525
28538W        W44612   9.050   7.245   4.990  0.0055  0.1371  0.1006
28539W        W44613  14.201  16.549  15.062  0.0060  0.2607 -0.1259
28540W        W44614  15.742  14.133   1.103 -0.0343  0.2379  0.1473
28541W        W44615   9.801   4.233   1.319 -0.2679 -0.1512  0.3803
28542W        W44616   8.643  17.293  10.709  0.0224 -0.5531 -0.1582
28543W        W44617   4.838  17.731  13.319 -0.3681 -0.2300 -0.1017
28544W        W44618   5.306   5.687  14.525 -0.0279  0.0934 -0.2657
28545W        W44619   2.016  12.507  13.276 -0.0396  0.2199  0.0206
28546W        W44620  12.096   6.870   0.865  0.1135 -0.0376 -0.0173
28547W        W44621  14.154  10.228   3.962  0.1169  0.0778 -0.0198
28548W        W44622   8.409  18.006   6.191  0.1434  0.0096 -0.0047
28549W        W44623  14.924  13.464   0.183 -0.0214  0.0389 -0.1371
28550W        W44624   6.892  16.616   1.378  0.1109 -0.2943 -0.0359
28551W        W44625   0.389  15.088  15.473 -0.2480 -0.0335 -0.3007
28552W        W44626  14.225   6.901   5.667  0.2206 -0.1806 -0.1865
28553W        W44627   4.521   9.568  15.003 -0.1324  0.4915 -0.2585
28554W        W44628  17.398  15.767  13.301 -0.1000 -0.1752  0.2302
28555W        W44629   3.608   8.931  13.436 -0.2218 -0.1997  0.1183
28556W        W44630   1.229  15.442   5.913  0.0773 -0.0471  0.0094
28557W        W44631  17.603  10.166   5.607 -0.2999 -0.0915  0.2519
28558W        W44632  11.074  12.098   2.252  0.0202  0.1575 -0.3088
28559W        W44633  15.530   0.077   1.982  0.2251  0.0653  0.0152
28560W        W44634   3.988   5.036   1.747 -0.1472  0.0443 -0.0890
28561W        W44635   8.000  14.467   1.806 -0.4791  0.0009  0.3378
28562W        W44636   1.406   0.110  16.023 -0.0433  0.0689 -0.1115
28563W        W44637   0.763   2.484  13.846  0.2903  0.0337  0.1196
28564W        W44638  12.194   1.646   0.935  0.0172 -0.0078  0.2030
28565W        W44639  16.587  12.088   3.021 -0.0818 -0.0391 -0.1594
28566W        W44640  18.013   2.906  14.566  0.2305 -0.2221  0.0735
28567W        W44641   2.636   7.054   4.738  0.2064 -0.0548  0.1648
28568W        W44642   0.803   3.620  11.821 -0.0091 -0.4406  0.1023
28569W        W44643   0.015   0.629   0.571 -0.0233 -0.1255 -0.0325
28570W        W44644   6.775  12.620   1.201  0.1377  0.0287  0.1541
28571W        W44645   4.064  17.038  11.986 -0.1180  0.2270  0.2737
28572W        W44646  13.616   1.760  12.175 -0.1830  0.2136  0.1252
28573W        W44647  15.127  12.027   4.551 -0.3129  0.1454  0.0594
28574W        W44648   5.893  15.499   1.632 -0.1015  0.0900 -0.1014
28575W        W44649   3.300   4.278  14.622  0.0564  0.2106  0.0956
28576W        W44650   9.801  15.911   0.413 -0.1806  0.0131  0.0616
28577W        W44651   4.468  13.138  12.864 -0.1143  0.0197  0.3629
28578W        W44652   8.364   0.572   2.211  0.2553  0.1193  0.2420
28579W        W44653   2.447  14.748  14.182 -0.0360  0.0502  0.0234
28580W        W44654  16.287  12.160   0.330 -0.0012 -0.1031  0.2195
28581W        W44655   8.173  11.188   4.775 -0.3470 -0.0816  0.1400
28582W        W44656   1.379   9.827  14.283  0.0850 -0.2130  0.0188
28583W        W44657  12.357   3.960  15.829  0.3123 -0.2040 -0.0405
28584W        W44658   9.220  14.042  16.224  0.0865 -0.1206 -0.0393
28585W        W44659   5.956  14.776  13.603  0.1173  0.3081  0.1974
28586W        W44660   5.566  10.195  13.207 -0.1451  0.0804 -0.0344
28587W        W44661  13.495   5.923   4.212 -0.4105 -0.0440  0.1624
28588W        W44662  13.151   2.423  16.385  0.0193  0.0996 -0.0238
28589W        W44663   0.221  17.337  13.742 -0.0760 -0.0311 -0.0720
28590W        W44664  12.079  10.906  11.311  0.2358  0.3786  0.0702
28591W        W44665  13.959  10.623  13.126 -0.0643 -0.2885 -0.2995
28592W        W44666   3.401   7.648  12.163 -0.4521  0.3242  0.1580
28593W        W44667  11.695   5.784  16.055  0.0320 -0.0472  0.0141
28594W        W44668   8.372   4.286   3.272  0.0386  0.1065 -0.1429
28595W        W44669   4.568  12.839   4.115  0.3987  0.2720  0.0530
28596W        W44670  14.258  13.968  11.921 -0.0697 -0.0147  0.1649
28597W        W44671  17.917  13.116  15.318  0.0091  0.1514 -0.0133
28598W        W44672   1.174   7.681   0.617 -0.1556 -0.1228  0.0416
28599W        W44673  11.478  14.302   1.988 -0.0444 -0.0149 -0.5049
28600W        W44674   9.177  13.946  12.037  0.0194 -0.2725 -0.2434
28601W        W44675   2.110  12.625   1.800  0.0708 -0.1865 -0.2572
28602W        W44676  10.107   1.371  15.800  0.0264  0.2435  0.2871
28603W        W44677  15.177  11.262   2.103  0.0260 -0.3145 -0.3525
28604W        W44678   4.364  16.221   0.384  0.0507  0.1012  0.2067
28605W        W44679   2.087   9.629  13.860  0.0547  0.0297  0.1163
28606W        W44680   5.730   8.723  15.020 -0.0232  0.0416 -0.2170
28607W        W44681   1.339  15.116   5.218 -0.1280 -0.5554 -0.0200
28608W        W44682   6.040  16.768   1.912 -0.0427 -0.1242 -0.3333
28609W        W44683   4.129  17.862   2.350 -0.1188 -0.1099 -0.2393
28610W        W44684  16.129   8.256   0.097  0.0682  0.0574  0.0053
28611W        W44685  15.146  16.565  15.334 -0.2398  0.0232  0.1123
28612W        W44686  14.119   6.384   2.573 -0.0529  0.0592  0.0981
28613W        W44687  12.748   6.141   4.583 -0.2164 -0.0795 -0.0529
28614W        W44688   6.041  13.917  16.229  0.1094 -0.2635 -0.0578
28615W        W44689   1.122   8.416   2.848 -0.1552  0.1848  0.0398
28616W        W44690   0.977  16.472   5.314 -0.3331 -0.1488  0.3481
28617W        W44691   2.015   0.278   1.285  0.1181 -0.1979 -0.0700
28618W        W44692  11.086   1.334   0.148  0.4446  0.1567  0.1360
28619W        W44693  15.142  15.502  14.249  0.1101 -0.1151 -0.0488
28620W        W44694  11.459   0.951   0.188  0.0686  0.3942  0.1723
28621W        W44695  15.721  12.429   2.811  0.2340  0.0947 -0.1890
28622W        W44696   0.426  12.348   2.613 -0.0206  0.2441  0.0797
28623W        W44697  11.877   3.588   4.306 -0.0912  0.0621  0.0934
28624W        W44698  16.757  15.691   1.708 -0.3650 -0.1749  0.0636
28625W        W44699  17.447   8.558  12.906  0.0086 -0.0274 -0.3341
28626W        W44700  12.695  13.896   3.795  0.2937  0.0410  0.1786
28627W        W44701   7.252   7.904  15.411 -0.3538  0.0656  0.0460
28628W        W44702  13.132  14.987  13.448  0.0110 -0.1328  0.1168
28629W        W44703   9.349   6.919  14.393  0.0998  0.2626  0.0390
28630W        W44704   9.235   4.877   1.723  0.1792 -0.3597 -0.0303
28631W        W44705  10.114   8.670   5.573 -0.0449  0.0114 -0.0158
28632W        W44706  14.745   8.254   1.331  0.1052 -0.0917 -0.1211
28633W        W44707  14.630   5.736  14.900 -0.1858  0.1165  0.0080
28634W        W44708  12.272   3.126  11.051  0.2828 -0.1196  0.0685
28635W        W44709   7.690  13.049   3.478 -0.2587  0.0301 -0.2926
28636W        W44710  13.828   6.944  13.352 -0.1401  0.0342 -0.0426
28637W        W44711   0.342  13.056   1.980 -0.1321  0.1338 -0.2798
28638W        W44712   7.774  11.534  15.609 -0.0942  0.2173 -0.1983
28639W        W44713  14.689  14.241   0.224 -0.0137 -0.1817 -0.1456
28640W        W44714  10.190   6.471   1.072 -0.0453  0.0890 -0.1963
28641W        W44715   1.923  12.672  12.831 -0.1755  0.0381  0.1238
28642W        W44716  14.490  14.661   3.529 -0.0075  0.1864  0.1341
28643W        W44717  11.641  13.332  13.021 -0.0017 -0.2951  0.1794
28644W        W44718   6.580  16.755   4.630  0.4039  0.0116 -0.0511
28645W        W44719  11.328  13.449   2.973  0.3042  0.1268  0.1120
28646W        W44720  16.711  11.594  12.879 -0.5247 -0.2593 -0.1118
28647W        W44721  10.903   0.053  11.937 -0.2710  0.1768 -0.1367
28648W        W44722   6.601   1.492  13.562 -0.1426 -0.0707 -0.1321
28649W        W44723  14.428   0.238   2.490 -0.0130 -0.3864  0.0830
28650W        W44724  11.121  14.677  12.481 -0.0474  0.0817 -0.0284
28651W        W44725   9.205  16.599   6.424 -0.0861 -0.2480  0.0864
28652W        W44726  10.898   3.562   5.490  0.3374  0.3628  0.1196
28653W        W44727   6.982   2.980   6.467 -0.2263  0.2361 -0.2239
28654W        W44728  16.487  14.453  16.232  0.2201  0.0383 -0.2485
28655W        W44729  16.586  15.199  11.857 -0.1364  0.0898 -0.1457
28656W        W44730   6.653  13.973   3.272 -0.0541  0.3223  0.2622
28657W        W44731   7.346  13.348   4.292 -0.0115 -0.1216 -0.1814
28658W        W44732  17.767   0.333   2.864  0.2179  0.1010  0.1697
28659W        W44733   7.580  15.070   3.838 -0.3407 -0.0916  0.3929
28660W        W44734   3.318   3.119  13.509 -0.1835  0.0565  0.2683
28661W        W44735   5.727   6.073  13.690  0.1088  0.1540  0.1405
28662W        W44736  14.707  11.154   1.876  0.0823 -0.3169 -0.0983
28663W        W44737   9.777   5.899   2.791 -0.0863 -0.3044  0.4320
28664W        W44738  11.785  13.681   5.710  0.2120 -0.1567 -0.0528
28665W        W44739  14.634  15.482  12.184  0.1669  0.1999  0.0321
28666W        W44740  14.380  14.541   2.153  0.0489  0.2387 -0.0650
28667W        W44741   3.960   7.896   4.870 -0.2036 -0.0133 -0.2749
28668W        W44742  14.638  12.331   3.815  0.1428 -0.2363  0.1869
28669W        W44743   8.916   5.506   1.446 -0.1622  0.0671 -0.4898
28670W        W44744   1.163   0.526  16.156  0.1072 -0.0598 -0.0393
28671W        W44745   1.872  15.816  11.709 -0.2125 -0.1077 -0.0885
28672W        W44746  13.117  18.000  12.249 -0.0479  0.1492  0.1613
28673W        W44747   6.995  15.127  12.487  0.0001 -0.0804  0.1474
28674W        W44748   6.654   1.625   4.250  0.3210  0.6056  0.3077
28675W        W44749   4.596  17.499  12.677 -0.0685  0.0036  0.0250
28676W        W44750   9.275   2.077   0.228  0.1694 -0.3198 -0.1561
28677W        W44751   0.186  17.991   2.854 -0.0750 -0.3011 -0.1084
28678W        W44752   0.706   9.964   5.786  0.3275 -0.1013 -0.1484
28679W        W44753   3.785   2.602   5.518  0.0880 -0.3777  0.0551
28680W        W44754   6.901   4.755   3.103  0.1529 -0.0038 -0.0514
28681W        W44755   1.197   9.085   6.033  0.0500 -0.3753  0.1388
28682W        W44756  10.081   4.995   2.240  0.0138  0.2538  0.1358
28683W        W44757   9.650  10.437  14.265  0.2713  0.0441  0.0371
28684W        W44758  16.850  14.641  12.642 -0.1238  0.3616  0.4926
28685W        W44759   4.811   3.615  12.857  0.1431  0.1991  0.2390
28686W        W44760  14.163   0.885  15.156 -0.0632 -0.3061  0.2539
28687W        W44761  11.115   7.485   5.589  0.0202  0.0903  0.1334
28688W        W44762  10.239   8.284   2.046  0.0549  0.0981  0.4403
28689W        W44763   6.934   2.462   0.567 -0.0341  0.2536 -0.2915
28690W        W44764   9.393   3.802   4.158  0.0748  0.1417 -0.2775
28691W        W44765   0.331  17.340  10.777 -0.3067 -0.0247 -0.2647
28692W        W44766   5.912   1.659   2.881 -0.0573 -0.0128  0.0546
28693W        W44767   6.984   6.752   2.040 -0.1033 -0.1525  0.1482
28694W        W44768   8.337  12.221  15.314 -0.0557 -0.1124 -0.1186
28695W        W44769  14.248   4.204   0.835  0.2046  0.1220  0.0163
28696W        W44770   4.990   7.402  15.893  0.0202 -0.0353  0.2308
28697W        W44771   2.206  10.216  14.257  0.1590  0.0516 -0.2118
28698W        W44772   2.778  13.698   3.290  0.0789 -0.0505 -0.2348
28699W        W44773   2.983  15.603   4.599  0.1991 -0.2758 -0.0990
28700W        W44774   5.314   2.672   0.299 -0.0560  0.3176  0.1305
28701W        W44775  11.065   9.303   3.954 -0.2591 -0.4980  0.0115
28702W        W44776   9.380   4.800  14.624  0.2333 -0.2575  0.2490
28703W        W44777  10.924  10.773   0.227 -0.0983  0.1569 -0.1578
28704W        W44778  14.121  10.378   5.255 -0.1627 -0.1456  0.0058
28705W        W44779   0.432   3.441   5.201 -0.0393 -0.1637 -0.4908
28706W        W44780  10.647   5.055  13.682  0.2401 -0.0730  0.1019
28707W        W44781  18.100   0.754  14.180  0.0819  0.3103  0.0215
28708W        W44782   2.514  10.087   5.362 -0.0995 -0.2504 -0.0782
28709W        W44783   3.150   3.001   3.103  0.1531  0.1432 -0.0727
28710W        W44784   3.877   6.470  13.199  0.0244 -0.1473  0.2613
28711W        W44785   3.344  12.220   5.376  0.0249 -0.2035 -0.1880
28712W        W44786  18.248   4.677   0.525 -0.0826  0.2052 -0.0413
28713W        W44787   2.573   3.980   0.733  0.4176 -0.0089 -0.0099
28714W        W44788   7.036   4.499   1.730 -0.2065 -0.0717  0.0853
28715W        W44789   5.115   1.441   4.209  0.1169  0.4085 -0.0747
28716W        W44790   9.817   0.746   6.158  0.3135  0.0513  0.5005
28717W        W44791   5.233   0.424   5.629  0.1466 -0.1517  0.0602
28718W        W44792   0.304   3.879   5.501 -0.3072  0.0418  0.1745
28719W        W44793   9.108  13.986   3.840  0.1264  0.1626  0.3983
28720W        W44794  17.013  17.946  12.934 -0.0113 -0.2674  0.2107
28721W        W44795  11.093   5.122  13.068  0.4507  0.1854 -0.1029
28722W        W44796  13.053   4.332  15.541  0.0563  0.1418  0.0106
28723W        W44797  12.296  14.630   3.935 -0.0519 -0.2681 -0.1582
28724W        W44798   5.912   7.487  12.761 -0.4723 -0.0233  0.0885
28725W        W44799   4.713   2.904   0.330  0.3503  0.0058 -0.0484
28726W        W44800   9.034  11.075  10.532 -0.0398  0.1771  0.5866
28727W        W44801   5.252  11.265  15.433 -0.0703  0.1747  0.0613
28728W        W44802   2.004  11.934   4.519 -0.0612 -0.1235 -0.1079
28729W        W44803  15.225  13.865  14.922  0.2977 -0.0528  0.3464
28730W        W44804  17.145   7.438  15.950 -0.0133  0.2660 -0.2760
28731W        W44805  13.582   4.955   0.217  0.2036 -0.2603 -0.0932
28732W        W44806  14.882  10.165  14.949  0.1264  0.0502 -0.0858
28733W        W44807  16.636  15.402  16.102  0.0192  0.0440  0.3688
28734W        W44808   3.966   8.532  15.756 -0.0906  0.3194  0.0680
28735W        W44809   2.133  17.453   3.453 -0.3323  0.0475  0.1278
28736W        W44810  11.044  15.402   3.263  0.0134  0.3010 -0.0093
28737W        W44811   5.348   4.507  15.254 -0.1940  0.0930  0.3557
28738W        W44812   1.049  13.720   0.633  0.1393  0.0750  0.1406
28739W        W44813  12.505  12.877  14.660 -0.0096  0.1043 -0.0605
28740W        W44814  11.992   6.123   0.363  0.3517 -0.1247  0.1431
28741W        W44815   5.515   6.277   0.491  0.1247  0.2222 -0.0927
28742W        W44816  18.122   4.016  12.808  0.0764  0.0254  0.2446
28743W        W44817   1.299  16.022   1.674  0.0406  0.0774  0.2517
28744W        W44818   8.250   5.721  14.948  0.0123  0.0761 -0.0403
28745W        W44819   5.108  14.408  14.570 -0.1968  0.2076 -0.3978
28746W        W44820  12.497   9.037  16.472 -0.2136 -0.2712  0.1090
28747W        W44821   7.023   4.908   0.328 -0.0051 -0.4148 -0.3352
28748W        W44822   1.512  13.887  13.761 -0.0786 -0.2480 -0.2760
28749W        W44823   5.896  10.951  16.297 -0.0157  0.1253  0.0134
28750W        W44824   7.173   7.273  12.558  0.1461 -0.2617  0.2758
28751W        W44825   4.720   1.026   0.472 -0.0407 -0.1258  0.0197
28752W        W44826  10.603   4.822   1.017  0.1887 -0.1661  0.2420
28753W        W44827   3.806   3.604   0.459  0.0279 -0.0986 -0.0824
28754W        W44828  14.363   6.505  16.195 -0.0277  0.2448  0.1823
28755W        W44829  10.696  11.785  12.316 -0.2892  0.1267  0.2070
28756W        W44830  12.639   2.845  14.436  0.0775 -0.0203 -0.0732
28757W        W44831   3.883   6.587   4.594  0.0770 -0.1411 -0.1236
28758W        W44832  17.068   0.231   3.152  0.4025 -0.0627  0.1939
28759W        W44833  16.790   1.212  14.198 -0.3136 -0.0556 -0.2873
28760W        W44834  16.549   0.270  14.562  0.0026 -0.1155  0.1014
28761W        W44835  10.325   2.527  11.759 -0.0777  0.1598 -0.0294
28762W        W44836   8.148  16.922  15.052  0.0140 -0.1775 -0.3533
28763W        W44837   4.077  15.743  12.718  0.2308  0.0810  0.0875
28764W        W44838  14.925   8.704  13.763  0.1328 -0.0915  0.0448
28765W        W44839   3.380   2.068   2.544  0.0698 -0.2311 -0.1754
28766W        W44840   2.755  14.948  11.937  0.0437 -0.2383  0.2498
28767W        W44841  15.843   8.816   0.516  0.1939  0.1335  0.0107
28768W        W44842  13.430  15.566  14.413  0.0745  0.0891  0.2497
28769W        W44843  11.207  12.168  12.601  0.1399  0.0230 -0.1218
28770W        W44844  16.478  17.302  11.832  0.2444  0.2648  0.2222
28771W        W44845   1.077   9.396  14.135 -0.1551  0.0722 -0.2194
28772W        W44846  14.847   4.972  15.247 -0.1588  0.1194  0.1100
28773W        W44847   7.702  16.459   2.768 -0.0361  0.0098 -0.2824
28774W        W44848   9.011   8.835   4.450  0.0136 -0.1648  0.1679
28775W        W44849   7.239   4.507  15.580 -0.0100 -0.1781  0.0886
28776W        W44850  10.957   6.758   4.970 -0.0464  0.0004  0.2398
28777W        W44851  14.279   0.847  12.970  0.0473  0.1456 -0.2655
28778W        W44852   7.350   6.013   4.555  0.1947  0.0120  0.2898
28779W        W44853   4.237  10.060   4.217  0.0428  0.0786 -0.0209
28780W        W44854  15.369   5.498   3.181 -0.0445  0.0421  0.1070
28781W        W44855   2.073  11.714  14.528  0.0701 -0.0181 -0.0767
28782W        W44856   2.773   0.562   5.680  0.0664  0.3875  0.1543
28783W        W44857  16.699   1.353  13.694  0.1045 -0.0445 -0.3343
28784W        W44858   5.339   9.644   3.769 -0.0757  0.2218  0.1629
28785W        W44859   8.546  10.448   1.531  0.0161 -0.0429  0.0484
28786W        W44860  12.199   1.013  12.299 -0.0899 -0.1762 -0.2590
28787W        W44861   9.874  12.109  12.312  0.0850  0.1128  0.1779
28788W        W44862  12.604  15.169   2.941 -0.1149 -0.2234  0.0596
28789W        W44863   1.054  10.844  12.932  0.0430 -0.0447 -0.0467
28790W        W44864  15.943   0.979  15.325 -0.1445  0.1275 -0.0407
28791W        W44865  12.603  15.128  11.608  0.0911 -0.1897 -0.1788
28792W        W44866  12.990  16.222   5.446 -0.1336  0.1272 -0.1168
28793W        W44867   6.337  17.054  15.778 -0.2100  0.3266 -0.1376
28794W        W44868  11.680  16.065   1.415  0.2694  0.0512 -0.2039
28795W        W44869  10.698  14.622  12.158  0.3118  0.0861 -0.1560
28796W        W44870  17.099  10.262  13.746  0.1885  0.1418 -0.0287
28797W        W44871  14.057  17.496   3.188  0.3820  0.1167 -0.0342
28798W        W44872   7.561  14.024   5.523 -0.1583 -0.0934  0.0302
28799W        W44873  10.410   2.815   5.056 -0.2697 -0.2424 -0.1332
28800W        W44874  10.351  15.577   1.972 -0.1400  0.2406  0.1555
28801W        W44875   4.747  13.033   4.847  0.0066  0.1410  0.1403
28802W        W44876   2.017   8.930   3.651  0.1743 -0.0050  0.2749
28803W        W44877   1.813  15.915   4.344 -0.2002 -0.0272  0.0451
28804W        W44878   9.119   9.108  12.738 -0.0795 -0.2520 -0.0183
28805W        W44879  11.282  13.662  13.438  0.1003  0.1782 -0.2845
28806W        W44880   0.583  12.796  11.241  0.2333 -0.1634 -0.0694
28807W        W44881   9.879  13.361   4.763  0.3732 -0.0296  0.2277
28808W        W44882  18.248  13.464   4.455 -0.0028 -0.2823  0.0415
28809W        W44883  12.614   6.326   2.598  0.1256 -0.0559 -0.1448
28810W        W44884   8.788  12.184   5.110 -0.2295  0.1053 -0.1615
28811W        W44885  18.160  17.503   0.567  0.3268 -0.2666 -0.0284
28812W        W44886  17.773  12.742   2.198  0.1415  0.0531 -0.2900
28813W        W44887  10.253   2.370  14.470  0.1484 -0.0913 -0.2019
28814W        W44888   3.845   6.027  14.096  0.4416  0.2523 -0.0938
28815W        W44889  17.331   5.518  14.141 -0.0726  0.1297  0.0481
28816W        W44890  15.829   5.378  12.080 -0.0751 -0.3357 -0.2869
28817W        W44891  13.340  14.857  16.252 -0.2266  0.1724  0.1102
28818W        W44892  11.574  16.671   1.598 -0.0441 -0.1332  0.2627
28819W        W44893   6.965   7.007  13.016  0.0733  0.5085  0.1356
28820W        W44894  14.268   3.734   0.573  0.2699 -0.1486  0.0577
28821W        W44895  11.219   6.540   5.686 -0.0169 -0.2216 -0.0875
28822W        W44896   8.382  17.052   0.719 -0.1400  0.0607  0.3423
28823W        W44897   4.841  12.850   0.480  0.2592  0.0546 -0.0683
28824W        W44898   3.151   7.644   5.284 -0.1201 -0.2135 -0.0810
28825W        W44899   2.627   0.283   4.777  0.2412 -0.2028  0.1359
28826W        W44900  15.992  15.754  12.697 -0.0578  0.1919 -0.2060
28827W        W44901  11.411  13.005   2.547 -0.2618 -0.2251  0.1046
28828W        W44902  12.730   0.972  12.648 -0.0995  0.1375 -0.1830
28829W        W44903   3.662  13.540   2.060  0.5333  0.1243  0.2292
28830W        W44904   9.376   4.246  13.354  0.1082  0.0336  0.2347
28831W        W44905   0.729  10.718  16.239  0.0944 -0.0403 -0.1208
28832W        W44906  14.502  14.882  15.644 -0.3485  0.0783  0.1234
28833W        W44907   0.076  17.464  12.819 -0.0179  0.2413  0.3863
28834W        W44908  16.996  15.944   2.903 -0.1130  0.4134  0.0299
28835W        W44909   0.710   0.741  14.360  0.0928  0.0161 -0.3126
28836W        W44910   0.042  16.847  15.723 -0.0414 -0.2276  0.0675
28837W        W44911  10.973   2.936  15.994  0.1741 -0.0485  0.0490
28838W        W44912   1.549   5.776   5.003  0.1712 -0.1400  0.1832
28839W        W44913  15.397  11.144  15.936  0.0830  0.1646  0.3172
28840W        W44914  12.318   0.585  14.167  0.3610  0.0236  0.0106
28841W        W44915  16.035   8.418   2.717  0.1660  0.1373  0.2408
28842W        W44916   6.471  13.930   1.266  0.1636  0.1212  0.1709
28843W        W44917   1.168   2.235  11.321  0.0900  0.3651  0.0899
28844W        W44918  10.621   7.264   1.136  0.1808  0.1195 -0.0474
28845W        W44919  16.366   2.623  12.272 -0.0479  0.0078  0.0951
28846W        W44920   1.011   3.212  15.791 -0.2052  0.4046 -0.4180
28847W        W44921   4.117   2.868  14.547  0.0538  0.0621  0.0047
28848W        W44922   2.295  17.577  11.797  0.1950  0.0129  0.1399
28849W        W44923  17.110   9.121   2.069 -0.3843  0.0655 -0.2133
28850W        W44924  17.153  17.006   4.575  0.0576 -0.1226  0.0386
28851W        W44925   7.135   9.288   0.893  0.1001  0.1355 -0.0269
28852W        W44926  14.704  13.362   1.746 -0.1060 -0.0979 -0.2834
28853W        W44927   0.741   7.306   2.360 -0.3846 -0.1053 -0.1027
28854W        W44928   6.541   8.006   1.410 -0.1438  0.3944 -0.1317
28855W        W44929   4.127   3.641  15.803  0.0930  0.0709 -0.0267
28856W        W44930  11.259  16.558   3.489 -0.3535 -0.0917 -0.0673
28857W        W44931   6.240  11.482   4.833 -0.0155  0.1055  0.2034
28858W        W44932   9.879   5.895  15.652  0.4624 -0.1988 -0.1185
28859W        W44933  15.045   0.900   0.110  0.0539  0.2821 -0.2050
28860W        W44934   2.674   5.503   3.453 -0.2574 -0.1422 -0.0518
28861W        W44935  16.314   6.514  15.151  0.0625  0.2046 -0.1596
28862W        W44936   2.382  12.502   6.219 -0.3406 -0.1392  0.0785
28863W        W44937   9.808   3.622   0.953 -0.1157 -0.0702  0.1759
28864W        W44938  10.317   4.126   0.464  0.0770  0.2236  0.1112
28865W        W44939   1.458   2.602   5.685  0.0236  0.1089 -0.0073
28866W        W44940   6.584   7.389   5.009  0.3468 -0.0470  0.1128
28867W        W44941   2.166  16.052  11.100 -0.1672 -0.1031 -0.0481
28868W        W44942  10.640   6.030   5.146 -0.1496  0.1049 -0.3553
28869W        W44943  14.627  12.796   1.606 -0.1389 -0.1134 -0.1305
28870W        W44944  15.648   5.281   1.532 -0.1739  0.1434 -0.0678
28871W        W44945   1.525  17.670  15.670 -0.2341  0.3053 -0.3214
28872W        W44946  12.617  10.983   4.262  0.1470  0.1971 -0.0822
28873W        W44947   3.073   3.375   0.069 -0.0612  0.2151  0.0748
28874W        W44948   1.929   0.091   4.047 -0.2230 -0.1130 -0.0177
28875W        W44949  14.859  11.616   3.241 -0.1322  0.0550 -0.2337
28876W        W44950   6.838  12.004  15.906  0.4222  0.0583 -0.2017
28877W        W44951  11.893  13.355  11.683  0.0817 -0.0538 -0.1487
28878W        W44952  18.010  12.093  14.962 -0.3282 -0.0718 -0.3015
28879W        W44953  13.333   7.674   3.079 -0.1723 -0.3392 -0.2415
28880W        W44954   2.928  11.815   0.896  0.4038 -0.2210  0.0189
28881W        W44955  12.883   9.481  15.686  0.0022 -0.0256  0.0349
28882W        W44956  12.251   7.718   3.456  0.1388  0.2337 -0.1502
28883W        W44957  14.148  16.072   1.735 -0.1345 -0.5224 -0.3213
28884W        W44958   8.952   9.879  11.899  0.2028  0.1138 -0.2685
28885W        W44959  13.755  10.734  14.641  0.2535 -0.0507 -0.2853
28886W        W44960  14.609   3.479   3.537  0.1378  0.1383 -0.1661
28887W        W44961   6.389   5.394  15.165  0.1322 -0.2361 -0.2999
28888W        W44962  17.890  14.949  13.251  0.1213  0.3514 -0.0309
28889W        W44963  17.426  10.613   2.229  0.4262  0.4818  0.0282
28890W        W44964   4.892  11.854   1.316 -0.0648 -0.1893  0.2602
28891W        W44965   3.956   3.488   2.809  0.4127 -0.2587  0.0549
28892W        W44966   0.935   7.827   3.635 -0.1214  0.0867  0.2610
28893W        W44967  12.701   7.981   6.146 -0.1561  0.0547 -0.6195
28894W        W44968  12.168  10.177   4.393 -0.0946 -0.0396  0.0473
28895W        W44969   0.121  14.791  15.823  0.0743 -0.1072 -0.0553
28896W        W44970   7.333   2.250  14.884 -0.0644 -0.3078  0.0053
28897W        W44971   8.460   0.183  14.311 -0.2179  0.0756 -0.2553
28898W        W44972   5.502   4.472   4.009 -0.1453 -0.1138  0.3935
28899W        W44973  15.628   0.397  15.915 -0.0924 -0.0175 -0.0320
28900W        W44974   8.643   8.563   2.241 -0.2659 -0.4206  0.0845
28901W        W44975  16.375   7.814  14.767 -0.1347 -0.0952  0.2220
28902W        W44976  10.164   1.219   3.737 -0.2918  0.0048  0.0899
28903W        W44977   6.475   1.659  14.446  0.1076  0.0145  0.0669
28904W        W44978  16.938   2.059  15.137  0.0774 -0.2544 -0.1436
28905W        W44979   2.231   2.005   3.444  0.0097  0.0538  0.1990
28906W        W44980  14.049   8.215   5.369 -0.0312 -0.1842 -0.2267
28907W        W44981   0.403   7.279   1.520  0.1946  0.0867  0.2495
28908W        W44982   6.884  14.602   3.270 -0.1133 -0.0877 -0.1836
28909W        W44983   6.100   8.341   0.741  0.2491 -0.0442 -0.3497
28910W        W44984   1.065  13.462   3.416  0.3793 -0.0656 -0.1081
28911W        W44985  16.012   4.335   4.198 -0.5021 -0.0965 -0.3378
28912W        W44986   0.716  14.191   0.446 -0.0716  0.2048  0.2112
28913W        W44987  10.887   5.281   3.804 -0.1705  0.0350  0.0335
28914W        W44988   7.917   6.644  14.108  0.3348 -0.0414 -0.0601
28915W        W44989  17.487  16.182  12.770  0.1512 -0.1966 -0.3150
28916W        W44990   5.117   1.835  11.418  0.3076 -0.0736  0.0732
28917W        W44991   2.520   3.386  11.814  0.4009  0.0997  0.1380
28918W        W44992  12.181  14.176  16.265  0.0973  0.0311 -0.0433
28919W        W44993   9.020  16.026  13.033  0.2583 -0.2739 -0.0220
28920W        W44994   1.693  16.193  12.233 -0.2025  0.1953 -0.1926
28921W        W44995   8.472  14.883   2.564 -0.0819  0.2260  0.1770
28922W        W44996   7.959  13.972   2.660 -0.1435  0.1834 -0.0570
28923W        W44997   6.489   5.855  14.461  0.1729  0.3615 -0.1355
28924W        W44998  14.047   4.487   0.446  0.1431  0.0571  0.1136
28925W        W44999   2.365   5.947  13.593 -0.0392  0.3241  0.0433
28926W        W45000  15.643   6.692   1.641  0.1198 -0.2661  0.0202
28927W        W45001  11.131  14.449   4.766 -0.2601 -0.0759 -0.1782
28928W        W45002  17.569  14.887  11.108  0.2567 -0.0141  0.2547
28929W        W45003   7.257   5.878  14.109 -0.0364 -0.1465  0.0013
28930W        W45004  15.146   5.473  13.169 -0.1593  0.0979  0.2149
28931W        W45005  13.497   8.704   4.193  0.3232  0.0263  0.1624
28932W        W45006   5.992  17.833  16.291  0.0301  0.0815 -0.2052
28933W        W45007  14.872  16.170   4.414 -0.3344  0.5062 -0.1152
28934W        W45008  17.448   3.923   4.909  0.1007  0.1563 -0.1137
28935W        W45009  15.892  15.623   0.281 -0.0427  0.0726 -0.0867
28936W        W45010   7.964   2.071   4.843 -0.1747 -0.2057 -0.0303
28937W        W45011  16.016  18.175   0.844 -0.1071  0.1514  0.1088
28938W        W45012  12.569  17.383  14.306  0.1562  0.3328 -0.1538
28939W        W45013   2.283   2.924  11.658  0.2548 -0.2061 -0.1319
28940W        W45014  10.019  14.117   1.322 -0.1235  0.2077 -0.1010
28941W        W45015  17.214  10.764  13.600 -0.0630 -0.0352  0.0178
28942W        W45016   6.329  14.294   2.040  0.2444  0.1950 -0.2031
28943W        W45017  17.416  14.023  13.272  0.1118  0.1584  0.1124
28944W        W45018   5.784   8.324   4.954 -0.0629  0.1912 -0.1710
28945W        W45019  17.647   5.482  11.759 -0.0405  0.0317 -0.1633
28946W        W45020   9.546   0.804  11.890 -0.2114 -0.2128  0.1162
28947W        W45021   8.055   4.274  12.452  0.1246  0.0397  0.2609
28948W        W45022   8.982  12.329   4.676 -0.2509 -0.0442 -0.2392
28949W        W45023   4.275  13.386   5.487 -0.0680  0.0730 -0.1669
28950W        W45024   8.270   2.927   2.809  0.0309 -0.0270 -0.0150
28951W        W45025   1.255   9.870   3.567 -0.1136  0.2530  0.2104
28952W        W45026  12.372   6.330  12.638 -0.1770 -0.3067  0.1885
28953W        W45027   2.531  10.015   4.270  0.2287  0.0932 -0.0177
28954W        W45028  16.495  16.728   0.092 -0.0826  0.0307 -0.0236
28955W        W45029  13.429   4.410  14.283  0.0675 -0.0333 -0.1665
28956W        W45030  14.729  14.790  13.548  0.0030  0.2323  0.0667
28957W        W45031  12.464   1.175   2.022 -0.0455 -0.0744 -0.0497
28958W        W45032  13.474  15.441   5.327 -0.2089  0.1899  0.1686
28959W        W45033   7.391   4.914  16.023 -0.0810  0.0452  0.1048
28960W        W45034  10.739   3.169   5.983 -0.1441  0.1029  0.0175
28961W        W45035   9.760   1.378  12.693 -0.0981  0.1121  0.3649
28962W        W45036   0.058   9.787   1.594 -0.2860 -0.0784  0.3151
28963W        W45037   4.527   5.654   3.849  0.1390  0.1188  0.0843
28964W        W45038  13.107   7.011  14.429  0.1586 -0.0658 -0.0069
28965W        W45039  15.805   6.499  11.802 -0.1068  0.2097 -0.0869
28966W        W45040   7.746   0.429  12.744 -0.2862 -0.0301  0.2462
28967W        W45041  16.867   2.425  12.265  0.2147 -0.1355 -0.0987
28968W        W45042  11.179  11.878  12.188 -0.4086 -0.0563 -0.3003
28969W        W45043  14.599  13.968   2.504  0.1981 -0.0211 -0.0287
28970W        W45044  10.876   1.165  13.725 -0.1516  0.1484  0.0681
28971W        W45045  17.519   9.788  15.559 -0.1575  0.3719  0.1740
28972W        W45046  17.150   9.163   1.076  0.1260 -0.1237  0.0529
28973W        W45047   8.258  17.464   5.261  0.0998 -0.1173 -0.1499
28974W        W45048  11.044   8.198  13.850 -0.0304 -0.2291 -0.4000
28975W        W45049  12.106   7.025   4.055 -0.0559 -0.0269 -0.0277
28976W        W45050   2.110  16.422   0.421  0.1932  0.0752  0.1644
28977W        W45051   0.807  14.785  14.206  0.1377 -0.1203 -0.1642
28978W        W45052  13.491   7.544   5.526 -0.1928  0.0282 -0.2068
28979W        W45053   7.585   1.977   4.524  0.1919  0.1025  0.1122
28980W        W45054   9.560   0.036  13.388 -0.2460  0.0671 -0.2966
28981W        W45055   9.377  15.662   6.538 -0.1918 -0.0146  0.0677
28982W        W45056   2.076  10.918  10.934  0.0873  0.0886 -0.2854
28983W        W45057  10.572   2.946  11.731 -0.0197  0.1883 -0.2441
28984W        W45058  10.275   6.969  14.358  0.1944  0.6609  0.0190
28985W        W45059  15.789  16.884  15.847  0.2227 -0.2508 -0.0822
28986W        W45060  16.775  11.027   1.493 -0.2215 -0.3790 -0.0707
28987W        W45061   9.917  10.527  15.443 -0.1221  0.1150 -0.1233
28988W        W45062  18.191   7.062  13.483  0.2180 -0.0473  0.1888
28989W        W45063  14.623   5.601   5.422 -0.0345 -0.0342 -0.1221
28990W        W45064   2.940  15.609  12.392 -0.1903 -0.1476  0.1564
28991W        W45065   7.166   0.758   1.771 -0.0707  0.1654 -0.0410
28992W        W45066  12.331  12.307  11.558 -0.2583 -0.1015  0.2031
28993W        W45067   7.052  17.320   5.272  0.1252 -0.0613 -0.0236
28994W        W45068  10.550  13.635   0.906 -0.1425 -0.0002 -0.2062
28995W        W45069   3.205   3.205  13.038 -0.1334  0.0710 -0.0769
28996W        W45070  18.212   0.256  13.898 -0.3591 -0.3056 -0.1420
28997W        W45071  14.163  11.250   3.227 -0.0105  0.0213 -0.1758
28998W        W45072   1.588   9.499  13.302  0.2003  0.0893 -0.2248
28999W        W45073   7.022  14.460   1.991 -0.1108  0.1077  0.1456
29000W        W45074  12.057  13.380  13.872 -0.1284 -0.0424 -0.2979
29001W        W45075   3.533   3.362   3.015  0.0198  0.0682 -0.1969
29002W        W45076  13.004   0.950   2.606 -0.0223 -0.2086 -0.0640
29003W        W45077  15.155   5.454  14.859  0.0326 -0.0179  0.1229
29004W        W45078   0.139   6.841   3.113  0.0719 -0.0398  0.0046
29005W        W45079  15.601   2.807  13.685  0.2879  0.0763  0.2773
29006W        W45080  13.493   1.099   2.357 -0.0382 -0.2578 -0.1294
29007W        W45081   8.775  14.210   5.004  0.0333  0.0291 -0.0023
29008W        W45082   6.823   4.068  12.903 -0.0429  0.1478  0.1214
29009W        W45083   7.711  11.958   1.826  0.0561 -0.2341 -0.0489
29010W        W45084   1.905  13.120   2.054  0.0957 -0.1454  0.0647
29011W        W45085  11.515   5.949   3.964  0.3153  0.0976  0.1213
29012W        W45086  11.885   4.695   5.709  0.1295  0.1479  0.0639
29013W        W45087   6.958   0.402   2.752  0.0195 -0.1079  0.2624
29014W        W45088  16.324   0.020   3.273  0.0428 -0.1649 -0.1710
29015W        W45089   0.173  15.531   3.538  0.2092  0.0431 -0.1768
29016W        W45090   2.530   4.676   4.176  0.0140  0.1491 -0.0735
29017W        W45091   0.530  11.451   3.490  0.2807 -0.0616 -0.3483
29018W        W45092   8.470   0.387   5.648  0.0061  0.3172  0.3490
29019W        W45093  11.230  12.302  11.949  0.4100  0.1328 -0.1161
29020W        W45094  11.617  11.744   3.750 -0.0281 -0.0366 -0.0677
29021W        W45095   5.901  13.078  15.729  0.1139  0.0694  0.1034
29022W        W45096   9.040  11.706   5.231 -0.1018 -0.1303  0.4631
29023W        W45097   1.318   9.755   1.601 -0.0860  0.0398 -0.1031
29024W        W45098  14.683   8.111   1.830 -0.0064  0.1738 -0.0957
29025W        W45099   2.777   5.016   0.379  0.4016  0.3815 -0.1550
29026W        W45100   7.403   2.264  13.270  0.2712  0.3806 -0.0331
29027W        W45101  13.929   6.961  13.856  0.0602  0.2661  0.2026
29028W        W45102   2.536  10.895   4.729 -0.1513 -0.1010  0.1550
29029W        W45103  14.370   0.394   0.810  0.2874  0.0937  0.1590
29030W        W45104  13.399  12.457  15.249  0.0865 -0.1980 -0.0287
29031W        W45105   5.174  13.018   0.135 -0.0326  0.1297  0.0530
29032W        W45106   4.512   9.168  13.170  0.1382 -0.3369 -0.0754
29033W        W45107  13.383  17.223  11.616  0.1817  0.0443  0.0975
29034W        W45108   2.942  16.994  11.961  0.2349 -0.2885 -0.0781
29035W        W45109   8.582   1.618   1.907  0.1553  0.0882  0.2093
29036W        W45110  12.432   9.641   0.443  0.0362 -0.1756 -0.1648
29037W        W45111  15.465   2.256  15.584 -0.0303 -0.1037 -0.2175
29038W        W45112   5.892   2.051   0.093 -0.0811 -0.1110  0.1555
29039W        W45113  11.333   1.256   4.933 -0.0307 -0.1468  0.0635
29040W        W45114  18.253   8.386   0.836 -0.0011  0.2248  0.1788
29041W        W45115  14.242   6.909   3.416 -0.0053  0.0135  0.0819
29042W        W45116   0.180   8.177   1.310 -0.0739 -0.1704 -0.0313
29043W        W45117   0.081  15.404  10.882  0.2585  0.2016 -0.0035
29044W        W45118   6.757   8.374  14.030  0.2066  0.1420 -0.1365
29045W        W45119  10.745  12.043  12.870 -0.1893 -0.2350  0.2534
29046W        W45120  16.564   8.766  14.331 -0.2054  0.0636  0.1060
29047W        W45121   7.055  10.409  16.361  0.0162  0.2119  0.0219
29048W        W45122  16.581   4.311  15.539 -0.0075 -0.1182 -0.0687
29049W        W45123  14.031   9.757  16.484  0.0343 -0.1970  0.1656
29050W        W45124   6.124   5.604  15.569 -0.3386 -0.0060  0.1150
29051W        W45125  11.098   2.089  12.006  0.2178  0.2527 -0.0733
29052W        W45126   4.649   1.183  11.903 -0.0748  0.2025 -0.0322
29053W        W45127  12.384  14.230   0.889  0.0721 -0.1998 -0.2414
29054W        W45128   8.788  17.654   0.354 -0.2134  0.2831  0.0939
29055W        W45129   3.787   6.383  13.680  0.0819  0.0962  0.1744
29056W        W45130  11.788  16.156  12.597  0.0701 -0.0532 -0.0562
29057W        W45131   0.985  11.399   0.393  0.1957 -0.0082 -0.4362
29058W        W45132   3.699   9.346  14.723  0.2604  0.0299 -0.1362
29059W        W45133   9.073   8.436  12.668  0.0794 -0.2910  0.1452
29060W        W45134  17.871   0.017  12.212 -0.0478  0.1943 -0.0411
29061W        W45135  14.118  12.173  15.992 -0.2318  0.2043  0.0000
29062W        W45136   8.941   8.896  16.188 -0.1176 -0.0987 -0.1733
29063W        W45137  14.256   6.791   0.606 -0.1174  0.2859 -0.1739
29064W        W45138   8.812  13.864   4.288  0.0600  0.1697  0.2264
29065W        W45139  10.956  10.324   0.507 -0.2056  0.3031  0.0007
29066W        W45140  11.540   1.789  12.885 -0.0452 -0.0085  0.0545
29067W        W45141   1.704  17.430   0.645  0.2173 -0.0181  0.0243
29068W        W45142   6.840   3.804   1.377  0.2505  0.1006  0.1574
29069W        W45143  16.133   3.646  13.965  0.2209  0.2417 -0.0574
29070W        W45144   6.758  13.631   1.592  0.0108 -0.2673  0.1040
29071W        W45145  16.053  15.989  13.412 -0.1340  0.2657  0.3335
29072W        W45146   0.690  16.673  13.333  0.0572  0.1797  0.0096
29073W        W45147  16.731   2.746   4.114  0.5097 -0.1592  0.0555
29074W        W45148   8.526  14.078  16.278 -0.3046  0.3420  0.1634
29075W        W45149  11.723   3.546  11.747 -0.1186  0.0189  0.3593
29076W        W45150   9.654   7.247   3.319  0.2454 -0.2383 -0.0275
29077W        W45151  17.592   2.888  14.291 -0.2365 -0.0579  0.3124
29078W        W45152  12.722  16.683  13.417  0.0856 -0.2531  0.2544
29079W        W45153  13.940  15.529  16.465  0.0525  0.0270  0.0335
29080W        W45154   3.524   3.930   4.833  0.0682 -0.0349 -0.0177
29081W        W45155   1.955  11.844  15.168 -0.0045  0.1698 -0.0171
29082W        W45156   0.371   2.305  14.954  0.2282 -0.1063 -0.1209
29083W        W45157   0.354   6.985   4.070  0.0985 -0.2357  0.2311
29084W        W45158  16.400   5.629   1.957 -0.3134  0.0150 -0.0106
29085W        W45159  17.328   0.004   3.501  0.0830  0.1826  0.1373
29086W        W45160   7.250   3.873   2.872  0.1769 -0.2770 -0.0072
29087W        W45161  13.296  17.888   5.435  0.1469 -0.0225  0.0032
29088W        W45162   5.380   1.517   2.886 -0.0057  0.1274 -0.0290
29089W        W45163   4.848   4.997   4.293 -0.2780 -0.1372  0.0252
29090W        W45164  11.251  13.457   4.606 -0.2794 -0.3062 -0.1875
29091W        W45165  10.595  16.380  13.855 -0.4141 -0.4224  0.0810
29092W        W45166  11.641   0.669   2.899 -0.1827 -0.2036 -0.1581
29093W        W45167  10.013   0.764  11.820  0.2182  0.0376  0.0800
29094W        W45168   7.402  11.743   5.451  0.0116  0.1115  0.4060
29095W        W45169   8.870   9.141   3.091 -0.0763 -0.2260  0.0736
29096W        W45170  12.198  15.560   1.812 -0.2234 -0.4836  0.2354
29097W        W45171   0.815  11.365   1.565  0.1817  0.1782 -0.3598
29098W        W45172   2.846   5.841   0.824 -0.0284  0.1646  0.1392
29099W        W45173   5.611   0.513   0.372  0.1624 -0.0077 -0.0124
29100W        W45174   2.414   0.316   0.355 -0.0668 -0.0520 -0.0635
29101W        W45175  13.655  13.863  13.395 -0.0008 -0.1977  0.2583
29102W        W45176   7.028   9.109   4.528  0.3978  0.2354 -0.1651
29103W        W45177  12.174  15.206   1.064 -0.3313  0.0418 -0.3082
29104W        W45178  11.238   0.159  15.201 -0.0424  0.0301 -0.0352
29105W        W45179   8.267  11.452  14.817  0.0829  0.0852  0.0435
29106W        W45180  10.926   7.186   4.712  0.4732 -0.7138 -0.0186
29107W        W45181  13.214  15.860   3.106 -0.1993  0.1011 -0.1410
29108W        W45182   0.501  12.556  10.774 -0.4933  0.0401 -0.3260
29109W        W45183   7.216   1.665   4.377 -0.0993 -0.0380  0.3507
29110W        W45184   4.656  17.170   0.164  0.2711 -0.1310  0.2423
29111W        W45185   3.161  17.888  12.750 -0.1618  0.1892  0.1865
29112W        W45186  13.799   1.320   4.548  0.0173 -0.0226 -0.0148
29113W        W45187   8.493  11.732   0.002  0.1033  0.1052  0.4047
29114W        W45188  10.893  13.733   3.542  0.3299  0.1898  0.0969
29115W        W45189  17.506   4.440   0.016  0.0274  0.2145 -0.0865
29116W        W45190   2.862   5.900  10.839 -0.0390 -0.1687 -0.1947
29117W        W45191  16.257  14.393   4.238  0.1581  0.1846 -0.1927
29118W        W45192   9.594  14.454  15.544  0.0426 -0.4022 -0.1058
29119W        W45193  14.146   0.806   5.379  0.1486 -0.0240  0.1361
29120W        W45194  15.704   8.842   4.242  0.0444  0.2093  0.0319
29121W        W45195  16.305   0.614   2.018 -0.0519 -0.0333  0.0533
29122W        W45196  12.035  12.815  11.914  0.0459  0.0206  0.1534
29123W        W45197   5.069   3.877  11.661 -0.0306  0.0117 -0.0437
29124W        W45198  10.472  12.789   3.626  0.0593 -0.2004 -0.0875
29125W        W45199   9.463  18.216  12.429  0.1288  0.2858  0.1499
29126W        W45200  12.950  17.789   6.228  0.4163 -0.0749  0.0473
29127W        W45201   3.964  14.941  15.527  0.2015  0.2030 -0.0196
29128W        W45202   6.437  15.194   0.967 -0.1972 -0.2179 -0.3567
29129W        W45203  15.874   7.566   0.010  0.0808 -0.0963  0.0557
29130W        W45204  13.633   0.413   3.567  0.1792  0.3558 -0.0758
29131W        W45205  16.795   6.645   3.735  0.4318 -0.2055 -0.3970
29132W        W45206  10.708  15.343  12.760  0.1187  0.1383 -0.2053
29133W        W45207  15.225   9.475   5.389  0.2864  0.3215 -0.1493
29134W        W45208  11.680  10.377   1.538  0.2663  0.4428 -0.1344
29135W        W45209   5.962  15.173   0.605 -0.2128  0.3263  0.0282
29136W        W45210   8.390   8.213   2.000 -0.1470 -0.1083  0.1024
29137W        W45211   3.024  11.820   4.124  0.0426  0.0491 -0.2857
29138W        W45212   4.224   8.437   2.878 -0.0943 -0.1113 -0.1357
29139W        W45213  14.142   1.828   0.277  0.1865  0.3638  0.0919
29140W        W45214   2.994   9.675   0.375  0.0303 -0.1068 -0.1091
29141W        W45215   5.448  16.764  15.340 -0.0616  0.3091  0.0759
29142W        W45216   8.790  12.063  12.458 -0.1829  0.1632  0.0231
29143W        W45217  16.376   9.594  14.459 -0.0777  0.0135  0.0191
29144W        W45218   2.559   0.470  12.251 -0.1887  0.1398 -0.1556
29145W        W45219   3.140   1.277   2.882 -0.1063 -0.0607 -0.2903
29146W        W45220   9.118   5.286  14.509  0.1896  0.0765 -0.2227
29147W        W45221  11.026   4.693   1.329  0.0120 -0.1082 -0.1529
29148W        W45222   4.832  15.342  15.650 -0.5095  0.1116 -0.2090
29149W        W45223   0.842  11.548   5.226 -0.0134 -0.1604  0.3346
29150W        W45224   7.549   2.594   0.343 -0.2752 -0.0790 -0.0592
29151W        W45225   1.485  13.370   2.105  0.0130  0.1346 -0.1067
29152W        W45226   1.144  17.889  16.203 -0.0921  0.0058 -0.2567
29153W        W45227   0.031   5.353  15.240  0.0480 -0.2475 -0.0301
29154W        W45228   7.343   5.141  15.035  0.0933 -0.1716 -0.0517
29155W        W45229  16.457  17.622  16.402  0.3808  0.0914  0.1046
29156W        W45230   4.643   3.115  14.493  0.0329 -0.1218 -0.2857
29157W        W45231  14.140  16.287   5.466 -0.0849  0.1237  0.2052
29158W        W45232   6.876  14.418   2.468  0.0946  0.1716  0.1373
29159W        W45233  12.909   7.076  10.684 -0.1243 -0.0909  0.1136
29160W        W45234   0.063   8.133   2.310 -0.0958  0.3107  0.1225
29161W        W45235  14.445  13.989   4.699 -0.1930 -0.2945 -0.0845
29162W        W45236   8.609   2.012  12.556 -0.0217 -0.2125 -0.3310
29163W        W45237  16.756   3.496   3.552  0.1317 -0.3184  0.0385
29164W        W45238  15.833  12.890   5.459  0.0038  0.1276  0.3192
29165W        W45239  10.094  13.580   6.115  0.0247 -0.1026 -0.0209
29166W        W45240   0.494  17.028  15.053  0.1651 -0.1947 -0.1749
29167W        W45241   0.716   1.538   0.494  0.1270  0.0219 -0.1066
29168W        W45242  16.121  12.926  12.153  0.2522  0.1106  0.0421
29169W        W45243   5.150   9.465   3.296 -0.3229  0.1135  0.2074
29170W        W45244  17.017  11.776  12.195  0.0837  0.2168  0.1313
29171W        W45245  10.273   9.446  14.927  0.0920 -0.0130 -0.2181
29172W        W45246   2.078  14.268   4.708 -0.1355  0.0763  0.1024
29173W        W45247  15.484   5.808  16.148 -0.1752 -0.0793 -0.1416
29174W        W45248   3.431   3.736  15.180  0.2259  0.0521  0.1271
29175W        W45249   0.586   9.900  14.966  0.2206 -0.1376 -0.1910
29176W        W45250   0.596   2.538  15.417 -0.0925 -0.1735  0.1508
29177W        W45251   4.653   1.337  13.004  0.2843  0.0868 -0.0245
29178W        W45252  11.402   6.966   0.152  0.0056  0.1224  0.1808
29179W        W45253   5.628  14.881  15.722  0.1318 -0.0433  0.2450
29180W        W45254   4.479  15.972   5.394  0.1194  0.0088 -0.1482
29181W        W45255  12.460  10.853   2.517  0.3218 -0.2455 -0.0737
29182W        W45256   8.061   6.520   2.517 -0.1257 -0.1089  0.0143
29183W        W45257   3.541  16.306  13.870  0.1575  0.2773  0.3472
29184W        W45258  15.976  15.627  14.633 -0.1391 -0.0717  0.1722
29185W        W45259  13.510  12.215  12.765 -0.1111  0.0109  0.0667
29186W        W45260  10.302  14.067  13.270  0.1122  0.2275 -0.0364
29187W        W45261  10.179  15.048   3.832 -0.2701 -0.0699 -0.0513
29188W        W45262  11.955  16.847   2.775  0.0310 -0.1271 -0.0601
29189W        W45263  16.957   5.232  15.166 -0.1980 -0.0260 -0.1276
29190W        W45264   8.975   3.934  12.475  0.0220  0.0918 -0.1534
29191W        W45265   3.080   1.916   5.397  0.1277  0.0813 -0.0637
29192W        W45266  17.157  11.975  10.570  0.0798  0.1952 -0.0534
29193W        W45267  15.367  10.192  11.673  0.0567 -0.1476 -0.1517
29194W        W45268   5.251  11.482   3.710 -0.4018  0.1842 -0.0101
29195W        W45269  12.204  17.248  12.196 -0.0624 -0.3952 -0.2315
29196W        W45270   1.417  15.367   3.490 -0.0041  0.2189  0.0842
29197W        W45271  11.780  17.316  11.783  0.3179 -0.0305  0.1615
29198W        W45272  16.186   4.105  14.155  0.2495 -0.0468  0.3158
29199W        W45273  14.951   4.002   0.184  0.2586  0.2510  0.2484
29200W        W45274   5.982   3.435   0.993  0.1177 -0.0110  0.1497
29201W        W45275   7.639   3.453  15.196  0.1224 -0.0491  0.2937
29202W        W45276   1.721  12.415  14.499 -0.0370  0.0478 -0.0798
29203W        W45277   1.046  16.606   3.985  0.3328  0.2250 -0.1261
29204W        W45278   9.900   2.477  13.908  0.0575 -0.0964  0.1680
29205W        W45279   0.295   7.167  15.190  0.1486 -0.1493 -0.2483
29206W        W45280  17.399  17.242  13.062 -0.0596 -0.1591 -0.1181
29207W        W45281  17.111   3.349   3.246  0.0088 -0.0161 -0.1287
29208W        W45282  16.973  13.989   4.444  0.1448 -0.1437  0.0692
29209W        W45283   4.037   1.952  15.929 -0.0248  0.1577  0.1104
29210W        W45284   4.432  11.172   0.048 -0.2254  0.3894 -0.1082
29211W        W45285  10.229  17.339   4.810  0.0638 -0.4147 -0.0343
29212W        W45286   6.346   6.296  11.563  0.1579 -0.1202  0.0248
29213W        W45287   8.605  10.297  10.451  0.0862 -0.1508 -0.1179
29214W        W45288   8.301  14.342   2.629  0.2960 -0.0514 -0.0226
29215W        W45289   6.192   9.734  12.844 -0.0725 -0.2708 -0.0585
29216W        W45290  11.526   9.925   1.362 -0.0896  0.0106  0.2193
29217W        W45291  14.540   7.824  13.721  0.2164  0.0229  0.1628
29218W        W45292  12.417   4.678  13.538  0.0063  0.2646  0.3882
29219W        W45293   6.014   1.984  15.947  0.0363  0.1953 -0.1068
29220W        W45294   7.483   9.459  14.197  0.0540  0.0857 -0.1526
29221W        W45295   8.311  14.882   3.642  0.1332  0.0676  0.1574
29222W        W45296   3.667  10.646   2.590  0.3041 -0.1084  0.0515
29223W        W45297   8.181  10.911  10.709 -0.0841 -0.1821 -0.0604
29224W        W45298   9.064  13.902  12.631  0.1120  0.1640 -0.0974
29225W        W45299   8.779  11.341  13.590 -0.0235 -0.2326  0.0720
29226W        W45300  15.123   7.428  14.103 -0.1204 -0.3309  0.1452
29227W        W45301   0.179  17.898  11.502  0.0909  0.1343 -0.2760
29228W        W45302  10.145  17.125   2.285  0.0590  0.0171 -0.0515
29229W        W45303  12.260  17.854   5.626 -0.2914 -0.0607 -0.3411
29230W        W45304  11.866  16.481  11.624  0.2427 -0.1296  0.4110
29231W        W45305   8.022   4.062   1.965 -0.0969 -0.0332  0.0007
29232W        W45306  17.080   4.342   1.816 -0.1342 -0.3320 -0.2443
29233W        W45307  16.059   2.871   5.726 -0.0076  0.2649 -0.2807
29234W        W45308  10.628  12.771   2.603 -0.0219 -0.1971  0.0400
29235W        W45309   2.449  11.002   2.762 -0.1607 -0.0522 -0.3448
29236W        W45310  13.191   7.691   5.087 -0.0368 -0.1017 -0.2340
29237W        W45311   4.324   2.507   2.638 -0.0397 -0.0237 -0.2067
29238W        W45312   9.543  11.234   1.721 -0.2027 -0.2182 -0.1278
29239W        W45313  12.318   1.751  13.488 -0.0832 -0.2584  0.0258
29240W        W45314  11.168   3.646   4.771 -0.0657  0.2244  0.0626
29241W        W45315  12.369   6.844   4.784  0.2152 -0.1156  0.0590
29242W        W45316   9.173  14.681   3.210 -0.0311  0.1795 -0.3994
29243W        W45317  15.542   9.894  15.348  0.2745  0.1813 -0.0304
29244W        W45318  12.258   0.163  12.889  0.0666 -0.0598  0.1615
29245W        W45319  15.077   9.759  15.564 -0.2648  0.2795 -0.2643
29246W        W45320   2.510  14.274  12.762 -0.1317  0.3017 -0.0939
29247W        W45321   7.072   9.064  13.994  0.1073 -0.2853 -0.1544
29248W        W45322   4.048   4.159  15.692  0.0161 -0.1860 -0.3544
29249W        W45323  14.145   6.176  14.331  0.2842 -0.1174  0.0113
29250W        W45324   2.546  11.373   2.429 -0.0930 -0.3264  0.1186
29251W        W45325   8.474  16.670  11.832 -0.1691  0.2986 -0.0572
29252W        W45326   0.639   5.749  12.391  0.0883 -0.3831  0.0971
29253W        W45327  13.409  12.989  13.249 -0.0403  0.0708  0.1878
29254W        W45328   4.157   2.165   3.606  0.0337 -0.2583 -0.0668
29255W        W45329  14.927   4.914  13.311 -0.1802 -0.1900 -0.0983
29256W        W45330   1.072   9.915   4.239 -0.2624 -0.0454  0.4573
29257W        W45331  10.119   2.705  12.992 -0.1920  0.1769  0.2772
29258W        W45332  14.178   9.761   2.944 -0.1272 -0.3888 -0.2114
29259W        W45333  13.899   2.107   4.197 -0.0646  0.0063  0.5238
29260W        W45334  18.081   0.398  14.502  0.0460  0.0812  0.0979
29261W        W45335  13.042  17.673   3.048  0.1300  0.0679 -0.1104
29262W        W45336   7.594   5.248   2.435  0.1089  0.0147  0.0919
29263W        W45337   2.716   1.603  15.588  0.0148  0.0188  0.0885
29264W        W45338  17.463   3.352  15.638  0.0295 -0.0253  0.0266
29265W        W45339  14.976   4.478  13.145 -0.1617  0.4000  0.1991
29266W        W45340  16.071   9.995  15.371  0.0669 -0.6298 -0.0981
29267W        W45341  17.646   1.559   0.221 -0.0386  0.0300  0.0596
29268W        W45342   9.748   3.064  15.961  0.0065 -0.1760  0.1316
29269W        W45343   2.961   2.160   2.335 -0.1723 -0.3101  0.1416
29270W        W45344   2.086   5.630   1.386 -0.0101 -0.3803 -0.1168
29271W        W45345  17.451  10.695  15.296 -0.1362  0.0212 -0.0876
29272W        W45346   1.468  17.515   0.163 -0.1434  0.4844 -0.1907
29273W        W45347   5.842   0.279  11.460  0.0744  0.4606  0.3583
29274W        W45348  18.088   7.741  10.262  0.1625  0.0392 -0.0049
29275W        W45349   6.974   8.872   5.121  0.0885  0.1783  0.0332
29276W        W45350   7.587  17.731   3.334  0.1591 -0.2029  0.0029
29277W        W45351  13.199  15.106   3.728  0.1425  0.1180 -0.2701
29278W        W45352   8.990   6.232  14.195 -0.0665 -0.3975 -0.3809
29279W        W45353   3.155  14.356  13.199  0.1443 -0.4523  0.2399
29280W        W45354   1.774   6.102   1.736  0.3104  0.0105  0.0179
29281W        W45355  16.194   6.222  13.536  0.1261 -0.0645 -0.0410
29282W        W45356   4.999   9.452   1.583 -0.2566  0.1584 -0.1379
29283W        W45357   7.789   1.347   1.133  0.0407 -0.3506  0.1596
29284W        W45358  17.717   6.383  13.087  0.1957 -0.2874 -0.3137
29285W        W45359  14.668   7.270  13.191 -0.0157  0.0839 -0.0893
29286W        W45360   5.640   0.936  13.353 -0.2252  0.1273 -0.2070
29287W        W45361   5.568  13.363  14.002  0.1826  0.0552 -0.2263
29288W        W45362  15.572   7.550  13.376 -0.1244 -0.0442 -0.1446
29289W        W45363   9.193   8.727   5.368 -0.1725  0.1960  0.1224
29290W        W45364   9.966   1.889  14.597 -0.1864  0.0146  0.1203
29291W        W45365  14.146   9.396  14.644  0.1048 -0.1925  0.0389
29292W        W45366   8.548   3.533  15.793  0.0582 -0.2452  0.0142
29293W        W45367  18.157  14.548  15.386 -0.2928 -0.2858 -0.1017
29294W        W45368  14.714   5.520   0.720 -0.0255  0.0977  0.1596
29295W        W45369  16.198   0.772  13.605 -0.2724 -0.1660 -0.0320
29296W        W45370   0.972   3.993   1.279 -0.1407 -0.0068  0.0955
29297W        W45371  14.212   3.562   2.060 -0.1632  0.3115  0.2865
29298W        W45372  13.574  13.707  13.839  0.1661 -0.4307  0.1026
29299W        W45373  17.425   2.068  14.506 -0.1720 -0.0444 -0.0255
29300W        W45374   1.737   6.430   3.855  0.0874 -0.1506  0.1005
29301W        W45375  18.003  10.177  14.695  0.0315 -0.3254  0.0603
29302W        W45376   6.094   8.305  14.713 -0.0707  0.4900 -0.2742
29303W        W45377   8.922   6.760   1.606  0.0150  0.0607  0.3292
29304W        W45378  10.187  12.000  16.427  0.1023 -0.0661 -0.0049
29305W        W45379  13.769   4.839  15.820  0.2235  0.1732 -0.0615
29306W        W45380  14.291   7.356  13.614 -0.0432 -0.3315 -0.0655
29307W        W45381  12.700   4.306   1.135 -0.0423  0.1456  0.0868
29308W        W45382   1.049  10.463   0.114  0.2947 -0.1837  0.1840
29309W        W45383  13.226   6.281  13.732 -0.1240 -0.0929  0.2313
29310W        W45384   2.101   7.184  11.259  0.1987  0.0788  0.2700
29311W        W45385  11.664  11.199   1.844 -0.2970  0.3282  0.3561
29312W        W45386   4.082  15.225  11.490  0.1413 -0.0413  0.1106
29313W        W45387   3.379  16.311  11.898 -0.2473 -0.2073 -0.1512
29314W        W45388   5.186   4.738   5.233 -0.0355 -0.2147 -0.0890
29315W        W45389   4.762  10.384  11.233  0.1921 -0.0031 -0.3836
29316W        W45390   9.376  16.726   5.163 -0.0668 -0.2397 -0.3499
29317W        W45391  17.634   2.857   1.240 -0.0952  0.1246 -0.1789
29318W        W45392   5.809  11.426   2.103  0.1577  0.2327  0.3541
29319W        W45393  13.308  13.709   3.746 -0.0308 -0.1671 -0.0032
29320W        W45394  14.833   2.858   1.596 -0.2499 -0.2042 -0.2573
29321W        W45395  13.001   3.076  14.106 -0.1501 -0.1962  0.2120
29322W        W45396  16.706   7.939   3.530 -0.1075  0.0619  0.3343
29323W        W45397   6.514   2.754   3.160 -0.1671 -0.2211  0.3308
29324W        W45398  11.958  12.323   3.139 -0.0213  0.1835 -0.0118
29325W        W45399  14.627   9.863  15.313 -0.4122  0.1966 -0.1262
29326W        W45400  13.711   9.437  14.433  0.0313 -0.3250  0.0991
29327W        W45401  10.948  10.648  11.758 -0.0638  0.1171 -0.1509
29328W        W45402   7.168  10.399   4.099  0.3143  0.1609 -0.2031
29329W        W45403   9.275   5.101   2.207 -0.1455  0.1173 -0.0629
29330W        W45404   1.877  17.991   2.184 -0.1621 -0.1261  0.0002
29331W        W45405   8.481  15.907   3.609 -0.2319 -0.0545 -0.3810
29332W        W45406   3.926  10.517  13.896  0.0335  0.1013  0.0474
29333W        W45407   5.498  15.058  10.430 -0.2819  0.0852 -0.0589
29334W        W45408  12.811   7.607  12.765 -0.3310  0.0366 -0.0411
29335W        W45409   3.248   3.535  15.602  0.1082  0.2322 -0.0757
29336W        W45410  11.929   1.923  13.204  0.2205 -0.0345  0.3042
29337W        W45411   3.665  10.291   0.278  0.1005 -0.1557 -0.0830
29338W        W45412  15.567   6.931  14.180 -0.1296 -0.0152  0.0677
29339W        W45413  15.045   3.388  12.588 -0.2083  0.0559 -0.0537
29340W        W45414  15.941   1.517   0.899 -0.2549  0.2888 -0.0103
29341W        W45415   4.635   9.225   5.377 -0.0457  0.1443  0.1999
29342W        W45416  14.573  12.768  11.612 -0.2208 -0.0683 -0.4745
29343W        W45417  10.260  10.367  12.569  0.0103 -0.0483 -0.1148
29344W        W45418   9.468   1.225   3.030  0.4303  0.2339 -0.1383
29345W        W45419   5.418   6.286  16.010  0.0850  0.1135 -0.2353
29346W        W45420   3.544   4.745   5.605  0.2127 -0.0290 -0.1473
29347W        W45421   5.560   5.201   4.619 -0.2449  0.1285 -0.2614
29348W        W45422   0.835  16.157   3.844 -0.1219  0.1620 -0.2958
29349W        W45423  16.457   0.864   1.250  0.5349 -0.1501 -0.0518
29350W        W45424   7.758  13.849   2.152  0.0214 -0.0589  0.1541
29351W        W45425   1.579   1.789   3.497  0.3663  0.0344  0.1250
29352W        W45426  10.408   9.675  12.970 -0.1245 -0.2528 -0.4296
29353W        W45427  15.879   4.058  12.235 -0.0106 -0.1940  0.0105
29354W        W45428  17.650   6.741  13.579 -0.0735  0.0865 -0.0290
29355W        W45429   8.369  14.269  11.770  0.0176  0.0222 -0.0759
29356W        W45430  13.249   9.597  12.102 -0.0179  0.0552 -0.0997
29357W        W45431  16.406  10.344   5.428 -0.1012  0.1332 -0.0164
29358W        W45432  14.136  13.723  12.421 -0.2012  0.2362  0.0363
29359W        W45433  12.916   7.339  11.798  0.1797  0.1150 -0.0286
29360W        W45434  16.321   1.082   1.718  0.0369  0.0521 -0.1758
29361W        W45435  14.664   2.614   5.544 -0.0858 -0.1265  0.0339
29362W        W45436   7.715  11.170  15.212  0.0487  0.3245 -0.1200
29363W        W45437  17.845   5.646   0.303 -0.0573 -0.2702 -0.0802
29364W        W45438   7.807   0.528  15.947  0.0584 -0.2454 -0.0829
29365W        W45439   1.788   7.129   5.076  0.0196  0.0100  0.2125
29366W        W45440   9.682  13.085   2.227  0.1429 -0.0296 -0.3907
29367W        W45441   0.903  10.908   2.424 -0.1952 -0.2693 -0.0382
29368W        W45442   5.300  17.194   2.284  0.1256 -0.0730  0.1631
29369W        W45443  12.300  10.731  15.210  0.0590  0.2554  0.1894
29370W        W45444   5.314   1.736   5.473 -0.0627  0.1133  0.1699
29371W        W45445  17.621  16.532  15.697  0.0452 -0.0459 -0.2012
29372W        W45446   3.126   6.782  15.140  0.2537 -0.0175  0.1580
29373W        W45447  15.655   6.257  13.083 -0.2497 -0.0634 -0.2019
29374W        W45448   9.198   4.631  15.131  0.1149  0.0763  0.0788
29375W        W45449   0.978   1.885  11.061  0.1364 -0.1184 -0.0599
29376W        W45450   6.470   9.757   3.648  0.0073  0.1141 -0.1173
29377W        W45451  14.406   1.477  13.747 -0.1814  0.1845 -0.0969
29378W        W45452  10.420   4.400  13.474  0.0345  0.2964  0.0501
29379W        W45453  10.167  10.229  13.113 -0.0139 -0.1761  0.0853
29380W        W45454   5.749   1.834  13.180 -0.1635  0.0258  0.0101
29381W        W45455  13.612  13.196   0.212 -0.2058 -0.2346  0.0131
29382W        W45456  17.760   7.051   5.147 -0.0623  0.2811  0.2511
29383W        W45457  14.604   0.013  15.284 -0.2384 -0.2057 -0.0979
29384W        W45458  17.165   7.995  15.326  0.0125  0.0324 -0.0831
29385W        W45459  11.245  10.648  11.252  0.2708 -0.0856 -0.1752
29386W        W45460  14.641   4.614   0.872 -0.2131 -0.1791  0.1290
29387W        W45461   6.884  10.978  14.236 -0.0286  0.1409  0.0041
29388W        W45462  15.801   5.883  11.365  0.0607 -0.1425  0.0681
29389W        W45463   9.915  11.174  11.231 -0.0990 -0.0750 -0.0786
29390W        W45464  15.684   3.922   1.664 -0.0165  0.0174 -0.2855
29391W        W45465  17.886   1.291   3.967 -0.2149  0.2630 -0.1890
29392W        W45466   7.989  13.851   5.834  0.0662  0.1397  0.4308
29393W        W45467  10.660  16.630  11.654 -0.1731  0.3034  0.0590
29394W        W45468  14.082  17.408   3.898 -0.1432  0.0548  0.1590
29395W        W45469  15.568   9.185   2.444 -0.1996  0.1069  0.1892
29396W        W45470  12.572   4.885   6.285 -0.1656 -0.1380 -0.1256
29397W        W45471  10.893  17.668  15.420 -0.4542 -0.3218 -0.1128
29398W        W45472  15.872   4.253   1.313  0.1438 -0.1207  0.0577
29399W        W45473   3.063  10.774   1.388  0.0088 -0.0696 -0.0099
29400W        W45474  17.286  13.347  16.131  0.1493  0.1535 -0.3637
29401W        W45475   1.902   3.561  16.340 -0.0043 -0.2436 -0.0643
29402W        W45476  17.167  16.380   2.757 -0.1388  0.1267  0.0584
29403W        W45477  12.660  17.423  14.794 -0.1805  0.2643 -0.2110
29404W        W45478  11.068  14.270  12.160 -0.3802 -0.1097  0.0330
29405W        W45479   0.240  11.800   4.231  0.2752  0.2362  0.3019
29406W        W45480   2.285   6.940  10.922  0.3493  0.2245  0.0550
29407W        W45481   1.740  10.696  11.248  0.1681 -0.1107  0.0332
29408W        W45482   8.885   7.948  13.523  0.0925 -0.2895  0.3481
29409W        W45483  11.855   8.426  14.346  0.2079 -0.0486  0.4479
29410W        W45484   8.999   2.930   0.746  0.0851 -0.0224 -0.0048
29411W        W45485  17.936  16.428  12.865  0.1592 -0.1317 -0.0216
29412W        W45486  13.740   1.679   3.593  0.0279 -0.0909 -0.0353
29413W        W45487  16.915   8.802  14.701  0.2253  0.1010 -0.2002
29414W        W45488  14.951  13.129  16.290 -0.1824  0.0501 -0.1466
29415W        W45489   3.946  12.881  14.954 -0.1540  0.0797  0.4573
29416W        W45490   1.278   0.143  12.317  0.4842  0.2585 -0.1239
29417W        W45491   1.610   3.731   2.546 -0.2875  0.2569  0.2684
29418W        W45492  10.260  10.055  14.796  0.1878 -0.0761  0.3577
29419W        W45493   4.348   9.823   0.554 -0.0441  0.0761  0.0333
29420W        W45494  12.619  10.810  11.211 -0.4175  0.0228  0.3510
29421W        W45495   5.535   1.467  12.421  0.4634  0.0013 -0.2938
29422W        W45496  14.464  10.866   4.581 -0.1945  0.0711  0.0221
29423W        W45497  12.144  11.415   3.777  0.1128  0.0832 -0.2708
29424W        W45498   0.937   0.793   2.543 -0.0667 -0.1332 -0.0700
29425W        W45499  18.000  17.789  14.585 -0.1736 -0.1572  0.2359
29426W        W45500   2.190   1.482  11.381  0.2540  0.1089  0.1483
29427W        W45501   3.524   8.680   2.379 -0.0556  0.1376  0.0160
29428W        W45502  13.240   2.495  14.513 -0.0210  0.0084  0.1230
29429W        W45503   5.688   4.602   5.352 -0.1222 -0.0462  0.1484
29430W        W45504   6.509  13.428   3.322  0.0750 -0.5452  0.1253
29431W        W45505  14.927   3.867   3.682  0.2163  0.0447 -0.0238
29432W        W45506   1.735   8.581  12.320  0.0738 -0.3471  0.0187
29433W        W45507  15.025   8.608   3.020  0.1730  0.3839  0.1604
29434W        W45508  16.991   0.199   2.172  0.5765 -0.3863  0.1817
29435W        W45509   2.218   6.491  15.963 -0.1695  0.1944  0.0075
29436W        W45510   6.906  16.310  13.964  0.0661 -0.1710  0.0999
29437W        W45511   0.245   4.713   1.528  0.0750  0.0372  0.2977
29438W        W45512   2.520   2.305  15.746  0.1066 -0.1301  0.0341
29439W        W45513   9.990  11.958   2.460 -0.0640  0.2819 -0.2988
29440W        W45514   3.596   7.154  12.140  0.0688 -0.1398 -0.0328
29441W        W45515   8.979  17.516   4.512  0.0330  0.3486 -0.1071
29442W        W45516  11.218   3.043   3.981  0.2120  0.1767 -0.4461
29443W        W45517   2.451   4.578  15.857  0.0483  0.0578  0.0572
29444W        W45518   0.744  15.009  15.053  0.1016 -0.1419 -0.0997
29445W        W45519  11.975   8.506   1.149 -0.2207 -0.0025 -0.0942
29446W        W45520  15.146   2.966  11.777 -0.1774 -0.2531  0.0179
29447W        W45521   4.273   3.129   5.240 -0.0283 -0.0254  0.1961
29448W        W45522  14.742   4.174  14.447 -0.1183  0.1160  0.0514
29449W        W45523  14.515  17.361  16.310  0.0658 -0.0009 -0.0500
29450W        W45524   9.205  12.844   3.140  0.1524  0.1636  0.3593
29451W        W45525   5.605  14.378   1.482 -0.2819  0.1052  0.2382
29452W        W45526   2.959  16.588   0.114  0.0772 -0.3412 -0.1852
29453W        W45527   7.580  14.107  12.090  0.2413  0.2831 -0.3379
29454W        W45528   5.031  12.624  13.844  0.1325 -0.0548 -0.0631
29455W        W45529  10.529  10.971   2.751  0.0698  0.1359 -0.1359
29456W        W45530   5.752  10.677  13.036  0.0583  0.0160  0.1843
29457W        W45531   5.126   8.452   0.558  0.2404 -0.1864  0.0460
29458W        W45532  13.855   4.008   6.251  0.0061 -0.1284  0.1332
29459W        W45533  17.579   2.286  16.114 -0.2759  0.0171 -0.1664
29460W        W45534  12.445   4.365  11.526  0.0206  0.0969  0.2226
29461W        W45535   2.800   5.457   2.429  0.2344 -0.0183 -0.1876
29462W        W45536   1.147   4.553   2.285  0.1497  0.0473  0.1176
29463W        W45537  14.086  13.145  11.635 -0.0374  0.0801 -0.2101
29464W        W45538  15.463   0.982  13.189 -0.1733  0.1512  0.2891
29465W        W45539   2.074  14.929  11.481 -0.1985 -0.0565 -0.0737
29466W        W45540   0.303   3.428  11.141  0.0077 -0.3840  0.1546
29467W        W45541  14.947  10.105   0.409  0.0868  0.2024  0.3545
29468W        W45542  15.394  17.937   3.879  0.0032  0.0949 -0.0373
29469W        W45543  16.589  15.121   2.819 -0.0888  0.0638  0.1049
29470W        W45544  10.676   6.535   4.092 -0.1857 -0.3105  0.1185
29471W        W45545  15.883  11.497  14.272 -0.1662 -0.0405  0.0122
29472W        W45546   0.773  17.129  12.516  0.2339 -0.0966  0.0151
29473W        W45547   0.914  14.816  13.585 -0.1286 -0.1130  0.0127
29474W        W45548  10.888  15.019  13.624  0.1183  0.1525 -0.3959
29475W        W45549  10.531  12.023  15.545  0.1088  0.0522  0.1673
29476W        W45550   2.584  11.399  15.760 -0.0568  0.0100 -0.2002
29477W        W45551   7.115  13.788  16.413 -0.1000  0.0430  0.0129
29478W        W45552  15.290   9.970   1.197  0.2202  0.2769  0.0403
29479W        W45553  13.079  12.669  13.496  0.1071  0.0540  0.2680
29480W        W45554  13.629  13.364   5.499 -0.1792 -0.2332 -0.0455
29481W        W45555  17.946   9.332  16.248 -0.2181 -0.1625  0.1617
29482W        W45556   8.004   0.377   1.799  0.1147  0.4596 -0.0695
29483W        W45557   7.743   3.272   3.672 -0.2101  0.0206  0.2277
29484W        W45558  11.295  14.431   5.701  0.0524 -0.0527  0.1751
29485W        W45559  14.293   3.639  13.781 -0.0782  0.0685 -0.3417
29486W        W45560  10.181  10.788  13.365 -0.0013 -0.1166  0.3535
29487W        W45561   6.750  11.379   0.368 -0.1520  0.2296 -0.2551
29488W        W45562  16.290   7.361   3.332  0.0723 -0.4487  0.0691
29489W        W45563   9.936  16.916   4.519 -0.1492  0.0449 -0.5327
29490W        W45564  16.499  14.827  15.755  0.0596 -0.0660  0.0609
29491W        W45565   3.032   2.503   2.709  0.2605 -0.0334 -0.1853
29492W        W45566   7.100  14.353  12.008 -0.4764  0.1296 -0.1128
29493W        W45567  16.015   7.172  12.616 -0.0363 -0.0642  0.1480
29494W        W45568   5.787   1.223   2.721 -0.2631  0.0102 -0.0071
29495W        W45569   0.895  17.955   0.735  0.2639 -0.1284 -0.1926
29496W        W45570   1.735   7.916  11.748 -0.0519 -0.0594  0.0633
29497W        W45571  17.660   7.188   0.941  0.0082  0.1189  0.1551
29498W        W45572   0.779  15.494  14.818  0.0077  0.2503  0.0337
29499W        W45573  15.246   6.964   1.436  0.2075  0.2389 -0.1386
29500W        W45574   8.709   5.596   5.499 -0.0556 -0.1256 -0.0381
29501W        W45575  16.517   8.353   2.255  0.1609 -0.0331  0.1471
29502W        W45576  15.526  15.042   0.577  0.0816 -0.0864  0.0860
29503W        W45577   8.526  12.327  14.036  0.1555  0.1285  0.2417
29504W        W45578   6.665   2.025   4.932  0.0461  0.3902 -0.1373
29505W        W45579   2.486  16.224  15.014 -0.0087  0.1063  0.3553
29506W        W45580   9.878   0.186  11.632 -0.6864  0.1768  0.0801
29507W        W45581   4.120   5.368   1.201  0.4007 -0.1631  0.0246
29508W        W45582  17.915   9.824   3.997  0.0693 -0.2486  0.0015
29509W        W45583  10.373  11.760  14.389  0.0704 -0.0449  0.2497
29510W        W45584   2.984   8.396   1.507  0.2912 -0.0400  0.0328
29511W        W45585   0.319  16.074   2.793 -0.0101 -0.0749  0.0872
29512W        W45586   9.302  13.508  15.638  0.0599 -0.1817 -0.2021
29513W        W45587   9.763   5.457  12.669  0.1919 -0.1726 -0.0934
29514W        W45588   8.685  15.624  12.983 -0.0782 -0.1561  0.2001
29515W        W45589  14.934   1.748  15.951  0.0339  0.1130  0.0364
29516W        W45590   5.119   4.863  16.371 -0.2964  0.1615  0.0745
29517W        W45591  12.304   3.206  14.009 -0.0021  0.4261 -0.1768
29518W        W45592  10.088   3.073   5.308 -0.1221 -0.1198  0.2016
29519W        W45593   1.306  17.163   1.046  0.2373  0.0651  0.1483
29520W        W45594   2.131   4.049   3.553 -0.4723  0.1232  0.2617
29521W        W45595   7.770  14.573   0.796  0.0905  0.0521  0.2201
29522W        W45596  11.587   2.696   2.153 -0.0244  0.2298  0.0220
29523W        W45597   6.362  10.581   4.093  0.0984 -0.0579  0.2810
29524W        W45598  13.329  15.036  14.412 -0.2118 -0.0906  0.0674
29525W        W45599  13.991  18.070  16.417 -0.1753 -0.1840  0.0627
29526W        W45600   5.012   7.298  14.527  0.0418  0.2692  0.1317
29527W        W45601  13.025  15.859  14.610 -0.0744  0.0976 -0.2028
29528W        W45602   9.919  14.051  15.737 -0.1169 -0.0179  0.0571
29529W        W45603  12.719   0.889  13.154  0.0220 -0.0625 -0.1731
29530W        W45604  13.803   7.782   1.728  0.0741  0.1413  0.3361
29531W        W45605   6.315  17.159   0.692  0.1526 -0.2007 -0.0731
29532W        W45606  10.733   8.142   2.087 -0.2087 -0.1523 -0.0504
29533W        W45607   3.947  10.046   3.731  0.1212  0.0858  0.1768
29534W        W45608  10.860  16.542   6.323 -0.1621  0.0300 -0.0305
29535W        W45609   5.537   2.000  14.550  0.2814 -0.0134 -0.1754
29536W        W45610  12.347  18.182   3.434  0.0760 -0.2407  0.2596
29537W        W45611   0.826  15.828   2.579  0.2285  0.1861  0.0172
29538W        W45612  12.186  18.072   5.180 -0.3424 -0.0018  0.0047
29539W        W45613   5.987   5.416   1.265  0.3337  0.1226 -0.0347
29540W        W45614  17.676  17.357   1.490 -0.2030  0.0452 -0.1028
29541W        W45615   8.938   1.803   3.888  0.0418 -0.0555  0.0805
29542W        W45616  17.721  15.839   0.576  0.1896 -0.0398 -0.0623
29543W        W45617  17.219   0.138   5.357  0.0647  0.0951 -0.1546
29544W        W45618   5.774  17.929   2.843  0.2018 -0.0219  0.0765
29545W        W45619   0.786  14.369   5.849  0.1264 -0.2385 -0.2100
29546W        W45620   1.586   4.545  11.502  0.0929 -0.0827  0.1648
29547W        W45621   7.361  10.107   1.311  0.1062  0.2463  0.0053
29548W        W45622   5.397  10.434   2.020  0.1581  0.1133  0.2051
29549W        W45623  12.584  12.610  15.531  0.2896  0.1110  0.2460
29550W        W45624  13.878  14.713  13.569  0.0441  0.4936 -0.1372
29551W        W45625   1.159   5.152  13.346  0.1182  0.0529  0.3197
29552W        W45626   2.403   4.107   4.899 -0.0657  0.1155  0.0618
29553W        W45627  12.178   9.904  15.009 -0.0256  0.3509  0.3375
29554W        W45628   6.322  15.512   0.128  0.0306  0.1044  0.3767
29555W        W45629  11.545   5.966   3.412 -0.0949  0.2364  0.0874
29556W        W45630   6.147  13.964  15.164  0.1346 -0.3519 -0.0995
29557W        W45631   0.499   9.741  14.217 -0.3343 -0.1700  0.0115
29558W        W45632  14.920  16.599   3.347  0.1925  0.2121 -0.2758
29559W        W45633   9.633   9.943   1.932 -0.2316  0.2959 -0.1640
29560W        W45634  11.451  13.145  13.526 -0.0191 -0.4466  0.2341
29561W        W45635   5.930   7.727  13.199 -0.1896  0.0841 -0.4577
29562W        W45636   1.944  15.939   0.584  0.1273 -0.0062  0.0069
29563W        W45637   4.136   0.121   3.469  0.0337 -0.5640  0.0827
29564W        W45638  16.338   9.392  11.007  0.1678  0.2138 -0.3209
29565W        W45639  13.806   9.335   4.926  0.0059 -0.1499  0.3572
29566W        W45640  15.992   8.096  12.695 -0.3158 -0.5408  0.3252
29567W        W45641  17.480   1.691  14.237  0.1017  0.0882  0.0506
29568W        W45642   4.616  10.477  12.182 -0.0657  0.1468 -0.0278
29569W        W45643  18.159   3.134  13.131  0.1746 -0.1206 -0.1451
29570W        W45644   7.017  16.341   2.986  0.1341 -0.0392 -0.1307
29571W        W45645   1.115  13.612  11.514  0.0433 -0.0462 -0.0456
29572W        W45646  18.034   7.625  12.588 -0.3254  0.0673 -0.3477
29573W        W45647   7.437  16.835  14.621  0.1258  0.1170  0.0103
29574W        W45648   6.763   8.484   0.452 -0.2154 -0.2027  0.2575
29575W        W45649  10.224  13.681   0.449 -0.2172  0.0079  0.0853
29576W        W45650  11.416  16.238  14.456  0.0463  0.1128  0.4004
29577W        W45651   6.022  14.791  12.359  0.3779 -0.1796  0.1333
29578W        W45652   4.677   3.155  15.864 -0.0176  0.1803 -0.0287
29579W        W45653  11.929  11.273  15.541  0.2371 -0.1863  0.0122
29580W        W45654  13.416  16.273  13.454  0.3335  0.1919  0.0805
29581W        W45655   4.641  13.721   4.167 -0.2107  0.1330 -0.0537
29582W        W45656  11.242  13.576   6.401  0.1511  0.0300 -0.0353
29583W        W45657  10.641   2.550   2.042  0.0237 -0.1231  0.0665
29584W        W45658   3.257   4.328   5.358 -0.2380  0.3379  0.1317
29585W        W45659   5.585   5.201   1.697 -0.1643  0.0422  0.2668
29586W        W45660  16.199  15.314  15.852  0.3815  0.2168  0.1837
29587W        W45661  13.291   0.805   1.622  0.0618  0.2231  0.2529
29588W        W45662   1.685   9.325   1.343 -0.0835  0.1605  0.1262
29589W        W45663  12.535   0.949  14.497 -0.0695  0.1497 -0.4873
29590W        W45664  10.213  17.427   3.279  0.2877  0.2927 -0.2312
29591W        W45665  15.822   1.655   3.684  0.0178  0.0498 -0.3057
29592W        W45666   0.916   1.435  11.331 -0.2553 -0.1373  0.0160
29593W        W45667   4.809   1.426  15.440 -0.0249  0.1402 -0.2229
29594W        W45668  16.981   5.275   4.368  0.0424 -0.1983 -0.2888
29595W        W45669   0.260  15.083   4.590 -0.0984 -0.0027  0.0271
29596W        W45670   2.826   1.593   4.598 -0.0561 -0.4093 -0.0283
29597W        W45671  15.848  13.303  13.158  0.1646 -0.2363  0.3219
29598W        W45672   9.963   8.960  15.145  0.0982  0.0260 -0.1634
29599W        W45673   1.125  17.539   0.549  0.0881 -0.3907  0.0888
29600W        W45674   3.543  15.845  15.474  0.0942  0.1421  0.1293
29601W        W45675   9.014   5.372   2.581 -0.1260  0.0626  0.1681
29602W        W45676   1.107  11.973  14.782 -0.0868  0.1645  0.2740
29603W        W45677   5.581  10.966   1.116  0.2947  0.0921  0.2072
29604W        W45678   7.366  14.088  14.464  0.0627 -0.2270  0.1144
29605W        W45679   0.321   2.624  11.513  0.1717  0.2717 -0.3126
29606W        W45680   9.064   0.507  14.709 -0.0843 -0.2921 -0.1246
29607W        W45681   7.335  16.387   1.262 -0.1790 -0.0277  0.3583
29608W        W45682  11.255   1.524   2.691 -0.0667  0.1941 -0.2442
29609W        W45683   0.441  10.725   2.237  0.2098  0.3918  0.0712
29610W        W45684   9.816   3.626  11.652  0.0933 -0.0072 -0.0204
29611W        W45685   9.951  13.067  10.775 -0.2534 -0.1827  0.1208
29612W        W45686   7.257   9.949   1.783 -0.1389 -0.4418 -0.2900
29613W        W45687   5.675   0.145   4.442  0.1745  0.1787  0.0829
29614W        W45688   6.412   8.587  13.257  0.0395 -0.3040 -0.1388
29615W        W45689  16.898  11.851   1.867 -0.1152 -0.3434  0.2831
29616W        W45690  17.037   7.541  13.564  0.0565 -0.1170  0.0240
29617W        W45691   3.439  16.834   5.897 -0.4526 -0.0705 -0.1814
29618W        W45692   1.836  13.225  15.835 -0.0443 -0.2760  0.1240
29619W        W45693  13.349  14.376   5.363 -0.1960  0.2253 -0.0362
29620W        W45694  12.006   5.350  14.768 -0.3232 -0.0793  0.1778
29621W        W45695  17.466  16.441   3.208  0.2978 -0.1517 -0.0275
29622W        W45696  18.106   4.423   3.797  0.2228 -0.0886 -0.2045
29623W        W45697  13.322  17.984   4.000 -0.0530  0.0841 -0.2426
29624W        W45698   1.869  12.031   3.973 -0.3028  0.2198  0.2146
29625W        W45699   7.861  13.544  11.549 -0.1436 -0.1361  0.1981
29626W        W45700  10.989  17.422   1.894  0.1047 -0.2530  0.3630
29627W        W45701  15.644   3.975   3.932 -0.1026  0.1553  0.1623
29628W        W45702  11.592   0.627  16.056  0.1908  0.1076 -0.3073
29629W        W45703   6.245  15.555   2.458 -0.0501 -0.1502  0.2825
29630W        W45704   2.707   8.724  13.964 -0.1943 -0.2720  0.3000
29631W        W45705   3.398   6.893  14.193 -0.1754 -0.2137 -0.1244
29632W        W45706   2.421  12.197   4.597  0.0639  0.0931  0.1501
29633W        W45707   2.330  17.602  14.132  0.1893  0.1197 -0.0642
29634W        W45708   4.469   8.939  13.632  0.1225  0.1965  0.1259
29635W        W45709   6.561   8.932   2.968 -0.2681  0.0873  0.0598
29636W        W45710   6.234  10.577   0.853 -0.1108  0.3434  0.3223
29637W        W45711  11.462   9.075  11.435 -0.0491  0.0024 -0.0587
29638W        W45712   6.947   0.711  12.325  0.2651 -0.0977  0.1400
29639W        W45713  14.313   7.642   4.280  0.1720  0.2085 -0.3938
29640W        W45714  16.412   9.664   2.163 -0.1921 -0.2018 -0.1078
29641W        W45715  13.372   4.399  12.328  0.1449 -0.0807  0.1946
29642W        W45716  11.515   0.369   5.675 -0.1572  0.0808 -0.1517
29643W        W45717   5.668   3.462  12.184 -0.0354  0.2051  0.0995
29644W        W45718   4.950  16.433  12.791 -0.0308  0.0706 -0.1241
29645W        W45719   9.538  13.814   4.706 -0.0376 -0.2385  0.0590
29646W        W45720   0.190  14.247  15.017  0.1465  0.0193 -0.0509
29647W        W45721   8.696   5.261  16.242 -0.0823  0.0484 -0.0986
29648W        W45722  11.659   5.240   5.719  0.0990 -0.0974 -0.1003
29649W        W45723   1.705  10.426   2.746 -0.0431  0.0687 -0.0985
29650W        W45724   4.307   3.184   5.717  0.0536 -0.1156  0.3915
29651W        W45725  16.084   6.955   3.350 -0.1527  0.3487  0.0275
29652W        W45726   5.779  16.189   0.190  0.3633  0.0242 -0.0517
29653W        W45727  16.550   0.992   2.203  0.0619  0.0333 -0.1122
29654W        W45728   7.310   9.309   0.238  0.0742 -0.1618  0.2626
29655W        W45729   5.243   9.575   0.688  0.0180  0.1382 -0.1322
29656W        W45730  16.812   6.936   5.285 -0.1319 -0.0938  0.0418
29657W        W45731  14.872   5.798   4.090  0.2520 -0.2871 -0.0946
29658W        W45732   9.932  17.183   1.372 -0.1581  0.2121 -0.3056
29659W        W45733  12.402   8.848   5.735 -0.0257  0.0604  0.3964
29660W        W45734  14.281   3.529   2.592 -0.1033 -0.1846 -0.0576
29661W        W45735  16.119   8.906   5.110 -0.5006  0.0281  0.0617
29662W        W45736  13.463   5.424   4.733  0.0528 -0.2709  0.1514
29663W        W45737   5.391   8.968   4.441 -0.0858 -0.1893 -0.1040
29664W        W45738  15.202   3.976  13.740  0.1426  0.1144  0.5492
29665W        W45739  11.887  16.952  13.189  0.0423  0.0770  0.2348
29666W        W45740  16.546   9.448   4.294 -0.1298 -0.2649  0.0787
29667W        W45741   4.384  12.646   3.029 -0.2250 -0.3292 -0.2614
29668W        W45742   4.385  11.943   5.275 -0.0622 -0.1605  0.1637
29669W        W45743   4.187   6.532   4.206  0.1722  0.0841  0.1295
29670W        W45744   0.004   0.820   2.122  0.4066 -0.2003 -0.0102
29671W        W45745   2.456  10.364   2.298 -0.0416  0.0115  0.5200
29672W        W45746   8.645   5.083   0.772  0.1820  0.1729 -0.1821
29673W        W45747  11.162  17.375  13.672  0.1311  0.0466  0.1223
29674W        W45748   7.673   1.377   2.234 -0.2026  0.0117 -0.1329
29675W        W45749  12.254   0.508  11.394  0.0378  0.0949 -0.1806
29676W        W45750   8.854   3.447   3.760  0.0600  0.2334  0.2403
29677W        W45751   9.722   0.961   0.024  0.0726  0.4009 -0.0856
29678W        W45752   1.060  16.143  13.794 -0.1195 -0.2907 -0.1015
29679W        W45753  12.655   5.190  13.526  0.0905 -0.0435  0.0689
29680W        W45754   7.167  15.657   1.165 -0.0197 -0.0526 -0.1933
29681W        W45755  14.375  16.380   2.143  0.2959  0.1883  0.0249
29682W        W45756   8.279  13.464   6.041 -0.0573 -0.0274  0.2164
29683W        W45757   2.095   1.980   1.718 -0.1334  0.2737 -0.0543
29684W        W45758  12.026  12.291   4.914  0.0718 -0.1101  0.0647
29685W        W45759   4.679   0.692  14.876  0.2372  0.1526 -0.4085
29686W        W45760   4.488  10.091  15.369 -0.1689  0.1107 -0.1866
29687W        W45761  10.762  12.475  15.303 -0.0933 -0.0303  0.1016
29688W        W45762   8.027   5.369   2.071 -0.3559  0.1485  0.3088
29689W        W45763  11.568   3.254   0.304  0.1154  0.0305  0.2739
29690W        W45764   9.788   1.199   5.996 -0.0612 -0.0934  0.2937
29691W        W45765   6.637  15.145  16.426 -0.0212  0.0896 -0.2696
29692W        W45766   5.319   6.512  15.062  0.0525 -0.1994  0.1686
29693W        W45767   7.147  17.898   2.204 -0.1191 -0.1419  0.0508
29694W        W45768  13.163   6.188  14.922 -0.1908 -0.0748 -0.1184
29695W        W45769   8.658  14.242   4.541 -0.0442  0.2189  0.1089
29696W        W45770  13.614  13.493  14.941 -0.4208  0.0491  0.1043
29697W        W45771   4.126   4.145  12.949 -0.1540  0.1224  0.0598
29698W        W45772   7.162  10.750  11.052  0.0867 -0.2016 -0.1072
29699W        W45773   3.425   1.433  15.666  0.0569  0.0271  0.0272
29700W        W45774   6.038  11.341   3.823 -0.2924 -0.1044 -0.0320
29701W        W45775   2.425   5.195   2.173 -0.1246 -0.0514 -0.0925
29702W        W45776   3.814   5.352  11.447 -0.0782  0.0749  0.2647
29703W        W45777   5.432   6.686   2.920  0.1407  0.1184 -0.2150
29704W        W45778  17.263   6.878   5.451  0.0065  0.0435  0.3329
29705W        W45779   1.993  14.337   2.335  0.0914  0.0672 -0.1442
29706W        W45780   0.112  11.463  14.550 -0.1216  0.2946 -0.4298
29707W        W45781  15.091   7.829   4.749 -0.2143 -0.0816  0.0486
29708W        W45782   5.125   6.154   0.829 -0.5084 -0.0541 -0.0201
29709W        W45783  14.440  15.279   5.702 -0.1667  0.1262  0.2375
29710W        W45784   4.685  13.389   5.184  0.4137 -0.0929 -0.3102
29711W        W45785   5.196  10.932  15.863 -0.4170  0.1665 -0.1348
29712W        W45786   4.740   2.962  12.171 -0.0997 -0.3202 -0.3223
29713W        W45787  14.815   2.963  12.355  0.0417 -0.1438 -0.1112
29714W        W45788   2.089  10.116  15.917  0.1608 -0.1502  0.0178
29715W        W45789   0.802   8.455   3.914 -0.1178  0.1263 -0.1954
29716W        W45790   4.041   2.124   5.344  0.0275  0.3049  0.0407
29717W        W45791   9.007   3.746   3.174 -0.0399  0.2930 -0.4987
29718W        W45792  14.739  10.876  12.578  0.2054 -0.1349 -0.0593
29719W        W45793   4.053   4.894  16.174 -0.3985  0.3096 -0.0985
29720W        W45794  12.226   6.556   0.344 -0.1714 -0.2389  0.0862
29721W        W45795   5.054   2.627   4.031  0.4593 -0.1498 -0.0415
29722W        W45796   4.864   1.173  14.669  0.0304  0.0126  0.0026
29723W        W45797  11.099   1.587  12.860  0.1002 -0.0226  0.0776
29724W        W45798  14.062   6.066  15.255 -0.1771 -0.0572  0.0535
29725W        W45799  15.346  13.290   0.463  0.1180  0.1046  0.1649
29726W        W45800   7.043  14.976  14.348 -0.1770 -0.1785  0.0541
29727W        W45801   5.250   2.785   5.567 -0.0154  0.0246  0.2235
29728W        W45802   6.276   1.671   5.075 -0.0619 -0.0541  0.0552
29729W        W45803  15.837   5.110   0.073 -0.0134 -0.1542  0.2439
29730W        W45804   3.562   1.569   3.823 -0.0119  0.1138  0.3596
29731W        W45805   3.025  14.197  12.313  0.1536  0.4073  0.0496
29732W        W45806   0.857  11.781  12.787  0.1605  0.1164 -0.1455
29733W        W45807   8.608  10.840  12.829 -0.1915 -0.0518  0.3847
29734W        W45808  16.569  16.889  15.216 -0.5017  0.2392  0.0283
29735W        W45809  17.694   4.768  14.303  0.0826  0.3323 -0.0625
29736W        W45810   9.363   0.771  14.299 -0.1297  0.4391  0.1654
29737W        W45811   3.287   6.453  13.508  0.0427  0.1413 -0.0753
29738W        W45812   7.530   5.669   2.180 -0.1793 -0.4410  0.1075
29739W        W45813  16.551  15.756   5.414 -0.3170 -0.0425 -0.0997
29740W        W45814   9.131   7.581  15.479 -0.3396  0.2246 -0.1896
29741W        W45815   8.261  14.854   1.655 -0.0069 -0.2062 -0.1394
29742W        W45816   2.254   2.094   5.058  0.0091  0.0078 -0.0326
29743W        W45817   8.906   6.787   5.001  0.0130 -0.0374  0.1336
29744W        W45818  10.636   2.080   2.874 -0.1127 -0.2375 -0.2009
29745W        W45819  15.584   7.506  14.301 -0.0193 -0.1209 -0.0283
29746W        W45820   0.305  15.168  11.354  0.1229 -0.1828  0.2441
29747W        W45821   5.723   1.733   3.337 -0.3543 -0.1950  0.2056
29748W        W45822  16.855  10.790   3.630  0.0092 -0.0307  0.0758
29749W        W45823  16.161  12.768  13.446 -0.0281 -0.6197  0.1619
29750W        W45824   7.466   4.683   0.446 -0.2474 -0.0258  0.3936
29751W        W45825   8.100   9.035  12.151  0.3311  0.2488  0.0892
29752W        W45826  12.120   8.421   2.987 -0.6305 -0.1197  0.3826
29753W        W45827   3.638   2.198  14.787 -0.2397  0.0853  0.1791
29754W        W45828  10.649  10.182  11.799  0.0090 -0.2000  0.3003
29755W        W45829   9.768   3.289  13.472  0.0360  0.1517  0.3486
29756W        W45830   5.289  17.457   6.267 -0.1599  0.2038 -0.4634
29757W        W45831  10.912  15.338   2.076 -0.1957 -0.1855 -0.1821
29758W        W45832  14.953  16.393  14.685 -0.1115  0.4499 -0.0471
29759W        W45833   9.161  13.461  15.045 -0.0941  0.1933  0.3609
29760W        W45834   1.618  16.358   1.317 -0.0656  0.0036 -0.1377
29761W        W45835  15.486   9.583  10.416  0.2625 -0.1544  0.1546
29762W        W45836  13.693   4.896  14.945 -0.1911  0.1056 -0.1362
29763W        W45837  11.910  11.652   4.282 -0.0165 -0.0909 -0.1436
29764W        W45838   0.806   5.756   5.151 -0.1171 -0.3584  0.0166
29765W        W45839   6.141   4.459  14.924 -0.2091  0.0326 -0.0044
29766W        W45840   6.079  14.875   5.410 -0.3664  0.1544  0.0386
29767W        W45841   5.107   0.015   2.853 -0.0545  0.0695 -0.0051
29768W        W45842   3.354  15.031   2.261  0.1821 -0.1770 -0.3834
29769W        W45843  11.233   1.086  14.576  0.1018  0.3750  0.1727
29770W        W45844   0.418   3.198  13.004  0.1400  0.1691 -0.3853
29771W        W45845   3.234  14.809   5.229 -0.0229 -0.0950 -0.1318
29772W        W45846   2.005  12.395   1.057 -0.1615  0.3059  0.0730
29773W        W45847  11.591  12.635  12.684 -0.3048 -0.1798 -0.1150
29774W        W45848   5.807   6.291   1.361 -0.0100  0.2202 -0.3156
29775W        W45849  11.569   0.366   4.305 -0.0615  0.1038 -0.0694
29776W        W45850  14.545   6.210  14.096  0.1036 -0.3255 -0.2325
29777W        W45851  13.024   1.203  13.520 -0.1966 -0.2038  0.3885
29778W        W45852  12.322  17.529   2.567 -0.0680 -0.1209  0.0415
29779W        W45853   0.064  17.019   0.316 -0.1035  0.0269 -0.1097
29780W        W45854  15.353  11.813  15.251  0.2262 -0.2600 -0.2165
29781W        W45855   5.529   8.333   0.869 -0.2471 -0.0951 -0.2193
29782W        W45856   1.879  11.773   1.923  0.0453  0.0680  0.1632
29783W        W45857   5.835  14.287  13.423 -0.1636 -0.0186 -0.0541
29784W        W45858  11.371  13.480   5.904  0.0659 -0.3840 -0.0201
29785W        W45859  12.499   7.508   5.882  0.2006 -0.0684  0.2061
29786W        W45860  14.307  14.529   5.179  0.0296  0.1221  0.3946
29787W        W45861   8.607   4.102  14.093 -0.0513  0.0049 -0.1867
29788W        W45862  13.024   7.804  11.717 -0.4103  0.1532 -0.1567
29789W        W45863   2.298  14.594   0.863  0.3113  0.1644 -0.4629
29790W        W45864  15.158   9.358   0.890  0.0434  0.1465 -0.1836
29791W        W45865   9.071   8.843   0.181  0.1301 -0.4455 -0.2794
29792W        W45866   3.218   4.883   4.548 -0.1747 -0.2256 -0.3308
29793W        W45867  17.368  13.737   0.588  0.0637  0.1151  0.1771
29794W        W45868  13.443   4.613   2.234  0.3441  0.0159 -0.0332
29795W        W45869   5.510  16.687   2.494 -0.0818  0.0241  0.0840
29796W        W45870  12.801   7.808  14.176 -0.0005 -0.0221 -0.0094
29797W        W45871  11.003   2.429   3.067 -0.2269  0.0087  0.3854
29798W        W45872  14.543   6.484   3.505  0.1792 -0.0590 -0.3179
29799W        W45873  11.850  14.731  14.115  0.0102  0.0232 -0.1925
29800W        W45874   5.297   1.229   2.336  0.0709  0.0938 -0.1725
29801W        W45875   3.901   2.670  13.110 -0.2172  0.2127  0.5656
29802W        W45876   0.963  14.242  16.110 -0.2030  0.1645 -0.0139
29803W        W45877   5.802   0.471  13.195  0.1067 -0.0704 -0.4912
29804W        W45878   3.681  12.929  14.126  0.0222  0.0070 -0.3404
29805W        W45879  16.804   3.171  13.525  0.1978  0.0435 -0.0569
29806W        W45880  11.449   7.211  12.551  0.0224  0.0796 -0.0505
29807W        W45881  17.784  16.386  12.383  0.1704  0.0636 -0.0186
29808W        W45882  12.220  13.167  16.086 -0.2403 -0.0649 -0.0064
29809W        W45883   9.390   3.017   0.237 -0.3169 -0.0394  0.0567
29810W        W45884  12.392   1.562   6.268  0.0770 -0.1595  0.2700
29811W        W45885  11.298  16.258   1.115 -0.1429  0.0967 -0.3786
29812W        W45886   2.660   5.698  12.267 -0.0216  0.1250  0.1687
29813W        W45887   8.087   5.615   4.398  0.0232 -0.2495  0.1784
29814W        W45888   8.311   1.237  13.151 -0.0599  0.1971 -0.0805
29815W        W45889   6.855   5.281   5.655  0.4073  0.2631  0.0399
29816W        W45890   4.987   6.233  12.399  0.0635  0.0148  0.2320
29817W        W45891   8.621   6.283   4.119 -0.0050  0.0442 -0.0443
29818W        W45892  14.405  12.255   3.340 -0.0332 -0.1613  0.0616
29819W        W45893  14.333  17.073  13.859 -0.1195 -0.1959 -0.0186
29820W        W45894   5.532  12.096   4.126 -0.1012 -0.2416 -0.1211
29821W        W45895   1.270   5.276   1.540  0.1828  0.1083  0.2041
29822W        W45896  16.229   0.380   1.572  0.0042  0.1243 -0.2318
29823W        W45897   2.456   7.542  11.345 -0.1749  0.1996 -0.0721
29824W        W45898   9.209   1.028   5.702 -0.1326 -0.0650  0.1866
29825W        W45899   2.156  17.664  14.990  0.1384 -0.1286 -0.1980
29826W        W45900   7.444  17.616   1.177  0.2673 -0.2609 -0.2776
29827W        W45901  16.818  10.507   1.926  0.2086 -0.1331 -0.0607
29828W        W45902   1.053   2.351   0.090 -0.1184 -0.2350  0.1143
29829W        W45903   0.862   5.856   6.355 -0.3542  0.0870  0.0272
29830W        W45904  11.232  13.929   4.893 -0.1128 -0.1524 -0.1836
29831W        W45905  13.613   1.830   0.447  0.1126  0.0004  0.0298
29832W        W45906  13.763   3.812   5.251  0.0658  0.1280 -0.2209
29833W        W45907   8.873  14.250  13.143 -0.2778 -0.0295 -0.1085
29834W        W45908   5.901  13.508  11.708 -0.0692  0.1052 -0.0965
29835W        W45909   1.183  11.488   0.894  0.2888  0.1674 -0.0084
29836W        W45910   5.892   1.154  16.331  0.2378  0.1322  0.2863
29837W        W45911  11.431  11.485   0.626  0.2746 -0.0725  0.2331
29838W        W45912  18.009   0.723   2.677 -0.4049 -0.1235 -0.2386
29839W        W45913  13.077   5.557   3.389 -0.0833  0.0539  0.1110
29840W        W45914   9.367   5.586  13.121 -0.2077  0.2363  0.0923
29841W        W45915   9.695   5.197  12.032 -0.2702 -0.1478  0.0045
29842W        W45916  15.947  18.153   5.040  0.0462  0.0412 -0.2220
29843W        W45917  10.827  15.463  11.921 -0.0093 -0.2032 -0.1191
29844W        W45918  11.293  12.132   3.874  0.3597 -0.0471 -0.0179
29845W        W45919   3.140   3.691   4.973 -0.0646  0.1745  0.3540
29846W        W45920   3.264   7.560  13.861  0.1806  0.0263  0.2669
29847W        W45921  16.944  14.708  13.838  0.2650  0.0800 -0.2804
29848W        W45922  13.422  12.819  16.369  0.0592 -0.1425 -0.0570
29849W        W45923   3.331  10.753  15.880  0.0756  0.2647 -0.0380
29850W        W45924   9.119  10.505   2.305  0.1175  0.1633  0.1773
29851W        W45925  12.401   6.941   0.079 -0.0815 -0.2985  0.0991
29852W        W45926  11.445   9.226   2.721 -0.1182  0.1114 -0.0123
29853W        W45927   3.602   5.207   4.455 -0.1080  0.0349 -0.1194
29854W        W45928   2.909   3.852   1.132 -0.0687 -0.1628  0.0621
29855W        W45929   7.965   6.741  11.536  0.2096 -0.1022 -0.2542
29856W        W45930  17.767   9.927  11.701  0.0922 -0.0317  0.1582
29857W        W45931  14.234  15.637  15.593  0.0113 -0.2688 -0.2822
29858W        W45932  17.101  13.353  11.268  0.1421 -0.4781  0.0437
29859W        W45933   4.785   1.749   3.582  0.0101 -0.1968  0.0260
29860W        W45934   8.985   3.037  16.377 -0.0901 -0.0030 -0.1085
29861W        W45935   2.520   9.394   1.285  0.4030 -0.2909  0.2788
29862W        W45936   4.123   3.614  12.907 -0.0077  0.3051 -0.0303
29863W        W45937   3.852   1.813   3.411 -0.0415 -0.0727 -0.1097
29864W        W45938  11.866   6.791   5.016 -0.0659 -0.1874 -0.2584
29865W        W45939  17.979   4.465   4.283  0.3901 -0.0106 -0.5031
29866W        W45940  10.937   7.577   4.323  0.2057  0.0189 -0.1362
29867W        W45941  10.757   3.357  12.089  0.3801  0.0335  0.1019
29868W        W45942  13.893  11.096   0.830 -0.1297  0.2524  0.0647
29869W        W45943  12.430  13.618  16.236 -0.1871  0.3353  0.2855
29870W        W45944   9.551  11.747   5.300  0.0797 -0.0161 -0.1197
29871W        W45945  16.671  16.826  10.878  0.0927  0.1938  0.0886
29872W        W45946  16.754  14.770   3.110  0.1203 -0.1451 -0.0695
29873W        W45947  11.065  10.880   1.326  0.3494  0.0095  0.2255
29874W        W45948  12.390  16.638   4.837 -0.1888  0.0385  0.2145
29875W        W45949  17.995  13.323   0.975 -0.1740 -0.1710  0.1199
29876W        W45950   7.044  12.799   2.137  0.0806  0.0481 -0.0776
29877W        W45951  12.382   7.547   2.178  0.0756 -0.1609 -0.0509
29878W        W45952   6.336  17.672   1.838 -0.0871 -0.1981  0.2104
29879W        W45953   4.374  16.629  14.184  0.2596 -0.1760  0.1843
29880W        W45954   6.130   6.119   1.820  0.0310  0.1475  0.0338
29881W        W45955   6.144  14.959  14.217 -0.0680 -0.1657 -0.0913
29882W        W45956   3.507  17.122  10.626  0.2729 -0.0011 -0.1269
29883W        W45957   1.857  12.459   3.728  0.1241 -0.0468 -0.4319
29884W        W45958   9.119  12.612  15.780  0.2930  0.0880  0.2680
29885W        W45959  10.412   8.098  16.120  0.1420 -0.1481 -0.2761
29886W        W45960   3.141  11.988   4.667  0.1793 -0.0450  0.1518
29887W        W45961  13.488   7.918   4.737 -0.1339  0.2490 -0.0943
29888W        W45962  17.694   7.717  13.997 -0.2702 -0.0377  0.1398
29889W        W45963   0.920  12.299  11.071 -0.5720 -0.1563 -0.0502
29890W        W45964  10.393   9.253  16.375 -0.2099 -0.1799 -0.0175
29891W        W45965  13.351   0.505   5.177  0.1151 -0.0491  0.1348
29892W        W45966  13.892  13.685  15.642  0.0302  0.0036  0.2284
29893W        W45967  14.863   1.316   5.018  0.0667  0.1594  0.0640
29894W        W45968  10.009  10.478   5.332 -0.0522  0.0734 -0.0381
29895W        W45969   2.732  17.859  11.783 -0.1726  0.0317 -0.1427
29896W        W45970   0.437  14.966   5.072 -0.3921 -0.1482  0.0422
29897W        W45971  14.793   1.124   3.194  0.0417 -0.0555  0.0649
29898W        W45972  13.657  14.990  11.640  0.0009  0.1064  0.1465
29899W        W45973  10.044   3.076   4.804  0.3661  0.2945 -0.1575
29900W        W45974   0.533  13.619   0.217  0.1718  0.2468 -0.1837
29901W        W45975  15.673   7.249  13.025 -0.2563 -0.0596  0.3235
29902W        W45976  16.508   2.437  15.017 -0.1727  0.2962 -0.0593
29903W        W45977  18.175  14.005   4.529  0.0522  0.1586  0.1516
29904W        W45978   1.905  16.375   3.049  0.2312 -0.0691 -0.2180
29905W        W45979   9.016  14.479   1.044  0.0173  0.1164 -0.0439
29906W        W45980   3.137   4.174  15.424 -0.1487  0.3108  0.0078
29907W        W45981   3.000   0.847  15.094 -0.0811 -0.2229  0.1357
29908W        W45982   7.328  15.072   5.252 -0.0478  0.3451 -0.0853
29909W        W45983   9.150   4.354   1.595  0.0221  0.0225  0.2237
29910W        W45984   1.304  13.349  11.887 -0.2401  0.0922  0.1213
29911W        W45985   3.763  10.152   2.493 -0.1195 -0.4090  0.2992
29912W        W45986  13.176  16.603   0.026  0.0216  0.1503  0.2037
29913W        W45987   4.062   3.637  12.252  0.0557  0.0696  0.1189
29914W        W45988  16.297   3.356   3.257  0.1594  0.0093 -0.1020
29915W        W45989   6.567  11.671  13.652 -0.0010  0.2207 -0.3465
29916W        W45990  12.839   4.292   3.617 -0.2770  0.1589 -0.1531
29917W        W45991   8.460  15.715  15.417 -0.0694  0.0973 -0.2866
29918W        W45992   6.415  15.565  12.775 -0.3000  0.2195 -0.0714
29919W        W45993  12.947  11.521   0.095  0.1234 -0.0518  0.0953
29920W        W45994   1.749  12.072  14.111  0.0184  0.0439 -0.0822
29921W        W45995   8.180  10.193   0.875  0.0719 -0.3729  0.0250
29922W        W45996  14.650  14.351   3.128 -0.1973  0.1409  0.1955
29923W        W45997  16.552  15.648  15.593  0.1524  0.0037  0.0584
29924W        W45998  10.637   1.298   0.611 -0.1275 -0.2620 -0.4813
29925W        W45999   1.324   5.130  15.381 -0.1330 -0.0069 -0.1734
29926W        W46000   5.561   1.110  13.853  0.0071 -0.1677 -0.3793
29927W        W46001  12.006  10.057   1.293 -0.2658  0.0194  0.0059
29928W        W46002   4.176  13.475   2.648  0.0501  0.0963  0.2606
29929W        W46003   9.614   0.624   0.386  0.0039 -0.1095  0.1066
29930W        W46004   7.131   2.018  12.439  0.0845 -0.0544  0.3250
29931W        W46005   8.616  15.544  11.305 -0.1387  0.1017  0.1142
29932W        W46006   6.050   7.528   3.193 -0.1540 -0.1523  0.1953
29933W        W46007   1.887   1.669  15.523  0.1480  0.1177  0.4830
29934W        W46008  10.619  16.254   4.985 -0.2119 -0.1596  0.1493
29935W        W46009  10.225  11.037  15.377  0.1816  0.0558 -0.0585
29936W        W46010  14.611  17.406   5.637 -0.0063 -0.1528 -0.1077
29937W        W46011   8.616  10.291  12.062  0.2380  0.2664  0.0171
29938W        W46012  13.619   4.551  12.713 -0.2812 -0.1851 -0.1830
29939W        W46013  15.824   0.603  12.807 -0.0635 -0.0887 -0.1941
29940W        W46014  17.658  15.266  15.372  0.1252 -0.3936 -0.0853
29941W        W46015  15.675   1.998   3.215  0.1020  0.1604 -0.0834
29942W        W46016   1.934   3.622   4.754 -0.2660  0.2009  0.2700
29943W        W46017  16.330  13.859   3.098 -0.0273  0.3183  0.2038
29944W        W46018  18.176  17.423   4.606 -0.2544  0.0931  0.0472
29945W        W46019   5.247  17.826  12.982 -0.3234  0.0847  0.0564
29946W        W46020  16.221   3.482  15.570  0.0706  0.1201 -0.3428
29947W        W46021   6.368  10.801  12.152 -0.0011 -0.0101 -0.1119
29948W        W46022   8.882   4.718   4.242  0.2874  0.4723  0.1603
29949W        W46023   2.666  16.984  14.725 -0.1278 -0.1516 -0.1274
29950W        W46024   0.091   7.807   5.150  0.0760 -0.1120  0.0166
29951W        W46025  16.367  10.279   1.694 -0.1220  0.1444  0.0776
29952W        W46026   3.988  15.154   1.161  0.0934  0.0535 -0.0344
29953W        W46027   4.497   6.249  15.441 -0.0938  0.0876 -0.1326
29954W        W46028  15.004   0.267   5.085  0.1792 -0.1313  0.0728
29955W        W46029   9.140   1.331  11.906 -0.0269  0.0022  0.0349
29956W        W46030   9.077  11.152  12.037  0.0771 -0.1032 -0.1041
29957W        W46031  11.181  17.238  12.314  0.3197 -0.1752  0.1554
29958W        W46032   8.400   8.548   2.745 -0.0400 -0.0312  0.1193
29959W        W46033  12.148   1.713   3.269  0.1306  0.2407 -0.3268
29960W        W46034  14.516   8.534   0.874  0.3453 -0.2756 -0.0104
29961W        W46035   5.991   0.979  13.000 -0.0681 -0.0640 -0.1519
29962W        W46036   9.742  11.822  15.266 -0.1000  0.0495  0.3026
29963W        W46037   6.920  10.904  12.015 -0.0157 -0.4222  0.2685
29964W        W46038   1.766  15.655  11.111 -0.1341  0.0978  0.0983
29965W        W46039   2.274  11.596   3.970  0.0219 -0.0229  0.3584
29966W        W46040   2.915   3.090   0.637 -0.2520  0.0219  0.0168
29967W        W46041  17.410  16.663  12.713 -0.3465 -0.1129  0.3968
29968W        W46042  16.564  13.455   0.756 -0.0283  0.0969  0.0814
29969W        W46043   4.499  15.162  14.006 -0.0241 -0.1404  0.1815
29970W        W46044  14.993  15.603   5.442 -0.4115 -0.0389  0.0301
29971W        W46045   8.498  14.196   1.148  0.2575 -0.0058  0.1003
29972W        W46046  14.236  15.797  11.314 -0.1823 -0.1920  0.1775
29973W        W46047   2.104  15.271  15.046  0.1244  0.0843  0.0268
29974W        W46048   8.107   6.545   1.090 -0.1057 -0.3150  0.3043
29975W        W46049   3.309  12.200   4.126  0.1400  0.0852  0.0959
29976W        W46050  14.706   6.827   5.910  0.0388 -0.1204 -0.0208
29977W        W46051  11.917   4.501  15.144  0.3163  0.2664 -0.1702
29978W        W46052  13.551  15.432   1.402 -0.0886  0.0999  0.1438
29979W        W46053   2.046  15.145  15.560 -0.0052 -0.3387 -0.1773
29980W        W46054  14.724   4.387  12.575 -0.1933  0.1023 -0.2850
29981W        W46055  16.258   7.688  14.175 -0.1779  0.1220 -0.0717
29982W        W46056   5.297  13.855  12.976  0.0140  0.2546 -0.0486
29983W        W46057   6.869   1.337   1.689  0.1569 -0.0411  0.3495
29984W        W46058   7.544   5.463   4.044 -0.0990  0.2318 -0.2050
29985W        W46059  10.415   8.369   3.892 -0.0416  0.2937 -0.1839
29986W        W46060   9.282  16.960   0.400  0.3098 -0.1470  0.3712
29987W        W46061  18.099  17.720   2.193 -0.0833 -0.0274  0.2933
29988W        W46062   0.746  15.714  12.383 -0.2365  0.3334 -0.1326
29989W        W46063   0.943  15.715  11.284 -0.0371  0.2512  0.0492
29990W        W46064  16.495   1.568  12.901  0.1687 -0.1652 -0.0036
29991W        W46065  17.073   3.608   2.552  0.3510  0.0662 -0.1421
29992W        W46066   6.955   6.515   5.270 -0.3437 -0.2401 -0.1065
29993W        W46067  13.683  11.123   6.022  0.4241  0.0533  0.0446
29994W        W46068   5.998  13.063   3.997 -0.1403  0.1698 -0.0873
29995W        W46069   4.875   0.870   6.190 -0.2346 -0.2683  0.0508
29996W        W46070  12.841   5.871   3.743  0.1502 -0.2230  0.1404
29997W        W46071  13.666  12.203   3.516  0.2245  0.1875  0.1634
29998W        W46072   8.076  11.321   4.257  0.0907 -0.0841  0.0962
29999W        W46073   2.226   0.103  12.240  0.1992 -0.0799 -0.0988
30000W        W46074   7.669  11.333  11.478 -0.2775  0.1807  0.1405
30001W        W46075  16.063  14.151  15.227 -0.0905 -0.0368 -0.0918
30002W        W46076  10.749   1.677  13.536 -0.2896 -0.0396  0.2606
30003W        W46077  11.825   0.066   4.804  0.2071 -0.2333 -0.0649
30004W        W46078  14.403   2.202   5.582 -0.6637  0.0693 -0.0256
30005W        W46079   4.505   0.167   5.215 -0.3205 -0.2040  0.0194
30006W        W46080  16.250   7.497   4.436 -0.0381  0.1190  0.1557
30007W        W46081  15.781  16.468  14.840  0.2457  0.0560 -0.2539
30008W        W46082  10.411   1.958   6.032  0.0315 -0.2208 -0.1316
30009W        W46083  10.884  10.813  13.956  0.1597  0.1696 -0.1163
30010W        W46084  15.164  17.640   3.157 -0.3126 -0.2695 -0.2276
30011W        W46085   5.743  10.213  14.911 -0.1231 -0.1443 -0.4378
30012W        W46086   3.393  16.524   3.447 -0.2331  0.0120 -0.1941
30013W        W46087   8.032   2.395   0.685 -0.0999  0.2382  0.2969
30014W        W46088  13.515   1.375   4.972  0.0678  0.3666  0.0605
30015W        W46089   7.415  15.568   6.036  0.2301 -0.0595 -0.0269
30016W        W46090  10.649  12.062   0.542 -0.0614 -0.0197 -0.1257
30017W        W46091  15.109   9.295  15.698  0.0384  0.2890 -0.0551
30018W        W46092  16.647   4.367   3.112 -0.0087  0.1017  0.0038
30019W        W46093  14.629  10.094   4.106 -0.0771  0.1460 -0.0151
30020W        W46094   0.673   5.215  12.138 -0.2024 -0.1162 -0.0584
30021W        W46095   5.321   2.960  14.188  0.1328  0.0413  0.2107
30022W        W46096  13.393  10.348   2.801 -0.1515 -0.1756  0.0233
30023W        W46097   7.027   9.460   1.918  0.0423  0.1475 -0.1001
30024W        W46098  14.994  16.917   2.146 -0.0288  0.1001 -0.0865
30025W        W46099  15.179   2.038  14.046  0.0851 -0.1479 -0.1241
30026W        W46100  14.026  17.051  13.315 -0.1995  0.0811  0.2698
30027W        W46101  13.513  14.565   3.969 -0.3045  0.2388 -0.0936
30028W        W46102   2.217   0.428   4.326  0.1755 -0.1971  0.2037
30029W        W46103   7.394   4.782   3.175  0.3716  0.0258  0.1591
30030W        W46104  13.894   1.569  11.752 -0.1544 -0.0401  0.0171
30031W        W46105   1.861  17.153   0.160  0.0330 -0.1055 -0.0837
30032W        W46106   0.503  11.314   2.286  0.4084  0.1454 -0.1867
30033W        W46107   5.829   2.486   0.281 -0.1649  0.1812  0.0915
30034W        W46108  16.375   0.001  15.870 -0.1198  0.0398 -0.1261
30035W        W46109   3.412   8.484   1.921 -0.1017 -0.1070 -0.0884
30036W        W46110  16.039  12.273  14.604  0.0478  0.2082 -0.0062
30037W        W46111   4.671   2.368   2.054 -0.0878 -0.0014 -0.0713
30038W        W46112  15.748   5.199   4.022  0.2573 -0.1362  0.1178
30039W        W46113   1.801   0.280  12.000 -0.3838 -0.0903 -0.1406
30040W        W46114  12.842   9.563   4.698  0.2165  0.0413 -0.1494
30041W        W46115  17.306   4.462   5.082 -0.0547 -0.2095  0.0185
30042W        W46116   4.946   0.620  13.031 -0.2340  0.0498 -0.1240
30043W        W46117  15.304   3.111   4.078 -0.1295  0.0077  0.1433
30044W        W46118   0.819  10.426   2.370 -0.2950 -0.0904 -0.1193
30045W        W46119  13.146   8.313  16.188 -0.1867 -0.0830  0.2218
30046W        W46120   5.745   4.590  16.396  0.2642  0.1779  0.2255
30047W        W46121  12.622   9.218   5.500  0.0457 -0.0761 -0.0652
30048W        W46122  12.278  13.264   1.449 -0.0713 -0.1404 -0.0005
30049W        W46123   2.043  10.812   5.228 -0.1743  0.2720 -0.1914
30050W        W46124   2.467   5.100  13.015 -0.2117  0.2627  0.1952
30051W        W46125  15.450   6.637   3.940  0.1533  0.2879 -0.0943
30052W        W46126   3.679   0.978  14.390  0.4063 -0.0037  0.0682
30053W        W46127   4.669  11.370   5.889 -0.1789  0.2550 -0.2230
30054W        W46128   6.718  16.442  13.292  0.0332  0.0055 -0.0006
30055W        W46129   0.074   8.667  12.286  0.0099  0.0564  0.2451
30056W        W46130   4.164   1.011  13.068  0.1746 -0.0742 -0.1015
30057W        W46131   9.013   6.590   4.504  0.0315 -0.1350 -0.2859
30058W        W46132  10.063  14.205   0.386 -0.2535  0.0272 -0.0018
30059W        W46133  12.127   6.886  12.559 -0.2673 -0.0770 -0.1256
30060W        W46134  11.640  17.573   3.288  0.2951 -0.2530 -0.0057
30061W        W46135   9.457   8.486  16.147 -0.1226  0.1086  0.3011
30062W        W46136   6.393  13.371  13.311  0.3515  0.0987  0.0247
30063W        W46137  13.310  12.643   0.347  0.0771  0.0541  0.2295
30064W        W46138   9.353   8.028   4.712  0.0378  0.0970  0.0822
30065W        W46139   2.113   5.937  11.875 -0.3427  0.4280  0.0913
30066W        W46140   4.321   2.055  15.483  0.1248 -0.2348 -0.0690
30067W        W46141  16.708   0.837  13.696 -0.0437  0.0588  0.0921
30068W        W46142   2.161   1.329   1.881  0.1215  0.0864  0.2358
30069W        W46143  13.757   5.149   1.430 -0.1104 -0.0970 -0.0461
30070W        W46144   6.373  10.316   2.934 -0.2828  0.0218  0.0205
30071W        W46145   1.943  12.802   2.902 -0.1685  0.0213 -0.4978
30072W        W46146   5.227   3.412  13.763  0.0412 -0.0221 -0.2199
30073W        W46147  16.673  12.594  13.735 -0.0464 -0.2308  0.2569
30074W        W46148  15.171   1.573  15.424  0.1303  0.0696  0.0337
30075W        W46149   5.484   4.066   6.219 -0.1546  0.2479  0.0443
30076W        W46150   1.057  18.162  14.121  0.4545 -0.0196 -0.2450
30077W        W46151   6.872   9.488   5.755  0.1340  0.1603  0.1766
30078W        W46152   7.311  12.994   3.868  0.1020  0.0834 -0.2127
30079W        W46153   0.562  14.826  12.375 -0.1775 -0.1226  0.0457
30080W        W46154  16.009   2.450   4.007 -0.1262  0.5062 -0.0470
30081W        W46155  15.406  12.608   1.855 -0.3921 -0.0462  0.0949
30082W        W46156  14.576  13.482   4.997  0.1204 -0.1635 -0.0923
30083W        W46157  15.523   6.537  12.451 -0.3331  0.0794 -0.2674
30084W        W46158  12.631   6.294   1.641 -0.0019  0.1527  0.0477
30085W        W46159  16.051   9.055  11.906 -0.0188 -0.2352 -0.0607
30086W        W46160   2.953   4.355   3.346 -0.1497  0.3301 -0.0498
30087W        W46161   4.457  16.556  12.597 -0.2310 -0.0840  0.2274
30088W        W46162   3.024   6.035   0.369  0.0149 -0.2245  0.0102
30089W        W46163   0.415   0.489   0.189  0.2418 -0.1973  0.3451
30090W        W46164  16.674  16.050   0.620 -0.0141 -0.1210  0.2707
30091W        W46165   6.582   4.333   2.084  0.1491  0.0314  0.2029
30092W        W46166  16.311   9.156  15.330  0.0870  0.0891 -0.1229
30093W        W46167   9.327  16.959  12.675 -0.0283  0.0384  0.1260
30094W        W46168   3.912  12.583  14.529 -0.1866  0.1821 -0.1096
30095W        W46169   7.223   3.466   4.299 -0.2738  0.1111  0.3258
30096W        W46170   3.188  10.148   2.379  0.1023  0.0819 -0.1615
30097W        W46171   4.331  11.622  16.424 -0.1893  0.1908 -0.2171
30098W        W46172   0.601   5.266  10.808 -0.0457 -0.4946 -0.2676
30099W        W46173   6.739   5.294  14.268 -0.0429  0.2259  0.1049
30100W        W46174   8.331   2.791   0.663  0.2790 -0.0412 -0.0531
30101W        W46175  14.939   2.727   0.273 -0.0573 -0.1351 -0.3661
30102W        W46176   1.884   3.510  15.535 -0.2341 -0.1054  0.0670
30103W        W46177   5.869   8.852  10.508  0.0978 -0.2469  0.1148
30104W        W46178   7.376   0.768  11.851  0.0134  0.1657  0.1761
30105W        W46179   0.340   1.651  15.747  0.0635 -0.0092 -0.0060
30106W        W46180   2.854  14.585   1.188  0.1461 -0.0671 -0.0371
30107W        W46181   5.213   8.641   1.087 -0.1040 -0.1149 -0.0451
30108W        W46182  13.633  12.079   5.502 -0.3575 -0.1669  0.0136
30109W        W46183   4.296   1.391  15.890 -0.2043  0.0519  0.3812
30110W        W46184   3.579   5.919   2.861 -0.4755  0.1624  0.0649
30111W        W46185  13.355   6.441  16.231 -0.0413  0.1164 -0.0027
30112W        W46186   1.230   1.025   4.403  0.1701 -0.1650 -0.0700
30113W        W46187  14.872   0.901   3.641  0.0138  0.2532 -0.7883
30114W        W46188  11.374   8.571  16.497  0.1504  0.0704 -0.0385
30115W        W46189   3.246  11.140  13.193  0.1224 -0.1240  0.0938
30116W        W46190  14.014   5.848   4.109  0.2270  0.0593 -0.0691
30117W        W46191  14.628   4.543   4.046  0.2873  0.0874 -0.2039
30118W        W46192   5.852   9.019  12.364 -0.1577  0.0447 -0.3821
30119W        W46193  13.942  11.066   3.808  0.1961  0.4329  0.1516
30120W        W46194  11.880  13.559   3.839 -0.4265  0.1482  0.2651
30121W        W46195   0.756  16.163  11.023 -0.0777 -0.1257 -0.0467
30122W        W46196   7.488   8.706   3.105 -0.1123  0.2913  0.0726
30123W        W46197   8.321  10.176   0.406 -0.0633  0.2101  0.1015
30124W        W46198  17.206   2.659   1.630 -0.0525  0.0661 -0.1774
30125W        W46199  15.391   6.480   3.475 -0.0499 -0.0294 -0.4420
30126W        W46200   6.668   3.508   6.096 -0.0968  0.1040 -0.0261
30127W        W46201   3.498  11.408  13.506 -0.0115  0.0658 -0.0842
30128W        W46202   0.624   2.797  12.418  0.1479 -0.1182  0.1155
30129W        W46203   9.733  16.624   6.049  0.3924 -0.2019 -0.3282
30130W        W46204  11.253   9.026  14.611 -0.3093 -0.0476  0.1998
30131W        W46205  11.313   0.849   0.838 -0.0467  0.0947 -0.0318
30132W        W46206  12.532  14.114  14.354  0.2583 -0.0684 -0.3977
30133W        W46207   3.148   5.701  11.332  0.0408  0.0336  0.0636
30134W        W46208  10.045  12.732   1.012 -0.0950 -0.0278  0.0369
30135W        W46209  11.693  12.029   1.200  0.0974  0.1847 -0.0157
30136W        W46210   5.636  15.410  12.652  0.1816 -0.2368  0.2220
30137W        W46211   7.660  13.003  16.359  0.0723  0.1383  0.0517
30138W        W46212  13.658  16.522   0.173 -0.0487 -0.2437  0.1613
30139W        W46213   0.326  16.634  14.724  0.2467  0.0596 -0.0215
30140W        W46214   6.513   5.214   3.069 -0.1973 -0.1853  0.2452
30141W        W46215   7.498  10.595  12.061  0.0965  0.0425  0.1882
30142W        W46216   5.079  11.927  10.928 -0.2815 -0.3717  0.0172
30143W        W46217   8.940   7.771   2.609 -0.1458  0.0824 -0.0679
30144W        W46218  17.671   0.840   6.105 -0.0889  0.0156 -0.0087
30145W        W46219  13.765   9.270   5.661  0.2037  0.3228  0.0725
30146W        W46220  13.465  15.982   2.107  0.3517  0.0522 -0.1051
30147W        W46221   3.581   1.793  14.296 -0.0767 -0.0326  0.1578
30148W        W46222   9.554   9.131   0.875 -0.0267 -0.2304  0.3433
30149W        W46223   0.341  14.650  14.462  0.0126  0.1238  0.4249
30150W        W46224  13.733   2.074  12.679  0.2197 -0.0889 -0.1803
30151W        W46225  12.017  15.082   3.756 -0.2284 -0.0382 -0.1213
30152W        W46226  15.252   4.701  16.087  0.2766  0.2191 -0.0592
30153W        W46227   2.220  17.156  13.550  0.3471  0.1835 -0.2285
30154W        W46228   1.944   0.579   3.889 -0.1908 -0.4094  0.1526
30155W        W46229  11.065   1.069   4.028 -0.2072  0.0133  0.0105
30156W        W46230   6.967   2.486  16.014  0.2064 -0.0190 -0.0314
30157W        W46231   2.721   9.537  14.724 -0.1399 -0.2841 -0.0567
30158W        W46232  16.496  17.865   0.761  0.0135  0.2471 -0.1813
30159W        W46233  18.123  15.656  12.163 -0.2015  0.1685 -0.0055
30160W        W46234   2.483  14.474   0.359 -0.1220  0.1597  0.0464
30161W        W46235  12.779   9.180   2.208  0.2825 -0.5152 -0.0779
30162W        W46236  15.421   7.466   5.664 -0.0500 -0.0751  0.3065
30163W        W46237  15.645  11.631  15.623  0.2386  0.0022 -0.0746
30164W        W46238  16.618   5.953   3.243  0.0751  0.3827  0.0580
30165W        W46239   6.774   9.080  16.288 -0.0050  0.1802 -0.3053
30166W        W46240   6.070  16.638   2.418 -0.0486 -0.1571  0.0184
30167W        W46241  12.265  11.798  16.494 -0.0362  0.2295 -0.1944
30168W        W46242   9.238  13.615   1.303  0.3080 -0.2538  0.0501
30169W        W46243  15.320   4.859   1.953 -0.1746  0.2874 -0.1871
30170W        W46244   8.674   4.717   5.949  0.1646 -0.3006 -0.0060
30171W        W46245  10.161   4.477  11.573  0.1489 -0.0401 -0.3110
30172W        W46246   5.234   1.701   5.947  0.1114 -0.1392  0.0726
30173W        W46247  17.038  15.535   4.604 -0.2735 -0.2125 -0.2722
30174W        W46248   9.366  13.579   0.234  0.2467  0.0531  0.1961
30175W        W46249   4.278   8.603  15.113  0.0564 -0.2465  0.1692
30176W        W46250  18.099   7.642  10.851  0.0946 -0.1656 -0.0257
30177W        W46251   5.797  17.411   0.739 -0.0683  0.0145  0.2639
30178W        W46252   4.572   1.399  14.370 -0.0690  0.1306  0.1408
30179W        W46253  12.797  17.374  12.042  0.2961  0.1012  0.1050
30180W        W46254  12.197   1.127   1.222  0.1790  0.3328 -0.1315
30181W        W46255   4.215   8.338   0.874 -0.0550 -0.1651  0.1805
30182W        W46256   5.809  11.637   4.928  0.1930 -0.1937  0.0967
30183W        W46257   2.989   1.008  13.052 -0.0231 -0.2489  0.0549
30184W        W46258  13.574   0.394   4.663  0.3506 -0.0992 -0.2187
30185W        W46259   6.069   0.084  16.127  0.1403  0.1683 -0.1972
30186W        W46260   0.426  15.641  16.168 -0.1235  0.1763 -0.1587
30187W        W46261   3.352   0.619   0.279 -0.1391 -0.0500 -0.3735
30188W        W46262  14.251  18.017   3.058  0.0347 -0.0912  0.2940
30189W        W46263   6.226   3.240  15.107 -0.2979 -0.3345 -0.2404
30190W        W46264  11.203  11.876  13.121  0.1045  0.3084 -0.2755
30191W        W46265   2.892  13.279  14.596 -0.2031 -0.0504 -0.2221
30192W        W46266   8.983  15.391   2.668 -0.0850  0.1968 -0.2165
30193W        W46267   4.763   8.065  14.759 -0.1131  0.2789  0.1826
30194W        W46268   0.156  14.551   0.349 -0.0218 -0.0208 -0.4982
30195W        W46269   2.910  11.384   1.179 -0.1610 -0.0268 -0.4594
30196W        W46270   4.305   0.489   5.596 -0.0088 -0.1433 -0.2029
30197W        W46271  17.279  13.855  12.811  0.2825  0.0454 -0.0621
30198W        W46272   0.905   7.550   0.150  0.1066  0.2954  0.2236
30199W        W46273   0.352   1.419   1.490  0.2453 -0.1990 -0.1027
30200W        W46274  10.811   1.580   3.961  0.0508 -0.2235 -0.3075
30201W        W46275  10.049   8.914   0.726  0.3370 -0.0361 -0.0056
30202W        W46276   4.930   3.787  15.663 -0.0044  0.0583  0.1722
30203W        W46277  15.399   9.893  16.265 -0.1959  0.0509  0.3422
30204W        W46278  14.556   5.247  14.064  0.1042  0.2159 -0.1250
30205W        W46279   9.886   4.063   3.287 -0.5675 -0.3015  0.3365
30206W        W46280   3.037   4.156  11.347 -0.1469  0.2559 -0.3242
30207W        W46281  18.107   1.783   4.777  0.1443 -0.1789  0.0658
30208W        W46282   4.578  13.331  12.139  0.2138  0.5444 -0.2075
30209W        W46283   6.885  12.448  16.158  0.2418  0.0316 -0.2304
30210W        W46284   8.539  13.027  16.079 -0.0220  0.0839 -0.3760
30211W        W46285  10.338   6.943  13.120 -0.0653 -0.1826 -0.0257
30212W        W46286  10.499  10.918   5.936  0.0984 -0.1542  0.1888
30213W        W46287  13.551  11.781  11.913  0.3095  0.1144 -0.1050
30214W        W46288   0.096   6.721  15.320  0.0739  0.4080 -0.1725
30215W        W46289  11.596   9.734   0.847 -0.2766 -0.1459 -0.0563
30216W        W46290   1.946   0.096  16.453  0.0110  0.0354  0.0625
30217W        W46291  14.211   1.814  12.404 -0.1332 -0.1210 -0.2690
30218W        W46292  10.215   6.712  12.167 -0.1138 -0.2410  0.0249
30219W        W46293  12.615   2.880   4.287  0.0719  0.3449  0.0058
30220W        W46294  13.171  15.369  16.373 -0.1952  0.0250  0.1876
30221W        W46295   4.587   3.343  12.496  0.0846 -0.0569  0.2749
30222W        W46296   3.051   3.543   3.840 -0.0391 -0.0698 -0.0543
30223W        W46297   8.259   0.251  15.486  0.1051  0.0870 -0.2012
30224W        W46298   5.376  17.951   4.592 -0.1283  0.0265 -0.0145
30225W        W46299   8.863   2.968   2.842  0.1360  0.1508 -0.0784
30226W        W46300   3.318   5.689  10.820  0.0190  0.0510  0.1282
30227W        W46301   0.441  15.473   4.922  0.1336 -0.0666  0.0828
30228W        W46302  13.347   3.807   4.931  0.1463  0.1780 -0.1975
30229W        W46303  10.348   3.375  11.440  0.0561  0.0954  0.2795
30230W        W46304   3.614  14.881  15.138  0.0163  0.0081  0.1321
30231W        W46305  16.495   9.195  14.094 -0.1655 -0.0257 -0.1144
30232W        W46306   9.641  13.650  16.118  0.0612  0.1945 -0.1618
30233W        W46307   4.283   8.664  14.060  0.2735 -0.0947 -0.1953
30234W        W46308  14.895   1.388   0.005  0.1541 -0.3460 -0.2226
30235W        W46309  13.253   9.896   4.596 -0.0503  0.0426 -0.2019
30236W        W46310   7.982  10.881   5.363 -0.2244 -0.1173  0.2437
30237W        W46311   7.123   1.239  13.747 -0.3151 -0.1041 -0.1480
30238W        W46312  12.731  11.952   5.065  0.1747  0.1402  0.1350
30239W        W46313  11.431   0.475   0.071 -0.1246 -0.2971  0.0654
30240W        W46314  13.607   4.340   4.471 -0.0336  0.0818 -0.1812
30241W        W46315  16.842   9.680   0.839 -0.3531 -0.2379 -0.3340
30242W        W46316   9.067   6.432  15.605  0.1637 -0.0837 -0.0449
30243W        W46317   3.734   4.133  12.100 -0.2740 -0.0971 -0.4115
30244W        W46318  11.210  10.689  14.301  0.0526  0.3520  0.1400
30245W        W46319  17.256   6.047   4.682  0.2295 -0.1120  0.3643
30246W        W46320  13.876  12.285   1.967  0.0806 -0.2369  0.2088
30247W        W46321  11.308   1.575   3.943  0.1585  0.1225 -0.0293
30248W        W46322  12.342   6.783   3.255  0.4347  0.1674 -0.0922
30249W        W46323   2.605  12.566  11.277  0.1577 -0.1442  0.1338
30250W        W46324  12.075  14.574   0.585  0.4243  0.0069  0.0319
30251W        W46325   6.728   8.866  12.780 -0.1287  0.0655  0.1938
30252W        W46326   9.875  15.788   1.993  0.0560 -0.1078 -0.0098
30253W        W46327  11.166   5.757   6.218  0.0713 -0.0242 -0.2419
30254W        W46328  15.009  10.345  15.429 -0.1382 -0.0895  0.1000
30255W        W46329  15.256  10.606  15.081 -0.2340 -0.1798 -0.0951
30256W        W46330  10.770  14.077   4.691  0.0973 -0.0091 -0.2129
30257W        W46331   8.519   0.663  15.195  0.1048  0.1518 -0.0687
30258W        W46332  17.033  16.786   1.105  0.0703  0.1538  0.1335
30259W        W46333  15.017   3.687   1.193  0.0085 -0.1950  0.3132
30260W        W46334  10.928   2.103  14.980  0.0476  0.1431 -0.1651
30261W        W46335  10.763  11.196  14.303  0.1563  0.0330 -0.0818
30262W        W46336  11.272   0.061   5.309  0.0051 -0.1787 -0.0370
30263W        W46337  12.135   0.135  13.432 -0.2874  0.0402 -0.2967
30264W        W46338  11.280   2.393   1.778 -0.2217 -0.0364 -0.0124
30265W        W46339   8.442   4.594  14.320  0.2051  0.3368 -0.0719
30266W        W46340   4.214  11.698   2.920  0.1776  0.1631 -0.2817
30267W        W46341  10.250  14.100  10.441 -0.1313  0.1698  0.0765
30268W        W46342   2.921  13.815  16.182 -0.1019 -0.0268  0.0962
30269W        W46343  12.133  10.291  14.034 -0.3044  0.0449 -0.0377
30270W        W46344  13.693  12.865   3.391  0.1065 -0.3642 -0.0453
30271W        W46345  17.813   3.970  13.234  0.1402 -0.0753  0.0406
30272W        W46346   0.100  13.225   5.012  0.2152 -0.1662 -0.0618
30273W        W46347  13.851   7.447  13.175  0.2310 -0.0074 -0.0565
30274W        W46348  14.135  13.331  12.818 -0.2938  0.3702 -0.2677
30275W        W46349  12.648   0.908  13.803  0.2131 -0.1525  0.2062
30276W        W46350  15.277   5.165   4.246  0.0633  0.0443  0.0175
30277W        W46351  18.133   1.801  12.402 -0.0021  0.0280 -0.1573
30278W        W46352  11.720   4.493   4.253  0.1131  0.0482  0.0129
30279W        W46353  13.534  14.939   4.805  0.2629 -0.2099  0.1169
30280W        W46354  14.587   1.085  14.906 -0.0714 -0.0545  0.1592
30281W        W46355  11.747   6.705   2.235  0.0637 -0.0838  0.1800
30282W        W46356  14.071  14.885   3.219 -0.0361 -0.0603 -0.1960
30283W        W46357  16.712  15.433  13.056  0.2656  0.0296  0.1779
30284W        W46358  12.125   4.460  15.956  0.3260 -0.0577 -0.2155
30285W        W46359  14.436   5.071   2.238 -0.1036  0.1350  0.1688
30286W        W46360   0.567   0.490  11.187 -0.0378  0.0058 -0.0291
30287W        W46361   2.258  14.332  15.647 -0.2533  0.2670  0.0201
30288W        W46362   6.500   1.193   1.413 -0.2183  0.3369  0.0001
30289W        W46363   7.672  16.850  13.215 -0.1530 -0.1649 -0.3156
30290W        W46364   4.379   5.499  15.598  0.0346 -0.1919 -0.0270
30291W        W46365  10.132   6.462   3.413  0.3172 -0.0218 -0.0582
30292W        W46366  17.565   8.679  13.395  0.0830  0.1726  0.3009
30293W        W46367   2.782  15.143  12.816 -0.0665 -0.2774  0.0002
30294W        W46368   0.557   0.121   2.881  0.2610  0.1509 -0.0973
30295W        W46369   9.078   4.253   3.975 -0.0672 -0.1159  0.1077
30296W        W46370   8.992  16.329   5.573  0.5023  0.2235 -0.0715
30297W        W46371   0.515  17.824  16.209 -0.4149 -0.1446  0.0546
30298W        W46372  10.188   5.058   5.684 -0.1366 -0.2407  0.1296
30299W        W46373  10.283  18.002   3.407  0.0913  0.3154  0.0598
30300W        W46374   8.525   4.263   0.577  0.2708 -0.1473  0.2280
30301W        W46375  13.769   0.635  16.425  0.0652  0.3068  0.1282
30302W        W46376   6.425   6.453  14.601  0.1515 -0.0296 -0.3103
30303W        W46377  12.528   6.067   4.125  0.0363  0.0081  0.0951
30304W        W46378   6.320  14.024   2.476 -0.0916  0.0024  0.0515
30305W        W46379   1.970  17.357   5.462  0.1752 -0.2557 -0.0223
30306W        W46380   7.092  17.663  14.568  0.0019 -0.3363 -0.1893
30307W        W46381  13.818   0.780  15.929 -0.2799  0.0707  0.0395
30308W        W46382   4.895   8.381   3.938 -0.1741 -0.0700  0.0285
30309W        W46383  10.397   3.638   2.700 -0.0580  0.2770  0.1382
30310W        W46384  17.652   3.388  11.080  0.2014 -0.3583  0.0339
30311W        W46385  14.929  12.292   3.409 -0.2562  0.0565 -0.0594
30312W        W46386   8.379   6.748   3.278  0.2887  0.0686  0.0781
30313W        W46387   4.558  14.245   4.383  0.0281  0.1761  0.1419
30314W        W46388  13.856   9.705   2.533  0.0172  0.4027  0.2482
30315W        W46389   0.916  14.141  11.712  0.1655  0.1088  0.1258
30316W        W46390  17.799  17.226  11.902 -0.3120  0.2257  0.0838
30317W        W46391   4.774   3.079  16.390 -0.0164  0.0564  0.0574
30318W        W46392   3.407   1.079  13.754  0.0934  0.2957 -0.1203
30319W        W46393  17.585  11.496  15.990  0.3611  0.3580 -0.4497
30320W        W46394  12.721   7.764   0.882  0.0202  0.3339 -0.0354
30321W        W46395   2.104   6.473  11.880  0.1147  0.1882 -0.2971
30322W        W46396   1.153  16.912   1.785  0.2224 -0.1703  0.2440
30323W        W46397  14.074  17.728  12.385 -0.2043  0.0103  0.2921
30324W        W46398   2.223  10.583   0.804 -0.2232 -0.1284  0.2864
30325W        W46399  17.333  13.109   3.196  0.0851 -0.3257  0.1751
30326W        W46400   1.315   1.296  14.157 -0.3242 -0.4577  0.0862
30327W        W46401  14.309   3.237   0.254 -0.0313  0.1901 -0.3734
30328W        W46402   2.864  11.826  16.395  0.3853  0.1015  0.0272
30329W        W46403   1.334   9.938  10.834 -0.0482 -0.0881 -0.1095
30330W        W46404  11.610   8.307   0.915 -0.0217  0.2525  0.1667
30331W        W46405  11.944  15.368  12.155  0.0312  0.1348  0.2976
30332W        W46406  11.670  16.104   5.000  0.0994  0.2516 -0.3076
30333W        W46407  16.173  15.981   2.639  0.1694  0.1194  0.2204
30334W        W46408   1.022  11.439   3.465  0.1714  0.2457 -0.0990
30335W        W46409  11.111   4.989  15.996 -0.1540  0.3108  0.0615
30336W        W46410   6.889   7.216   4.681  0.3927 -0.3044  0.1757
30337W        W46411  17.625  17.883  15.811  0.1012 -0.0462 -0.1126
30338W        W46412  10.605  12.895   5.552  0.1858  0.1550  0.0250
30339W        W46413   0.629  10.306   1.864  0.0279  0.0343 -0.0404
30340W        W46414   6.835  18.160   3.287  0.1553  0.1493  0.2512
30341W        W46415   0.297   0.295  15.151  0.1705  0.1414 -0.1749
30342W        W46416   4.500   0.480   0.158  0.1104  0.2827 -0.0134
30343W        W46417  12.239   0.684   0.832  0.5379  0.0536 -0.2852
30344W        W46418   7.509   0.647   0.813 -0.2148 -0.3336  0.1870
30345W        W46419   1.903   5.560   3.551 -0.1911 -0.1687 -0.1572
30346W        W46420   8.701   7.825   1.351  0.0162  0.0253  0.3760
30347W        W46421   2.684   6.375  12.993  0.3196 -0.3980 -0.6396
30348W        W46422   5.421   6.513   0.037  0.0029 -0.1803 -0.3634
30349W        W46423   9.076   6.703  11.292 -0.3317 -0.0445 -0.1944
30350W        W46424  14.837  11.864   1.112  0.2893 -0.0691  0.1459
30351W        W46425  15.781  10.024  12.023 -0.1116 -0.1029  0.0966
30352W        W46426   5.358   5.191   3.463  0.1948  0.1044  0.2492
30353W        W46427   2.454  10.739   4.202  0.1394  0.1861  0.0279
30354W        W46428   8.204   7.855   4.856  0.0023 -0.1959  0.1586
30355W        W46429   7.163   6.534   0.110 -0.2640  0.0402  0.1135
30356W        W46430   6.955   7.756  16.386  0.0635 -0.0312  0.2253
30357W        W46431  17.176  12.384   4.225 -0.0296 -0.0265 -0.0950
30358W        W46432  17.143  13.472  14.641 -0.2081  0.1622 -0.2687
30359W        W46433  12.785   4.682  13.238  0.3032 -0.0889 -0.0395
30360W        W46434   8.518  14.345  14.212  0.0843 -0.2141  0.2032
30361W        W46435  13.422  18.023  14.783  0.1078 -0.3765  0.1982
30362W        W46436  14.901   9.917   2.924  0.2614 -0.4220 -0.2385
30363W        W46437  11.235   3.740  14.952  0.0358 -0.0109  0.1148
30364W        W46438   6.880   3.409  14.595 -0.1254 -0.0900 -0.1908
30365W        W46439   8.827   5.662  14.344 -0.2228 -0.0452  0.1870
30366W        W46440  12.049  16.813   0.222 -0.0768 -0.0505 -0.0122
30367W        W46441   5.700  14.213  13.867  0.0081  0.1105 -0.2240
30368W        W46442   2.620   4.549   5.277 -0.0498 -0.0598 -0.2203
30369W        W46443   7.567   3.370   0.760 -0.0353  0.0920 -0.2725
30370W        W46444  12.432  15.498   6.653  0.1655 -0.1891 -0.1742
30371W        W46445   4.847  16.546  14.042 -0.0744  0.1047 -0.2996
30372W        W46446  15.828  11.457   2.887  0.2169 -0.0131 -0.0805
30373W        W46447   8.888  15.222   4.613 -0.2434  0.1517 -0.3422
30374W        W46448   3.658  11.236  12.876  0.0279 -0.1067  0.1375
30375W        W46449   3.269  10.866   2.243 -0.0203  0.1315  0.4667
30376W        W46450   4.730  13.565   4.629 -0.2771 -0.1980 -0.1538
30377W        W46451  13.594   9.457   2.154  0.1961 -0.4227  0.0004
30378W        W46452   1.617  15.026   2.997 -0.1544  0.2232  0.2679
30379W        W46453  16.936   1.512   4.995  0.0966  0.0143 -0.1675
30380W        W46454   4.450   9.565  11.134 -0.0938 -0.0616 -0.0929
30381W        W46455   4.128   4.207  14.618  0.0032 -0.2474  0.1892
30382W        W46456  15.112   7.385   0.561  0.0549  0.0594 -0.1496
30383W        W46457   1.449  16.682  14.322  0.1248 -0.0010 -0.0487
30384W        W46458   8.492   8.176  15.143  0.4231  0.0379 -0.1227
30385W        W46459  17.149  15.112   2.809 -0.1042  0.2857  0.2811
30386W        W46460   1.261   4.059   5.470 -0.0934 -0.1235 -0.0307
30387W        W46461  11.594  12.392  14.098  0.0500  0.0155  0.0491
30388W        W46462  11.560   9.928   3.814 -0.0415  0.2769  0.1216
30389W        W46463   5.355  13.476  14.804  0.0708 -0.0661 -0.2498
30390W        W46464  17.678   6.572   5.358 -0.1506  0.0365  0.0033
30391W        W46465  14.900  12.311   2.553  0.1628 -0.0184  0.4763
30392W        W46466  17.671  10.664  16.079 -0.0165  0.2068  0.0148
30393W        W46467   2.014  11.158  14.985 -0.1024 -0.0584 -0.1467
30394W        W46468   0.969  17.577  15.829 -0.2028 -0.2030 -0.0720
30395W        W46469  11.614  12.027  15.095 -0.1929  0.0907 -0.0548
30396W        W46470   9.301   1.085   1.091 -0.1104 -0.1654  0.1092
30397W        W46471   6.567  11.984   4.363 -0.2916 -0.1032 -0.1131
30398W        W46472   6.049   6.252  15.789  0.0407 -0.0651  0.0983
30399W        W46473   6.203   8.591   0.315 -0.2166 -0.0275 -0.0495
30400W        W46474   7.086   9.495  16.288  0.1152 -0.1271 -0.0092
30401W        W46475   5.622   5.686   3.116  0.1545 -0.0748  0.2551
30402W        W46476   4.657  10.385   2.403  0.1171  0.0858 -0.2242
30403W        W46477   5.095  10.728  12.311  0.2158  0.0311  0.1254
30404W        W46478  11.072   4.574   0.559 -0.0046 -0.1398  0.0777
30405W        W46479   1.879  11.320   4.864  0.0663 -0.0607 -0.2254
30406W        W46480   8.820   4.898  15.410  0.1292 -0.2584 -0.1397
30407W        W46481  10.929  14.085  15.851  0.2466  0.0097  0.1384
30408W        W46482   9.921   2.763  12.037  0.0764  0.0382  0.1129
30409W        W46483   4.580  15.185  11.706 -0.3134 -0.2638 -0.2294
30410W        W46484   6.721   4.270  12.118  0.1303  0.1064 -0.0157
30411W        W46485  12.984   8.028   4.638 -0.1175 -0.0460  0.2289
30412W        W46486   7.847  13.114   0.793 -0.4018  0.0267 -0.0115
30413W        W46487   4.134   7.444   1.853 -0.2067  0.1693  0.0150
30414W        W46488  15.627   2.783   2.135 -0.2119  0.0029  0.0709
30415W        W46489   1.699   0.736   2.264 -0.0543 -0.1862  0.4569
30416W        W46490  15.548  17.956  15.244  0.0726 -0.0050 -0.1702
30417W        W46491  17.995   8.841  15.403 -0.2733  0.2033  0.1120
30418W        W46492   6.043  15.255  13.781  0.0169  0.0578  0.1804
30419W        W46493  16.328   0.472  12.063  0.1223 -0.0118 -0.0560
30420W        W46494   8.564   8.388  13.682 -0.1765  0.0692  0.1380
30421W        W46495  14.168   3.687   4.522 -0.1561  0.1817 -0.1170
30422W        W46496  17.920   0.166   0.621 -0.0081 -0.1523 -0.0893
30423W        W46497   1.911   9.253  16.280 -0.0674 -0.2414 -0.3762
30424W        W46498  15.783  10.954  13.635 -0.1382 -0.0575 -0.0982
30425W        W46499  12.838   6.297  16.370  0.2274 -0.3430 -0.4616
30426W        W46500  11.333  16.418  11.918  0.2236  0.0518  0.0448
30427W        W46501   7.868  11.562   4.730  0.1658  0.0762 -0.3668
30428W        W46502  11.403   2.190  15.093  0.1062  0.1202 -0.4895
30429W        W46503  17.316  16.262   1.335  0.0073  0.0571  0.0975
30430W        W46504   4.831   9.784   0.699 -0.2144  0.0554  0.2061
30431W        W46505   7.448  12.931  13.050 -0.2225  0.0426 -0.2043
30432W        W46506  11.323   4.345  14.039  0.0881  0.0050  0.0293
30433W        W46507   1.682   6.020   0.607  0.1142 -0.3827 -0.2550
30434W        W46508  10.602  13.641   4.013  0.1389  0.2331  0.1952
30435W        W46509  15.857  17.737   1.494  0.0450  0.0007 -0.0943
30436W        W46510  17.404   1.998  14.975 -0.0494 -0.2330  0.2637
30437W        W46511  11.227  15.823  15.248 -0.0670  0.1421  0.3561
30438W        W46512   9.441  12.845   2.591 -0.2746 -0.2483 -0.1889
30439W        W46513   5.344   6.907   3.382  0.0332  0.3259  0.0391
30440W        W46514   2.589  16.752  11.282  0.1566  0.1114  0.1112
30441W        W46515   5.681   8.696  14.126  0.2971 -0.0544 -0.4696
30442W        W46516  13.629   8.530  13.901 -0.0977  0.0280 -0.1117
30443W        W46517   5.443   5.654  13.683  0.1579  0.0638 -0.5186
30444W        W46518  11.123  16.403   1.850 -0.0256  0.2428  0.1119
30445W        W46519   1.835   0.012  10.812 -0.2707  0.2223  0.1039
30446W        W46520  15.947  18.111   0.303  0.0428  0.3095 -0.1432
30447W        W46521  12.321  16.889   1.607  0.2106 -0.2123  0.0552
30448W        W46522  14.979   6.788   3.590  0.1078 -0.0648  0.0561
30449W        W46523   6.754   3.509  15.190  0.2053 -0.2570 -0.3255
30450W        W46524  14.857   7.052  15.787  0.0106 -0.1691 -0.0223
30451W        W46525  10.699  12.197  14.255  0.0129  0.0541 -0.3347
30452W        W46526   9.048   3.005   3.714  0.1358 -0.1025 -0.2977
30453W        W46527  13.257   3.869   1.733 -0.1231 -0.1242 -0.0885
30454W        W46528  11.903  15.308   5.807  0.0645  0.0963  0.0004
30455W        W46529   8.161   9.659   4.247  0.0724  0.1540  0.1161
30456W        W46530   7.867   6.493  12.766  0.2349  0.1807 -0.1908
30457W        W46531   8.379   7.685  16.281 -0.0615  0.1963 -0.0972
30458W        W46532  10.869  14.321   0.302 -0.0885 -0.0708  0.1020
30459W        W46533   7.787  13.103  14.027 -0.0407 -0.2637  0.3007
30460W        W46534   0.712   1.912   4.078 -0.1138 -0.1053 -0.2236
30461W        W46535   7.263  16.254  12.526  0.0029 -0.3269  0.2384
30462W        W46536   6.989   0.911   2.709  0.0282  0.3995  0.1619
30463W        W46537   2.866   7.110  13.943  0.2059  0.1553 -0.2565
30464W        W46538   3.034   5.032  13.526  0.2372  0.0177  0.1772
30465W        W46539  12.898   5.209   1.062 -0.0716 -0.1695 -0.2289
30466W        W46540  11.953  13.744   2.693  0.0114 -0.0579  0.0388
30467W        W46541   7.679  13.075  12.314 -0.0350 -0.1469  0.1293
30468W        W46542   1.889  12.894  13.717 -0.0757  0.1580  0.0231
30469W        W46543  12.195  17.866  13.885  0.1396  0.0148  0.0932
30470W        W46544  10.697   4.253   1.366 -0.0863 -0.0627 -0.4249
30471W        W46545   1.368   5.731   0.213  0.2904 -0.0104 -0.0389
30472W        W46546  17.434  12.361  13.504  0.1741  0.0452  0.0109
30473W        W46547  10.468   5.432   0.919 -0.1160  0.1631 -0.0850
30474W        W46548   0.016   9.272  11.545  0.2666  0.1458  0.0020
30475W        W46549  13.388  11.293  12.213  0.1799  0.0070  0.0496
30476W        W46550  14.796  15.602   2.014  0.1460 -0.2211 -0.0582
30477W        W46551   7.562   7.412  11.118 -0.3666  0.1068 -0.1774
30478W        W46552  16.548   9.260   2.695 -0.0102 -0.0757 -0.0506
30479W        W46553   8.624   9.689   4.516  0.2305  0.0016 -0.0499
30480W        W46554  10.592  13.471  12.722 -0.0327 -0.1396  0.1716
30481W        W46555   6.211   0.492  15.861  0.1108 -0.0690 -0.0366
30482W        W46556   6.114   9.859  11.780  0.0253  0.0319  0.0352
30483W        W46557   2.973  13.826   1.829 -0.1075  0.0581 -0.0775
30484W        W46558   4.999  16.134  15.106 -0.1359 -0.3909  0.2553
30485W        W46559   1.333   8.824  11.495  0.0913  0.1517 -0.0556
30486W        W46560   4.050  13.811   0.850  0.2640  0.2121  0.1219
30487W        W46561   9.747  14.132  14.191  0.1189  0.0812  0.1051
30488W        W46562   4.679  14.557  14.331  0.0758  0.0730 -0.0931
30489W        W46563   7.519   2.588   4.149  0.1876  0.2160 -0.0855
30490W        W46564   1.383  12.133  13.755 -0.2888 -0.0489  0.0537
30491W        W46565  11.098   2.847   3.355 -0.1945  0.2523  0.1309
30492W        W46566   0.199  13.311  15.398 -0.2340  0.1163 -0.1972
30493W        W46567  14.907   9.766   5.111 -0.0270 -0.0979  0.2768
30494W        W46568  11.049  16.706  15.504  0.3519 -0.0151  0.0661
30495W        W46569   3.827  10.809   0.268  0.0174 -0.2541 -0.0584
30496W        W46570  12.376   2.196  13.225 -0.1526  0.3632 -0.1372
30497W        W46571   9.106   7.425   3.001  0.0918 -0.1247 -0.0804
30498W        W46572  13.104   4.901   1.932 -0.1197  0.0251 -0.0064
30499W        W46573  11.452  16.956  11.856 -0.0494 -0.0559  0.2806
30500W        W46574  17.086  11.426   1.632  0.0414 -0.2374  0.1586
30501W        W46575  13.871  15.244   5.609  0.1565  0.0695  0.0518
30502W        W46576   0.866   2.239   1.784 -0.0818  0.2517 -0.1298
30503W        W46577  14.184   7.429   3.627 -0.0209 -0.2851 -0.3074
30504W        W46578  12.632   3.296   4.657  0.0227 -0.0593 -0.1290
30505W        W46579   1.874   3.089  12.556  0.1881  0.1079 -0.2028
30506W        W46580   2.906  14.525   3.875 -0.0145  0.0440 -0.0001
30507W        W46581  10.306  10.904   0.516 -0.1670  0.0673  0.2865
30508W        W46582  16.617   8.351   5.407  0.1870  0.1218 -0.0978
30509W        W46583  12.878   9.138  12.758 -0.1331 -0.3211 -0.3688
30510W        W46584   3.537   6.055  16.402 -0.2125 -0.0327 -0.1314
30511W        W46585  17.882   1.166   2.074  0.3254 -0.3263  0.2123
30512W        W46586   1.216   0.720  13.557  0.1346 -0.2043  0.4202
30513W        W46587  17.745   4.354  11.835  0.0836 -0.2946 -0.2504
30514W        W46588   6.038  17.663  14.478  0.0577 -0.1037  0.2266
30515W        W46589   7.017   6.059   0.146  0.2275 -0.3312  0.0885
30516W        W46590   3.685   4.660   1.809 -0.4289  0.0582 -0.1041
30517W        W46591   8.952  17.735   3.445 -0.0959  0.0018  0.0522
30518W        W46592  16.332   6.591   5.021 -0.2396  0.0540 -0.3313
30519W        W46593  15.229  16.517  13.506  0.1938  0.0701 -0.2812
30520W        W46594   7.240   9.194   2.262 -0.2331 -0.2079 -0.2522
30521W        W46595  18.097  15.135   6.150  0.0756  0.0217  0.2283
30522W        W46596  17.089   8.044  13.400 -0.0912 -0.2776  0.3485
30523W        W46597   8.172   6.317   4.970 -0.4958  0.2179 -0.1759
30524W        W46598   1.662  16.804  12.151  0.0625 -0.0181 -0.1305
30525W        W46599  16.042  12.479  16.492  0.1349  0.1304 -0.2077
30526W        W46600   3.067   9.745   4.263  0.0027 -0.0852 -0.0926
30527W        W46601  12.232   6.130  16.259 -0.0904  0.2623 -0.1882
30528W        W46602   2.134   5.228  15.156 -0.0994 -0.0342 -0.0414
30529W        W46603   5.130   9.863  13.652  0.0445  0.0992 -0.1942
30530W        W46604  10.998   1.583   5.636  0.0750  0.3180  0.2579
30531W        W46605   4.748  12.434   3.312 -0.0932 -0.0992 -0.1846
30532W        W46606  13.685  10.735   5.162  0.0241  0.2925  0.1571
30533W        W46607  13.501   0.562   0.380 -0.2690 -0.0511 -0.0080
30534W        W46608   9.982   6.624   1.564  0.0365  0.1923 -0.3185
30535W        W46609  12.657  16.061   3.014  0.3951 -0.0040 -0.1437
30536W        W46610   5.596   9.913   0.936 -0.0248  0.1910 -0.4154
30537W        W46611   4.248   4.004   0.943  0.0326 -0.1206 -0.2599
30538W        W46612  13.855  15.611   2.276 -0.0599 -0.1465  0.2955
30539W        W46613  10.880   6.867  11.631  0.1989  0.0678  0.0195
30540W        W46614   3.472   2.428   2.920 -0.1715 -0.1112  0.3285
30541W        W46615  12.054  11.499  12.640 -0.0278 -0.0624 -0.2952
30542W        W46616   1.233  12.771   0.470  0.1194  0.1152 -0.0377
30543W        W46617  16.894   8.758   0.939 -0.0295 -0.2168 -0.0033
30544W        W46618  14.087  17.252   2.222  0.0104  0.0188  0.1377
30545W        W46619  17.055  17.477   4.763 -0.0540 -0.1076 -0.3046
30546W        W46620   4.680   5.821   2.627 -0.1024 -0.0619 -0.0074
30547W        W46621   6.936   9.643   2.432 -0.1741  0.2778  0.0371
30548W        W46622   7.169   9.253  15.357  0.0229 -0.1681  0.0332
30549W        W46623   3.494  13.791   5.241  0.0654 -0.0021  0.2698
30550W        W46624   7.928  13.827  15.911 -0.0539  0.1157  0.2896
30551W        W46625   0.667  17.204   3.467 -0.2227  0.0273 -0.0991
30552W        W46626  15.095   1.256   4.026 -0.0966 -0.0680 -0.0616
30553W        W46627   3.449   4.477  11.846 -0.0441 -0.1064 -0.1157
30554W        W46628  12.397   0.624  15.478 -0.3541  0.1330  0.1542
30555W        W46629   5.478   5.241   1.170  0.2032 -0.0200  0.1019
30556W        W46630   9.793  11.990   6.133 -0.0495  0.1620 -0.0254
30557W        W46631   9.452   5.441   0.460 -0.0030 -0.1793 -0.0135
30558W        W46632  13.567  15.986  11.961  0.0696 -0.1316  0.0004
30559W        W46633   8.322  17.064   3.132  0.0659  0.2602  0.0939
30560W        W46634  15.037  15.829  15.032 -0.0545 -0.1495 -0.0659
30561W        W46635  12.798   6.484   4.106  0.0653  0.0322 -0.2175
30562W        W46636   7.018  11.303   3.351 -0.3553  0.4033 -0.0631
30563W        W46637   0.650  10.541   3.969  0.1788 -0.1399 -0.0914
30564W        W46638  16.084   6.823  14.786  0.1576  0.1609  0.2075
30565W        W46639   7.450  14.609   5.504  0.0455 -0.0365  0.0501
30566W        W46640  15.123   2.715  13.381 -0.0608  0.2950  0.1372
30567W        W46641  16.653  12.792  12.037 -0.0886  0.1361  0.0638
30568W        W46642  17.264  17.659   1.491 -0.3488 -0.0721 -0.1221
30569W        W46643  11.265  14.230  14.579  0.0324 -0.0644 -0.0145
30570W        W46644   3.961   4.677  15.389  0.1014  0.0297  0.2094
30571W        W46645   0.971   3.308   2.915 -0.3631  0.0805 -0.3302
30572W        W46646   5.207  16.708   2.103  0.1411 -0.1393  0.1193
30573W        W46647  11.599   2.294  11.667  0.2079  0.0273  0.0117
30574W        W46648   6.450   6.286   2.210  0.0090  0.2044  0.1543
30575W        W46649   1.506   1.919   2.278 -0.2929 -0.1732 -0.3180
30576W        W46650  10.884  13.926   2.239 -0.1163 -0.2507 -0.2546
30577W        W46651   9.758  11.798   1.838 -0.1139  0.1760 -0.1728
30578W        W46652  14.941  15.060  12.207  0.0523  0.1934 -0.1490
30579W        W46653  11.785   5.686   0.127 -0.1044  0.0846  0.0743
30580W        W46654   2.827  13.461  13.234 -0.0107 -0.0858 -0.1518
30581W        W46655   9.723   1.036  14.576 -0.1235  0.3180  0.1384
30582W        W46656  15.283   7.777   2.772 -0.1322  0.2974  0.1733
30583W        W46657  14.072  13.683   2.403 -0.0634  0.1569  0.0265
30584W        W46658   3.174  10.409  14.593 -0.3716 -0.0023  0.2884
30585W        W46659   9.152   9.062   1.247  0.2556 -0.1463 -0.0480
30586W        W46660  15.845   9.007   3.371 -0.1179  0.3649  0.1017
30587W        W46661  13.383  15.817   1.105  0.0717  0.2178 -0.0851
30588W        W46662  15.181   8.165  14.908 -0.1183  0.0926 -0.0051
30589W        W46663  11.071  16.072   5.068  0.4239 -0.0325  0.0089
30590W        W46664   1.586   2.604  15.369  0.3086  0.0274 -0.1691
30591W        W46665   7.112   3.310  16.427 -0.1102 -0.0295 -0.1654
30592W        W46666  13.562   5.434  13.318 -0.1665 -0.2575 -0.2153
30593W        W46667  17.577   7.248   2.791  0.5666 -0.2361 -0.3811
30594W        W46668   3.661   6.467   3.131  0.2956 -0.1461 -0.0305
30595W        W46669   8.712   3.898   4.141  0.3208 -0.0599 -0.0083
30596W        W46670  10.072  17.491  15.189  0.2099  0.0446 -0.1589
30597W        W46671  10.067   9.410   0.808 -0.1793  0.0511 -0.2084
30598W        W46672   0.766   8.947   0.442 -0.0389  0.2371 -0.0580
30599W        W46673  12.448  15.137  14.701 -0.0019  0.0999 -0.1773
30600W        W46674  17.879  13.774   5.332  0.1137 -0.0647 -0.1465
30601W        W46675   1.342  16.114   3.919 -0.2362  0.2578 -0.0771
30602W        W46676  16.947  10.994  14.987  0.2665  0.2422  0.0483
30603W        W46677   0.491   1.581  14.837  0.1989 -0.1569  0.2139
30604W        W46678  10.393   0.818   0.713 -0.2038  0.2807  0.1021
30605W        W46679   3.127   5.668   3.242 -0.0284  0.4067  0.1146
30606W        W46680   5.338   6.470  14.494 -0.0359  0.0550 -0.1745
30607W        W46681   3.244   8.069   3.475 -0.0924 -0.1116  0.1108
30608W        W46682   3.659  17.344   0.893 -0.1221  0.1801 -0.1664
30609W        W46683  10.158   7.075  12.617 -0.0016 -0.0069 -0.0372
30610W        W46684   9.487  11.740  11.792 -0.0892  0.0474  0.1404
30611W        W46685  13.848   0.523   2.362 -0.2147 -0.1146  0.1031
30612W        W46686   0.452  15.105   3.845  0.4036 -0.2266 -0.0862
30613W        W46687   1.844  10.762  15.848  0.1029 -0.1261 -0.0435
30614W        W46688   6.544   5.969   2.557  0.1116 -0.1716  0.0911
30615W        W46689  17.170   3.019  15.067  0.0352 -0.0146 -0.3157
30616W        W46690  13.764   3.575  11.633 -0.1152  0.3443 -0.2508
30617W        W46691   1.643   2.182  10.166 -0.3187  0.1000 -0.2544
30618W        W46692   6.937   1.518  12.520 -0.1132  0.1092 -0.0963
30619W        W46693   8.146  13.707  16.423  0.2022 -0.2845  0.1724
30620W        W46694   8.979  10.573   2.784  0.1177 -0.0392  0.0864
30621W        W46695   5.302  16.581   2.968  0.3021 -0.2782 -0.0555
30622W        W46696  13.955   8.960   0.164  0.2007  0.2899  0.0131
30623W        W46697  10.747   3.949  14.572 -0.0221  0.0656  0.2277
30624W        W46698   5.559   2.942  14.735  0.1638 -0.1180  0.0348
30625W        W46699  17.960   9.609   5.033  0.2455  0.2179  0.0019
30626W        W46700   8.051   1.578   3.627 -0.1350 -0.2863  0.0351
30627W        W46701   6.257  11.685   4.106 -0.1139  0.2623 -0.0451
30628W        W46702   7.042  12.297   3.550 -0.0453 -0.0907  0.0637
30629W        W46703   8.853  10.368  12.534  0.0517 -0.1387 -0.1319
30630W        W46704  16.550   4.166   0.767 -0.1415  0.2208 -0.0172
30631W        W46705   6.168  12.384  15.554  0.1260 -0.0626 -0.3295
30632W        W46706  14.809   9.552   0.532 -0.1825 -0.5573  0.0163
30633W        W46707  11.908  14.669   5.392  0.2592  0.3289  0.0853
30634W        W46708  17.691   3.301  13.766  0.3745  0.2947 -0.1119
30635W        W46709   3.134   1.147  15.950  0.1404  0.1047 -0.0353
30636W        W46710  17.240   5.469  15.826  0.0931 -0.3663  0.0259
30637W        W46711   4.538   3.387  13.238  0.2930  0.1749 -0.1267
30638W        W46712   6.805   4.529   2.499  0.1119 -0.1434 -0.0544
30639W        W46713  10.930   5.090   1.725 -0.2284 -0.0699 -0.0407
30640W        W46714  13.720  15.025  15.313  0.0110 -0.2092 -0.0411
30641W        W46715   9.541  14.511   1.143 -0.1290 -0.1254 -0.0935
30642W        W46716   3.479   0.117   5.344  0.1393  0.1557  0.4569
30643W        W46717  17.240   4.854   0.476 -0.0566  0.0939  0.2848
30644W        W46718  15.051   1.124  15.069 -0.1977 -0.2001  0.0594
30645W        W46719  15.107   6.565   4.788 -0.1605  0.1436  0.1124
30646W        W46720   7.345  13.117  15.970 -0.0623 -0.1946 -0.2113
30647W        W46721   4.516  15.323   3.218  0.0657  0.0400 -0.2524
30648W        W46722  13.388  16.229  11.540 -0.0224  0.1908  0.0170
30649W        W46723  14.954   5.042   0.575  0.0109 -0.3669  0.2252
30650W        W46724   4.853  18.125  14.148  0.3748 -0.0302 -0.1917
30651W        W46725  17.174  16.133   5.181  0.0016  0.0628  0.2887
30652W        W46726   3.248   5.289  15.946  0.0872  0.2732 -0.2067
30653W        W46727  17.316  14.300  14.544 -0.1126 -0.0014  0.0180
30654W        W46728  13.111  12.115   3.468 -0.0006 -0.0565  0.3130
30655W        W46729  17.496   5.693   1.249 -0.0639  0.0058  0.0200
30656W        W46730   4.068  10.935  16.194 -0.2960  0.1529 -0.3546
30657W        W46731   4.243   5.822   0.278  0.0244 -0.0747 -0.0262
30658W        W46732   5.008  16.603   1.064  0.0566  0.0166 -0.0674
30659W        W46733  16.948   1.655   3.650 -0.0170  0.0645  0.1569
30660W        W46734   9.478  15.329  11.874  0.1050 -0.1907 -0.1144
30661W        W46735   3.423   8.195   4.016  0.1688 -0.2188  0.1006
30662W        W46736  13.715  18.245   1.414 -0.0284  0.0808  0.0654
30663W        W46737   0.067  14.878   1.378 -0.1418  0.4108  0.0803
30664W        W46738   7.881  14.979  15.883  0.1286  0.0623  0.1064
30665W        W46739  11.713  12.921  13.973 -0.0381 -0.1614  0.0704
30666W        W46740  12.454  17.191  16.381  0.1736  0.1977 -0.0327
30667W        W46741  17.692   0.822  12.681 -0.1020 -0.4332  0.3316
30668W        W46742   3.971  11.425  16.069  0.2444  0.1193  0.0975
30669W        W46743  13.869  14.443  14.911 -0.0615 -0.0091 -0.1007
30670W        W46744   6.220  11.603   2.036 -0.3609 -0.0897  0.2087
30671W        W46745   7.711  18.208   4.658  0.0007 -0.0241 -0.3243
30672W        W46746  15.681   9.572   1.684 -0.2046  0.0517  0.1178
30673W        W46747   7.145   0.674  13.588 -0.0865 -0.0190 -0.1274
30674W        W46748  10.257  12.166   2.035 -0.0504  0.0905  0.0613
30675W        W46749  14.721   0.073  14.182 -0.2242  0.2013 -0.1921
30676W        W46750  12.150  14.001  10.510  0.4142  0.0960  0.1794
30677W        W46751  18.202   5.467  16.426  0.2183  0.0001  0.1046
30678W        W46752  16.134   4.513  11.872  0.0116 -0.3565 -0.1002
30679W        W46753   4.576   5.880  12.488  0.0578  0.2936 -0.0100
30680W        W46754   2.641  11.530  10.994  0.2070 -0.2741  0.1480
30681W        W46755   3.226  13.251   5.229 -0.0631 -0.0476 -0.0250
30682W        W46756  15.398   0.447  13.135  0.0943  0.0517  0.0103
30683W        W46757   3.089   4.595   3.761 -0.1509  0.1824  0.1031
30684W        W46758   6.255  17.528  13.347 -0.1681  0.3261  0.3801
30685W        W46759  14.307   7.159  14.100  0.1807  0.1771  0.2449
30686W        W46760   7.158  17.029  12.569 -0.0543  0.0419  0.0929
30687W        W46761  14.322  14.194  14.975  0.1759 -0.0730  0.2831
30688W        W46762   0.875   9.451   0.408 -0.0656 -0.0215 -0.3244
30689W        W46763  16.545   7.796   4.827 -0.3542  0.4320  0.0695
30690W        W46764  11.226  17.023  14.063  0.0117 -0.0324 -0.2557
30691W        W46765  18.047  11.533  12.062 -0.1862  0.3423  0.3080
30692W        W46766   9.597  10.876   4.293 -0.3703  0.0941  0.1822
30693W        W46767   9.105   1.067   0.577 -0.0706 -0.0603  0.1402
30694W        W46768  13.846  14.692   1.903 -0.4073  0.2580  0.2828
30695W        W46769   2.168  17.925  14.545 -0.1062  0.0916  0.2721
30696W        W46770   0.476   3.082   0.509 -0.2489  0.0622  0.2110
30697W        W46771   3.794   2.981   5.161  0.2499 -0.1942 -0.2659
30698W        W46772   4.919   9.503  13.963 -0.2065  0.1505  0.2631
30699W        W46773   8.669   0.876  14.744 -0.0790 -0.1004  0.0262
30700W        W46774  14.194   5.341   4.285  0.0304  0.1852 -0.2456
30701W        W46775   1.231   4.700  15.146 -0.1821  0.0110  0.3956
30702W        W46776  17.389  14.437  13.561  0.1201 -0.2199  0.0283
30703W        W46777   3.174   6.809  12.145  0.0015  0.0176  0.1019
30704W        W46778   3.227   6.841   2.644 -0.0269  0.1182 -0.2926
30705W        W46779  10.585   5.243  15.705 -0.0529  0.1158  0.1360
30706W        W46780   4.992  15.476   4.917 -0.3393  0.0752  0.0030
30707W        W46781   7.566   7.014  16.137 -0.0501 -0.1617 -0.1256
30708W        W46782  17.872   1.464  14.101 -0.1956 -0.4113 -0.3699
30709W        W46783  14.857  15.319  12.642 -0.3434 -0.2333 -0.1411
30710W        W46784   1.954  12.216   0.603 -0.2849  0.0400  0.1334
30711W        W46785  15.096   9.687  14.873 -0.0407 -0.1365 -0.3002
30712W        W46786  13.683   5.733  11.967 -0.2288 -0.0257  0.5466
30713W        W46787   9.846   7.853   4.571  0.3275 -0.1026  0.2326
30714W        W46788   6.919  12.578  13.859  0.0024 -0.0696  0.0606
30715W        W46789   6.645   3.801   3.739 -0.1085 -0.4423  0.0693
30716W        W46790   1.750   7.534  12.661  0.1854  0.0721 -0.0399
30717W        W46791   1.938   4.194  11.649  0.2063 -0.1461  0.1268
30718W        W46792   4.580  13.424   2.339 -0.0282 -0.1831 -0.0028
30719W        W46793   0.790  18.245  13.404 -0.3564  0.0820  0.2685
30720W        W46794  11.191   5.514  13.433  0.0088 -0.1490  0.1593
30721W        W46795   1.881   7.408   5.484  0.2855  0.3222 -0.1837
30722W        W46796  11.385  16.444  13.968 -0.3680 -0.5057  0.0446
30723W        W46797   8.574  10.864   3.473  0.0214 -0.4627  0.0903
30724W        W46798  13.333  12.054  15.744  0.2431  0.0986 -0.1181
30725W        W46799  13.832  15.791  13.695 -0.0209 -0.3796 -0.0959
30726W        W46800   9.407   5.445   2.925  0.1035  0.1551  0.0415
30727W        W46801  11.240   6.863  15.743 -0.2024 -0.1100 -0.0212
30728W        W46802   7.045   1.590  16.060 -0.0574  0.2257  0.1274
30729W        W46803   1.999  11.557   5.348  0.0369  0.1249  0.1236
30730W        W46804  14.437  16.490  14.619 -0.3378  0.2076  0.0156
30731W        W46805  11.378   5.277   3.767 -0.0197 -0.1966 -0.3259
30732W        W46806   6.468   7.674  11.940 -0.0825  0.0437 -0.1173
30733W        W46807   7.631   9.967  14.035  0.1641  0.1913 -0.4315
30734W        W46808  12.680  15.058   0.202  0.0467  0.1743  0.0849
30735W        W46809   3.002   4.538   1.103 -0.3060  0.0830 -0.0319
30736W        W46810   5.275  15.881   5.006 -0.3028 -0.2856 -0.0364
30737W        W46811   5.082  17.203   1.815  0.0320 -0.2034  0.1434
30738W        W46812   9.836   2.078   3.395  0.2217 -0.0580 -0.2594
30739W        W46813   8.307  15.049   5.443  0.2810  0.2486 -0.0207
30740W        W46814  17.864   3.631  15.368 -0.1021 -0.0368 -0.2279
30741W        W46815   9.314  16.329  16.068 -0.0769  0.0006 -0.2627
30742W        W46816  16.355  18.058   4.250 -0.0042  0.3715  0.2527
30743W        W46817   6.915   9.052  11.546  0.0182  0.2013  0.1929
30744W        W46818   8.596   1.133   2.097  0.3323  0.2466 -0.3355
30745W        W46819   2.720   3.354  12.249 -0.1424  0.0907 -0.2448
30746W        W46820   4.034   7.296  15.878  0.0562  0.3158  0.1711
30747W        W46821   5.725   6.687  15.713 -0.1722 -0.0144 -0.0020
30748W        W46822   9.060  11.577  11.467 -0.3292  0.2602  0.0224
30749W        W46823  17.752  11.176   2.897 -0.0228  0.1324 -0.2044
30750W        W46824   5.200  15.806  11.372 -0.0783 -0.0019  0.1489
30751W        W46825   9.735   5.175   1.651  0.3743  0.2221  0.0794
30752W        W46826   5.863   0.639   5.688 -0.1609 -0.3183  0.2023
30753W        W46827   7.252   6.318  15.744  0.1529  0.2868  0.1425
30754W        W46828  16.809   6.177   6.099  0.0163 -0.0053 -0.1395
30755W        W46829  12.282   9.012   1.355  0.0777  0.3139 -0.2571
30756W        W46830  10.976   7.651  15.545 -0.1295  0.0289  0.0398
30757W        W46831   3.334   0.578  13.774 -0.0974  0.0240  0.3290
30758W        W46832  12.719   8.312   3.230  0.2213 -0.3036 -0.0290
30759W        W46833  13.990  16.679   3.153  0.0097 -0.0275  0.0413
30760W        W46834   5.215   4.955   6.095  0.2599 -0.0765 -0.0483
30761W        W46835   1.571  10.089  13.273  0.1891  0.2730  0.2514
30762W        W46836   0.152  12.021  15.764 -0.0881  0.2617  0.2230
30763W        W46837   8.991  11.675  13.268  0.1240 -0.1844 -0.1366
30764W        W46838   6.549   6.352  15.071  0.0122 -0.2375 -0.2699
30765W        W46839   2.426  15.627   3.029 -0.1035  0.2844  0.0807
30766W        W46840  13.233  10.164  12.105  0.0391  0.1318 -0.1005
30767W        W46841   5.227  11.485   2.094  0.3463 -0.3992  0.0724
30768W        W46842   2.502  12.777   3.290  0.3016  0.0007 -0.2081
30769W        W46843   6.587   5.980   1.577  0.5538 -0.1810  0.1394
30770W        W46844   2.466   2.692   2.046  0.1187  0.1730 -0.1103
30771W        W46845  12.121  14.624  15.015  0.0512 -0.1555  0.2420
30772W        W46846   3.125   0.384  14.639 -0.2355 -0.1239  0.0135
30773W        W46847   3.281   4.342   4.805 -0.2491 -0.2033 -0.1914
30774W        W46848  17.891   2.661   4.742 -0.0745  0.0710  0.1389
30775W        W46849   0.779   1.337   1.316 -0.1124 -0.2007 -0.3396
30776W        W46850  13.733  17.091   1.690  0.0928  0.1283  0.2087
30777W        W46851  12.171  16.262  16.133  0.2748 -0.0228  0.2240
30778W        W46852   7.004   0.523  14.440 -0.3475 -0.1173 -0.0482
30779W        W46853   8.878  18.235  13.521  0.2597 -0.0115 -0.0631
30780W        W46854  10.757  12.894  14.946  0.2288 -0.2139  0.3011
30781W        W46855  13.410   7.404   1.673 -0.2018  0.0111 -0.0529
30782W        W46856   0.724   2.892   3.013 -0.0940  0.0487 -0.2782
30783W        W46857  12.256  16.754  11.519 -0.0770  0.0069  0.2520
30784W        W46858   9.828  10.447   4.361 -0.3137 -0.1714 -0.2191
30785W        W46859   9.204   8.125  12.259  0.1136  0.6857 -0.1017
30786W        W46860  17.601  12.988  15.983  0.1090 -0.0403 -0.0265
30787W        W46861   0.515   8.771  14.495  0.3787 -0.0715 -0.4117
30788W        W46862   1.252   3.673   2.117 -0.0167  0.0215 -0.0506
30789W        W46863   8.554   3.458   3.205 -0.2599  0.0911 -0.0908
30790W        W46864   0.758   2.931   3.566 -0.1913 -0.1344 -0.2158
30791W        W46865   0.911  17.897   0.187 -0.0176 -0.2421  0.3605
30792W        W46866   5.844  16.871   0.848  0.0437 -0.0781  0.3071
30793W        W46867  17.870  11.620  14.568 -0.0664  0.4113  0.0622
30794W        W46868  13.264   8.448   1.953  0.1230  0.1093  0.3471
30795W        W46869   1.083   3.128  14.324 -0.0062 -0.2439  0.1494
30796W        W46870  11.993   5.991  15.401 -0.0230 -0.2115  0.1149
30797W        W46871   5.846   0.600  12.721 -0.0964 -0.2620  0.0703
30798W        W46872   2.028   0.822   5.315 -0.1701  0.0128  0.0030
30799W        W46873  13.908   5.211   2.149 -0.2562  0.0281 -0.1873
30800W        W46874  10.719   6.876  14.039  0.3184  0.0175  0.0741
30801W        W46875  14.952   0.873  12.423 -0.0126 -0.1593  0.2251
30802W        W46876  15.801   6.034   4.374  0.0677 -0.1454 -0.2188
30803W        W46877   2.912   4.123  14.978  0.0345  0.0680 -0.1129
30804W        W46878  15.852   2.068   1.818  0.3686  0.2010  0.0389
30805W        W46879  16.882  14.372   2.815 -0.3124  0.1009 -0.0923
30806W        W46880  16.283  13.609  15.100  0.2504  0.1872 -0.1937
30807W        W46881  12.884   2.777   1.281 -0.2663  0.2012 -0.2127
30808W        W46882  15.875   6.611  16.310 -0.0829 -0.1231  0.1090
30809W        W46883   0.960  18.097   3.196  0.0154 -0.1209  0.0673
30810W        W46884   9.349  16.570   0.762 -0.1289  0.2315  0.0779
30811W        W46885   9.618   3.419   2.381  0.2282  0.1757  0.1671
30812W        W46886   4.205  10.702   1.643  0.0141  0.0460  0.2136
30813W        W46887  11.354  12.061   1.817  0.1651 -0.0126  0.3358
30814W        W46888  11.797   3.289  12.743 -0.0531  0.1714 -0.3030
30815W        W46889  13.072  16.175   1.775 -0.1040 -0.1824 -0.2904
30816W        W46890  10.959   0.102   3.108 -0.0858  0.1691  0.0635
30817W        W46891   8.195  10.277  14.971 -0.2295 -0.0019 -0.1284
30818W        W46892   9.378   9.484   4.644  0.1542  0.0384  0.0715
30819W        W46893  14.387   1.017   2.904 -0.0034  0.1902 -0.1949
30820W        W46894   3.090   2.731  10.446  0.0808  0.2402 -0.1186
30821W        W46895   1.517  15.933   0.990 -0.0723 -0.0320  0.0993
30822W        W46896   3.143  16.502  13.514  0.1897 -0.6686 -0.1866
30823W        W46897  13.128   3.519  12.718 -0.1506 -0.0550  0.0671
30824W        W46898  12.500   3.028   2.313  0.0292  0.1505  0.0017
30825W        W46899  16.969  15.666  16.402  0.0173  0.1090  0.2587
30826W        W46900  13.604   5.940  12.488  0.1872  0.0140 -0.0937
30827W        W46901  17.279   3.801  15.467 -0.4257 -0.1103  0.1652
30828W        W46902  15.973  12.252   4.438  0.0303 -0.2075  0.0007
30829W        W46903  14.111   5.936  16.288  0.2709  0.0899 -0.1035
30830W        W46904   0.962  15.841   5.543 -0.0330 -0.2105  0.0673
30831W        W46905  10.481  14.660   2.487 -0.2710 -0.0292 -0.1275
30832W        W46906  14.684  14.112   1.649 -0.5091  0.1310 -0.0832
30833W        W46907  15.834  10.928   2.744  0.1177 -0.2180  0.1794
30834W        W46908  12.223  16.367   0.212 -0.0136  0.0511  0.2053
30835W        W46909  13.301   7.868  11.264  0.1061  0.1602 -0.0590
30836W        W46910  16.209   2.862   1.482 -0.1521 -0.0982 -0.0847
30837W        W46911   6.389   7.187  11.940 -0.0749 -0.0590  0.0195
30838W        W46912   6.122  10.201  12.519  0.1298 -0.0487  0.0996
30839W        W46913  16.604  16.678  14.372 -0.1370 -0.1507  0.0389
30840W        W46914   8.920  15.974  16.126  0.0024 -0.0832 -0.1458
30841W        W46915   5.365  10.892   5.615  0.1078  0.0141  0.1656
30842W        W46916  16.178   7.452  13.128 -0.1851 -0.1076  0.1846
30843W        W46917   1.955   5.570  15.674  0.3602  0.1221 -0.2227
30844W        W46918   6.388   6.291  12.092  0.0264  0.0632  0.0001
30845W        W46919  13.435  15.269  12.611  0.2508  0.1112 -0.0527
30846W        W46920   1.064   1.552  14.926  0.1075 -0.0705 -0.1968
30847W        W46921   8.461   2.798  14.759  0.2187 -0.4581  0.0662
30848W        W46922  10.320  14.101   4.983  0.1005  0.0791  0.1102
30849W        W46923  15.961  13.846  13.306 -0.0424  0.1522 -0.3006
30850W        W46924  10.528   6.221   0.296 -0.0400  0.0051  0.0737
30851W        W46925   6.419  14.697   0.729  0.0665  0.1722  0.2364
30852W        W46926  14.601  15.058   3.877  0.1097 -0.1016 -0.0561
30853W        W46927  12.267   8.743  11.569  0.0716 -0.0560  0.0234
30854W        W46928   1.475  12.672   5.824  0.0478  0.0637  0.0725
30855W        W46929  11.309   6.840  11.924  0.2081  0.0011 -0.4533
30856W        W46930  14.693  14.191   5.085  0.1099 -0.1461  0.0810
30857W        W46931  11.864  10.586   0.545  0.0755  0.3916 -0.2430
30858W        W46932   8.806   6.216   0.516 -0.0853 -0.3308 -0.3508
30859W        W46933  10.546  15.477  15.191 -0.1881  0.0834  0.0948
30860W        W46934  11.378  11.343  15.538  0.1204  0.0085 -0.1141
30861W        W46935  17.296   5.946  15.550 -0.0271 -0.1637 -0.2159
30862W        W46936   4.107   0.128  12.247 -0.0411 -0.0022 -0.0973
30863W        W46937   5.404  12.066   3.635 -0.1355 -0.0031 -0.0721
30864W        W46938   4.027   4.449   3.845 -0.0172  0.1677 -0.3603
30865W        W46939   1.036  12.602   2.326 -0.0025  0.2234 -0.3175
30866W        W46940   9.055   5.089  15.944  0.1530 -0.0047  0.3178
30867W        W46941   1.712   5.506  10.278  0.0637 -0.2573  0.5293
30868W        W46942  17.256   0.723   3.886 -0.1038 -0.1756 -0.2579
30869W        W46943   6.880   8.534  11.470 -0.0157 -0.0206 -0.0651
30870W        W46944   7.065   2.226   5.191  0.3791 -0.1055 -0.1453
30871W        W46945  10.367  17.552   0.783 -0.1915 -0.0514 -0.1515
30872W        W46946  14.229   0.122  15.667 -0.1375  0.1454 -0.1603
30873W        W46947   9.062  17.846  14.345 -0.1109 -0.0165  0.5489
30874W        W46948   9.607   4.532   2.748  0.2693 -0.2223  0.0493
30875W        W46949  16.769  17.409   2.910 -0.3119 -0.0042  0.2473
30876W        W46950   7.224  11.255  11.716 -0.0144 -0.0341 -0.0285
30877W        W46951  10.549   6.880   2.235 -0.0589 -0.0642  0.0919
30878W        W46952  12.441  15.444  14.307  0.3410 -0.1015 -0.2004
30879W        W46953  11.370  17.519  15.728  0.0541  0.1295 -0.2330
30880W        W46954   8.571   2.700   5.216 -0.2378  0.2879 -0.2094
30881W        W46955   7.260  14.031   2.273  0.5420 -0.0882 -0.0898
30882W        W46956   1.519  12.825  15.924 -0.1646  0.2743 -0.2086
30883W        W46957   7.034  13.749  13.039  0.2945  0.1261 -0.1335
30884W        W46958   4.666   0.402   3.335 -0.1292 -0.1439 -0.1588
30885W        W46959   6.339  14.237  14.496 -0.2531 -0.1341 -0.2304
30886W        W46960   8.483  17.600   3.154  0.1632 -0.0751 -0.0033
30887W        W46961  10.053  13.776   4.570 -0.0423  0.1780 -0.2339
30888W        W46962  11.518   3.247  14.651  0.1495  0.1937  0.0606
30889W        W46963   0.032  16.604  11.499 -0.1466 -0.3553  0.1696
30890W        W46964   8.875   6.599   0.020 -0.0864 -0.4163 -0.0960
30891W        W46965   4.134   0.838   0.234 -0.3189  0.2139  0.1353
30892W        W46966   4.167   4.799  12.488  0.1271  0.0235 -0.0068
30893W        W46967  13.781  18.170   3.202  0.0940  0.1283 -0.0887
30894W        W46968  11.803   4.003   2.991 -0.1229  0.0730 -0.0310
30895W        W46969  13.578   0.904   4.700  0.0588 -0.0450 -0.1695
30896W        W46970   0.025  13.835  16.206  0.0228  0.2675 -0.0396
30897W        W46971   0.021   0.248   5.557  0.0126 -0.1043 -0.0477
30898W        W46972   1.790   7.323   0.962 -0.2243  0.2616  0.0990
30899W        W46973   1.367  14.130   2.997  0.1361  0.1187  0.0802
30900W        W46974   0.633  11.179  14.969 -0.1310 -0.4694  0.0888
30901W        W46975  13.667  10.862  15.104  0.2522 -0.0350  0.0907
30902W        W46976  12.795  13.332   2.864 -0.1360 -0.1245 -0.0995
30903W        W46977   6.758   9.482   0.184  0.2295 -0.1529  0.1229
30904W        W46978  15.084  16.840  16.499  0.0476  0.3577  0.0110
30905W        W46979   5.650   8.393  12.927  0.1080  0.1967  0.0996
30906W        W46980   9.210   9.230  11.806  0.1160  0.1969 -0.0318
30907W        W46981  11.146   5.529   1.555  0.2091  0.0339 -0.2665
30908W        W46982   8.160   1.258   4.626  0.0534 -0.1520  0.0832
30909W        W46983  10.163  14.642  11.758 -0.1345  0.1192 -0.1080
30910W        W46984   4.591   4.158   3.159  0.3108 -0.1842  0.1325
30911W        W46985  14.582   1.292  13.299  0.0008  0.0292 -0.1541
30912W        W46986  13.703   4.330  13.399  0.2032 -0.0575 -0.0853
30913W        W46987   9.645   9.337  11.402  0.2144  0.3334 -0.0630
30914W        W46988   9.436   4.290   3.223  0.3329 -0.1008  0.1101
30915W        W46989   0.069  12.513  14.845 -0.1954  0.1202 -0.2634
30916W        W46990  12.990  13.074  14.390  0.1995  0.1266 -0.2133
30917W        W46991  16.924  15.447  10.884  0.0808  0.1295 -0.1927
30918W        W46992   7.591  12.526   4.697  0.2139 -0.2378 -0.2835
30919W        W46993   6.344  12.435   1.811  0.2337  0.1500 -0.2101
30920W        W46994   2.278  16.176  14.545  0.0438 -0.1063 -0.0758
30921W        W46995  18.097   1.083   3.501  0.1291 -0.3178  0.0950
30922W        W46996   0.533  13.108   3.535  0.0256  0.1144 -0.0508
30923W        W46997  14.444   5.156  12.248 -0.0510 -0.0277  0.2257
30924W        W46998  13.215  16.632  15.174  0.0494 -0.1901  0.3064
30925W        W46999  10.350   8.464  12.467 -0.2985  0.1072 -0.3743
30926W        W47000  16.188  15.362  16.385 -0.0953 -0.0696 -0.3193
30927W        W47001   2.596  13.842   0.507 -0.2486 -0.0301 -0.5667
30928W        W47002   7.591  15.712  14.871 -0.1621 -0.0962 -0.0736
30929W        W47003   8.068   1.769   0.834 -0.1299  0.2484 -0.1831
30930W        W47004  15.031   5.442   0.222  0.1888  0.2160  0.1249
30931W        W47005   3.416  12.689   4.669  0.1539  0.0907  0.0809
30932W        W47006   3.584   9.722   3.160 -0.1823  0.3134  0.0785
30933W        W47007  10.305   3.013  12.685  0.3166 -0.0685 -0.1101
30934W        W47008  14.970   2.657   2.981 -0.1434 -0.2395 -0.1769
30935W        W47009  10.186   9.438   2.066 -0.0600 -0.1335 -0.1200
30936W        W47010  14.153   4.338   5.499  0.2946  0.1171  0.1106
30937W        W47011   7.952   0.889   3.241  0.1450 -0.2947 -0.0755
30938W        W47012  12.086  12.407   6.437 -0.0288 -0.0371  0.0382
30939W        W47013  13.655  12.867   0.636  0.3692  0.1170 -0.3302
30940W        W47014   4.064   5.300   4.560 -0.0740 -0.1911 -0.2096
30941W        W47015   5.869   8.024  12.310 -0.0003  0.1709  0.0251
30942W        W47016  12.021   8.823  13.959  0.0216  0.0965 -0.3330
30943W        W47017  17.405  16.079  11.545  0.0982  0.2673 -0.0617
30944W        W47018   3.280  13.381  13.550  0.3191  0.1307 -0.0284
30945W        W47019  16.740  13.092   0.272 -0.2988  0.0999 -0.0156
30946W        W47020   2.135   7.584  10.918 -0.1848 -0.0413 -0.2948
30947W        W47021   5.626  17.417   2.901 -0.1871 -0.4758  0.0089
30948W        W47022  10.360   0.184   1.558  0.1703  0.2659 -0.0318
30949W        W47023  11.688  11.699  13.445 -0.0726 -0.0558 -0.2812
30950W        W47024  12.837  16.992   1.633  0.0672 -0.1526  0.4423
30951W        W47025   3.579  12.617   4.150 -0.0469  0.4010 -0.0445
30952W        W47026   1.432  11.668   3.269 -0.2007  0.2459 -0.0562
30953W        W47027   0.477   0.218  13.012 -0.2378  0.1329 -0.2287
30954W        W47028  12.436   5.388   2.130 -0.2600 -0.1062 -0.1796
30955W        W47029   1.456   3.069  12.137  0.1914 -0.3119 -0.2258
30956W        W47030  14.872  11.616   5.256 -0.0394  0.0821  0.1233
30957W        W47031   0.077  12.281   5.035 -0.2071 -0.0623 -0.0051
30958W        W47032  10.232  11.956   4.067 -0.0768 -0.0539 -0.2970
30959W        W47033   0.483  16.560  16.499 -0.1485  0.3123  0.3710
30960W        W47034   4.523   4.296   3.711  0.3515 -0.0070  0.1748
30961W        W47035   7.283  14.681   6.073  0.0279  0.0325  0.1462
30962W        W47036   9.623   4.785   2.043  0.4483  0.0365 -0.0966
30963W        W47037  18.246  18.095  16.335  0.0016 -0.2090 -0.1201
30964W        W47038  17.476  11.517   2.440  0.0989  0.1739  0.1558
30965W        W47039  17.558   0.224  15.193  0.1972  0.0597 -0.2564
30966W        W47040  16.385   0.791  15.224 -0.0352 -0.0079 -0.1024
30967W        W47041   9.411   9.207   5.258 -0.3157  0.2144  0.2009
30968W        W47042   5.040  16.661   0.559 -0.2034  0.1755 -0.0701
30969W        W47043   9.306  12.719  14.545  0.0358 -0.1730 -0.4729
30970W        W47044  11.184  11.069  15.935 -0.4889  0.1714 -0.1292
30971W        W47045  15.848   8.664   2.318 -0.0352 -0.0785 -0.0314
30972W        W47046   7.561   2.092  12.237  0.0983  0.2102 -0.0919
30973W        W47047   5.005   5.823   3.963 -0.2469 -0.4447  0.2689
30974W        W47048   6.113  11.537  12.489  0.2690  0.0683 -0.1624
30975W        W47049   1.420  14.183   0.340  0.1338 -0.1203 -0.1744
30976W        W47050   7.138   4.393   2.184  0.2536 -0.0207 -0.0229
30977W        W47051   6.575   4.537   0.324  0.1476 -0.2704  0.0509
30978W        W47052  15.238  17.835  15.873  0.3612  0.4026  0.2030
30979W        W47053  15.003  11.832  15.601  0.1731 -0.4067  0.2826
30980W        W47054  16.810   8.556  12.278 -0.0632 -0.3203  0.1301
30981W        W47055  11.888   2.600   3.420  0.2263 -0.0641 -0.1547
30982W        W47056  16.291   6.352  14.037  0.0542 -0.0925  0.0007
30983W        W47057   9.358  10.889  13.049  0.3102  0.3208  0.2629
30984W        W47058  17.395   4.155   2.688  0.1255  0.2711 -0.1706
30985W        W47059   9.004  16.428   2.431 -0.0524  0.1605  0.0973
30986W        W47060   0.634  13.455   0.743  0.0821  0.0651  0.2254
30987W        W47061  17.558  13.400  15.682 -0.0124 -0.1360  0.1358
30988W        W47062   4.812  13.115  14.236 -0.0227 -0.1227  0.1599
30989W        W47063  16.261  11.468  15.888 -0.1530  0.1034  0.3815
30990W        W47064   4.572   4.462  14.594  0.1898 -0.1962  0.1118
30991W        W47065  14.081  10.652  11.833  0.1665  0.0559  0.2548
30992W        W47066   7.319  15.904   0.332  0.2962 -0.1141  0.1833
30993W        W47067   9.137  14.205   4.307 -0.1372  0.1297  0.0467
30994W        W47068  13.711  11.534   4.000  0.0974  0.3181  0.1032
30995W        W47069  17.365   5.136   5.095  0.1738  0.1044  0.1386
30996W        W47070  12.150  10.267   1.746 -0.1615  0.0583 -0.0673
30997W        W47071  11.668  18.133   0.001 -0.0032 -0.0138 -0.0084
30998W        W47072   8.452  14.571  16.200 -0.2229  0.0782  0.0722
30999W        W47073  10.202   5.550  12.935  0.0314  0.3167 -0.2725
31000W        W47074   4.300   0.408   4.756 -0.0899 -0.0121 -0.0254
31001W        W47075   3.188   8.477  10.933  0.2550 -0.0869  0.0506
31002W        W47076  11.392   3.742   3.113  0.0545 -0.1364  0.1105
31003W        W47077   1.737   6.630   3.262  0.2413  0.0207  0.0864
31004W        W47078  10.847  12.200   1.094 -0.0784 -0.0131 -0.0468
31005W        W47079  10.037   5.068  12.822 -0.0018 -0.2960  0.2458
31006W        W47080  15.740   0.642  13.382 -0.1802 -0.2209 -0.0229
31007W        W47081   5.659   1.223   3.308  0.1636  0.1649  0.0055
31008W        W47082  11.154  17.128   2.214 -0.0154  0.0216  0.0841
31009W        W47083   1.179   7.854  14.361  0.3681 -0.0781  0.0089
31010W        W47084   1.212   1.680  13.428 -0.0137 -0.1544 -0.3532
31011W        W47085   7.754   2.734   3.744  0.0100  0.0844  0.1336
31012W        W47086   7.174   7.142  13.503  0.1686 -0.0049  0.2295
31013W        W47087   1.450   0.455  14.712 -0.0145 -0.0462  0.0274
31014W        W47088   2.591   1.076   2.058  0.1679 -0.0024 -0.0291
31015W        W47089   6.904  13.117  12.619  0.0736 -0.1385  0.0374
31016W        W47090  10.092  17.986  15.735 -0.1063 -0.1863 -0.2658
31017W        W47091   1.361   1.083   2.504 -0.3590  0.0923 -0.0014
31018W        W47092  14.833   9.812   3.771  0.1105 -0.1760  0.0355
31019W        W47093   1.123   9.839   3.056  0.0175 -0.3550 -0.0050
31020W        W47094   2.404   1.103  16.431  0.3448  0.2498  0.1525
31021W        W47095  13.327  12.490   0.951  0.2918  0.0057 -0.0838
31022W        W47096   2.693   6.589  15.172  0.0056  0.3714 -0.0912
31023W        W47097  16.031  10.323  14.479  0.0329 -0.1136 -0.2944
31024W        W47098   3.730  15.574   5.290 -0.2557 -0.2444  0.0354
31025W        W47099   4.346   5.470   2.935  0.1979 -0.4127 -0.2465
31026W        W47100   4.109   2.746  11.682  0.3180 -0.0157 -0.0673
31027W        W47101   1.880   6.958   0.339 -0.1402  0.0722 -0.1284
31028W        W47102   4.579  17.420   5.465  0.1284  0.0884 -0.3672
31029W        W47103   9.623   8.132  14.829  0.0605  0.2400  0.1142
31030W        W47104   0.942   8.159  15.904  0.3160 -0.0327 -0.0344
31031W        W47105   2.590  13.390   5.159  0.0474  0.0934 -0.0447
31032W        W47106   9.355   9.821   3.258 -0.1104  0.1640 -0.3132
31033W        W47107  11.863  14.793   2.751 -0.2973 -0.2897 -0.2078
31034W        W47108  15.945  15.196   4.289  0.0556  0.0514 -0.0816
31035W        W47109  14.863   3.001   5.321  0.1497  0.2569  0.0018
31036W        W47110   0.539  11.648   4.808  0.2064 -0.5167 -0.3160
31037W        W47111  11.806  13.375  14.398  0.1318 -0.1378 -0.1330
31038W        W47112  17.423   0.789   2.911  0.2040 -0.1124 -0.1662
31039W        W47113  10.897   2.392  12.991  0.0057 -0.0569  0.0543
31040W        W47114   8.507   4.123  14.619 -0.1340  0.0919  0.0560
31041W        W47115   7.384  14.425   3.246 -0.3406  0.1992 -0.0167
31042W        W47116   7.596  10.483  12.574  0.0783 -0.2150 -0.0418
31043W        W47117  10.229   6.514   2.026  0.0155  0.0715  0.0577
31044W        W47118   5.223   9.089  11.556  0.2306  0.0003 -0.1299
31045W        W47119   2.814   2.469  14.557  0.0438  0.4136  0.1741
31046W        W47120   9.338   8.635  14.014  0.2097  0.1388 -0.2261
31047W        W47121  11.562   9.537   0.099  0.1325  0.0306  0.0334
31048W        W47122  14.768   5.374   4.981  0.0116 -0.1629 -0.1248
31049W        W47123   8.870  15.717  15.656 -0.0929 -0.1241  0.5224
31050W        W47124  13.712   8.101  14.317 -0.4901  0.4071  0.1554
31051W        W47125  17.336   9.123   5.191  0.0742 -0.4388  0.1057
31052W        W47126  11.520   5.862  12.723  0.0655 -0.0863 -0.0688
31053W        W47127   4.472  10.590  14.478 -0.0355 -0.2245 -0.1321
31054W        W47128  17.048   4.561   3.908 -0.2780 -0.1877 -0.1482
31055W        W47129  14.279  12.378   2.317 -0.0495 -0.1724  0.1594
31056W        W47130  18.152  15.520   1.307  0.2649 -0.2792 -0.0242
31057W        W47131   0.570  18.153  14.264  0.1387  0.1134  0.1572
31058W        W47132  13.818   5.465   5.141  0.0857 -0.0111 -0.1514
31059W        W47133   3.324  14.807   0.095  0.1492 -0.3695 -0.1048
31060W        W47134  18.246  14.344  16.068  0.4527  0.0063 -0.0256
31061W        W47135   4.083  15.934  15.401 -0.0983  0.3947 -0.0446
31062W        W47136   7.747  10.421   5.301 -0.0117  0.3395  0.0416
31063W        W47137  14.840  13.028   1.193  0.2164  0.0027  0.3487
31064W        W47138   5.409  14.900  12.758 -0.1045 -0.1119  0.1156
31065W        W47139  14.703   0.191  11.896  0.0618 -0.1325 -0.0743
31066W        W47140  16.253  13.879  14.158 -0.2507 -0.4674 -0.1949
31067W        W47141  14.197   6.575  13.139 -0.0822 -0.2355  0.0599
31068W        W47142  14.713   2.231  13.266  0.1022  0.0124  0.1490
31069W        W47143  11.897   1.838  11.877 -0.2022 -0.3959  0.3746
31070W        W47144  13.609  14.641   3.116  0.0395  0.2414  0.0256
31071W        W47145   7.481   8.992   4.455 -0.1752  0.0034  0.2034
31072W        W47146   1.117   8.235  13.945 -0.0143 -0.1645  0.1639
31073W        W47147   4.758   2.975   5.362  0.0017  0.1474 -0.7310
31074W        W47148  12.618  11.266  14.897  0.0166  0.2531  0.3511
31075W        W47149   7.608   1.332   5.915  0.0142  0.0508  0.0684
31076W        W47150   2.010   7.358  16.426 -0.0481 -0.0569  0.2795
31077W        W47151   2.866   3.419   5.282 -0.1841 -0.0434  0.1631
31078W        W47152   1.298  11.872   1.207 -0.0057  0.0972  0.1004
31079W        W47153  10.478   3.492   3.251  0.2836  0.0374  0.2447
31080W        W47154  11.390   0.771  12.917  0.1297 -0.0077  0.0202
31081W        W47155   8.050   0.347  14.604  0.3547  0.0571  0.0729
31082W        W47156   5.683   3.279  13.897 -0.2135  0.2024  0.2845
31083W        W47157   2.504   8.815   5.010  0.0528  0.0580 -0.1381
31084W        W47158  10.720  16.973   1.867 -0.3593 -0.3540  0.2793
31085W        W47159  14.510  16.106   0.244  0.3292 -0.2168 -0.2165
31086W        W47160  11.479   7.073   2.053 -0.0836  0.1009 -0.2761
31087W        W47161  12.740  13.321  11.525 -0.0670 -0.2535  0.2270
31088W        W47162   4.754  14.347  12.426  0.0419 -0.0922  0.2465
31089W        W47163  14.305  13.462  15.578 -0.1142  0.2508  0.1892
31090W        W47164  13.423  15.200  13.117 -0.0978 -0.0777 -0.0713
31091W        W47165   6.268  17.975   0.216 -0.2016  0.0380 -0.3039
31092W        W47166   6.756   0.074  14.430  0.2534 -0.5224 -0.0761
31093W        W47167   8.054   1.542  14.443 -0.1234  0.0076  0.6593
31094W        W47168   1.376  17.249  15.337  0.1830  0.1785 -0.1097
31095W        W47169  13.961   8.844   2.893 -0.1984  0.1164 -0.0324
31096W        W47170   5.354  16.186   3.605  0.0311  0.1212 -0.3567
31097W        W47171  17.965   3.389   2.294  0.2567  0.1017 -0.0230
31098W        W47172   0.438  15.468   2.988  0.1087 -0.1421 -0.0024
31099W        W47173   3.139  14.176  13.676 -0.3397 -0.0026  0.0558
31100W        W47174   9.969  14.629  11.300 -0.5490  0.2599 -0.1407
31101W        W47175  11.216  15.578   0.742 -0.1308 -0.0841 -0.0138
31102W        W47176   8.780  15.970   5.329 -0.0011 -0.1457 -0.0868
31103W        W47177  15.562   4.295   5.332  0.1739 -0.0128  0.4465
31104W        W47178   3.209   9.784  13.170  0.1380  0.2606 -0.0456
31105W        W47179   4.204  11.255   3.296 -0.1708 -0.0906 -0.2093
31106W        W47180  11.700   4.267  14.747  0.1207 -0.0706 -0.1495
31107W        W47181  12.247   8.822  16.044  0.2832 -0.0031  0.1820
31108W        W47182  13.387  12.746  15.895  0.0096 -0.3610  0.1680
31109W        W47183   9.656  15.095   3.706 -0.0553 -0.0775 -0.0931
31110W        W47184   8.047  12.090  13.284 -0.2514 -0.1374  0.1797
31111W        W47185  15.818  10.878  13.162  0.0465 -0.0012  0.0089
31112W        W47186   4.742   7.908  15.709  0.2196 -0.1853  0.2793
31113W        W47187   6.589   8.162   0.910 -0.1566 -0.3433  0.0210
31114W        W47188   9.096   8.653  11.926 -0.2564 -0.0989  0.0162
31115W        W47189   5.710   6.549   3.325 -0.0188  0.0331  0.0026
31116W        W47190   0.184   4.540   0.999 -0.1661 -0.1988 -0.0059
31117W        W47191   5.697   1.478  15.265 -0.0717 -0.2380 -0.4076
31118W        W47192  14.832   3.739   5.167 -0.0420 -0.1031  0.0078
31119W        W47193  17.520  16.634   3.742  0.0517  0.2107  0.2153
31120W        W47194   8.747   1.097   5.015  0.1362 -0.2088 -0.2231
31121W        W47195   0.773  16.547  12.869 -0.1326 -0.1684 -0.1855
31122W        W47196   2.027   8.950   1.009  0.2767 -0.2372  0.0487
31123W        W47197   0.060   3.123  11.507  0.0101 -0.1579  0.2167
31124W        W47198  14.336  13.443   2.075  0.2144 -0.0018  0.2576
31125W        W47199  14.861  10.508   2.572 -0.0472  0.3182  0.1763
31126W        W47200   4.023  12.166  12.812 -0.1432  0.3044 -0.0741
31127W        W47201  10.004  13.321  16.146  0.0599 -0.0798  0.0540
31128W        W47202   2.033   0.458   2.491 -0.1393  0.0957 -0.0171
31129W        W47203   7.467   2.692  12.972  0.0551  0.1505 -0.2919
31130W        W47204  10.647   3.442   4.696 -0.0615  0.1549  0.1809
31131W        W47205   5.448   8.225  12.533  0.1282  0.1729 -0.0570
31132W        W47206  14.196   5.108  14.993 -0.0300 -0.0369  0.1026
31133W        W47207   0.958   0.462   0.254  0.0763 -0.3325 -0.2755
31134W        W47208   5.669  10.126   3.552 -0.2188  0.0131 -0.0570
31135W        W47209   8.997  10.600  13.033 -0.0759  0.1976  0.4165
31136W        W47210   5.946  17.356  14.059  0.1525 -0.0785 -0.0122
31137W        W47211   1.632   9.405  12.778  0.0569  0.1839  0.1105
31138W        W47212   5.109  13.686   1.210 -0.1553  0.1415 -0.1389
31139W        W47213  13.653  18.002  12.202 -0.1630 -0.0044  0.0090
31140W        W47214   6.155   4.579   4.516 -0.2522  0.0352  0.1596
31141W        W47215  10.565  13.554   3.188  0.0822  0.1536 -0.1509
31142W        W47216   4.361   8.820   5.336  0.1749 -0.1847  0.1982
31143W        W47217  11.117  12.645   2.447  0.1711 -0.1182 -0.2937
31144W        W47218   2.149  17.738   0.765 -0.2282 -0.0316  0.0688
31145W        W47219  15.354   2.348   3.439 -0.0586  0.0408 -0.0066
31146W        W47220  18.062   7.479   0.713  0.2054 -0.0266  0.2844
31147W        W47221   1.136  10.773   5.464 -0.2192 -0.0131  0.2209
31148W        W47222   7.047   5.843   2.932  0.0849 -0.1291  0.2881
31149W        W47223   6.195  13.353   0.455 -0.0788  0.0643 -0.2221
31150W        W47224   2.074   2.202   4.583 -0.0531 -0.1652  0.0490
31151W        W47225  11.155   9.563   0.969  0.2578  0.0521 -0.0279
31152W        W47226  13.845  10.427   1.450 -0.2625 -0.0148 -0.2481
31153W        W47227  17.160  14.228   2.293  0.0271  0.1177  0.0622
31154W        W47228   7.752   0.416  11.869  0.1988  0.0940 -0.1770
31155W        W47229   3.182   5.463   1.035 -0.1005 -0.2947 -0.4081
31156W        W47230  10.767   2.457   3.563 -0.0613 -0.2418  0.1473
31157W        W47231   8.111  13.350  11.928 -0.0702 -0.1922 -0.2392
31158W        W47232  15.458   4.236  15.934 -0.0835  0.1444  0.1829
31159W        W47233   2.516   8.793  14.965  0.0345 -0.0590  0.0970
31160W        W47234   8.723  15.868   0.039 -0.3627  0.2069 -0.0124
31161W        W47235   0.467   8.465   4.313  0.0785  0.2361 -0.0219
31162W        W47236  17.831   6.469  11.505  0.2379 -0.1773 -0.2814
31163W        W47237  14.508  17.758   0.199 -0.0245 -0.0889 -0.4897
31164W        W47238  14.074   3.434   3.536 -0.1674 -0.0323  0.1846
31165W        W47239   8.897   4.124  14.964 -0.0500 -0.1690 -0.2780
31166W        W47240  15.617   1.695  12.501 -0.2051  0.0532  0.0493
31167W        W47241   0.215  13.973  11.309  0.0220 -0.2742 -0.2847
31168W        W47242   0.066   2.645   2.271  0.2359  0.0513 -0.1922
31169W        W47243  15.832   9.938  13.123 -0.3881  0.2744 -0.1029
31170W        W47244  10.803  17.705   4.040  0.1892 -0.2002  0.0251
31171W        W47245  18.066   7.610  13.496  0.2895 -0.1477  0.1137
31172W        W47246   6.059  12.473  14.669  0.1274 -0.2240  0.0719
31173W        W47247   5.387   1.618  14.763 -0.2906  0.0353 -0.0242
31174W        W47248   3.343   3.913  12.369  0.2396  0.3036  0.2064
31175W        W47249  10.308   1.387  14.486  0.3395 -0.3820  0.1624
31176W        W47250   3.849  14.127  15.483 -0.1823 -0.1060  0.1244
31177W        W47251  10.307  10.964   1.050  0.0623 -0.0906 -0.1311
31178W        W47252   3.560   6.641   3.596 -0.0961  0.0066  0.0788
31179W        W47253  14.180   2.235   2.411 -0.2540  0.1547  0.0287
31180W        W47254  17.023   8.315   1.091  0.1570  0.2953 -0.2742
31181W        W47255   6.112   4.191  16.427 -0.1683 -0.0352 -0.1811
31182W        W47256   6.691  10.821  12.518 -0.1843 -0.0380 -0.1146
31183W        W47257  11.917   5.185   2.149 -0.2067 -0.0740  0.1095
31184W        W47258   3.033   2.646   6.230 -0.0187 -0.2389  0.0971
31185W        W47259   7.931  11.888  14.609 -0.1752 -0.2259 -0.1503
31186W        W47260   3.170   5.054   5.895 -0.0727  0.3694 -0.2679
31187W        W47261   5.741  11.536  13.616 -0.1118 -0.0081  0.3855
31188W        W47262   1.204   0.034   0.420 -0.1044 -0.3054 -0.0849
31189W        W47263  16.454  16.416   4.121  0.1941  0.0356  0.0054
31190W        W47264   8.068  12.696  16.291 -0.0377 -0.1329 -0.3050
31191W        W47265   0.580   3.204  11.478  0.2739  0.2096 -0.0474
31192W        W47266  12.569   7.708   4.345  0.0012  0.0855  0.0887
31193W        W47267   5.263  12.452  15.486 -0.0358 -0.3294  0.1752
31194W        W47268   2.054  14.583  12.379 -0.4038  0.3144  0.1246
31195W        W47269   7.545  10.643   4.430  0.1293 -0.0065 -0.0085
31196W        W47270  14.123   1.734  16.222  0.0453 -0.3554 -0.2157
31197W        W47271   3.936  16.293   3.278 -0.0798 -0.0649  0.1509
31198W        W47272  15.362   6.223  13.597 -0.1003 -0.0897 -0.2633
31199W        W47273  15.954   1.280   0.034  0.3253  0.1280  0.2474
31200W        W47274  13.682  13.771   4.925 -0.1941  0.2190  0.4249
31201W        W47275   9.203  11.377   3.562 -0.3004  0.0818  0.0888
31202W        W47276  13.935   3.301   5.313  0.2716 -0.0127  0.0242
31203W        W47277   9.643  14.777  13.546  0.2332 -0.0538  0.0214
31204W        W47278  18.072  14.968  11.318 -0.5634 -0.1286  0.1983
31205W        W47279  15.992   1.205   3.276 -0.3074 -0.0925 -0.3256
31206W        W47280  13.952  13.173  15.408  0.2317  0.1534 -0.2226
31207W        W47281   7.691  13.051   2.748 -0.0155  0.2414 -0.1314
31208W        W47282  16.578  15.203   0.711 -0.0857 -0.0356 -0.0089
31209W        W47283  15.328   9.573   4.199  0.0955 -0.1083 -0.1395
31210W        W47284   6.072  15.140  11.927 -0.1989 -0.0711 -0.2155
31211W        W47285   0.007   8.001   3.655  0.0642  0.2979  0.1042
31212W        W47286   1.166   8.693  16.087 -0.0363 -0.0087  0.4361
31213W        W47287  10.183  12.941  14.185 -0.2170 -0.0473 -0.0812
31214W        W47288  16.148   4.050  13.626 -0.0956 -0.2281  0.1886
31215W        W47289  11.997   5.668   2.310 -0.0567 -0.1352 -0.3342
31216W        W47290  11.438  13.726   3.554  0.1331  0.1528  0.0297
31217W        W47291   1.923  16.396   0.878 -0.0656  0.2138 -0.0639
31218W        W47292   8.930  10.868   1.115  0.0202 -0.1375  0.0893
31219W        W47293  10.205   3.866   5.875  0.2647 -0.1110 -0.1657
31220W        W47294  10.011  14.318   5.352  0.0016  0.0319 -0.2501
31221W        W47295   3.833  13.415   4.478 -0.0323 -0.0214  0.0032
31222W        W47296   9.883   2.236  15.664 -0.0018  0.0435  0.0663
31223W        W47297  12.818   7.310  16.264 -0.0040 -0.1272  0.0591
31224W        W47298   7.173   8.090  12.620 -0.2374 -0.0349  0.3579
31225W        W47299  16.267  10.819  15.780 -0.1593  0.2552 -0.1191
31226W        W47300   9.665   5.204  14.387 -0.1866 -0.1969 -0.0673
31227W        W47301  10.799   7.581  15.031 -0.6906  0.1780  0.0021
31228W        W47302   3.071  10.708  13.524  0.1528  0.0067  0.1807
31229W        W47303  16.798   6.722   4.789 -0.1157  0.3952  0.1833
31230W        W47304   2.442   8.945   9.828  0.1532  0.0362 -0.3170
31231W        W47305  12.056  15.774  14.140  0.0461 -0.1982  0.2143
31232W        W47306   7.699   7.468   2.346  0.1620  0.0279 -0.1031
31233W        W47307  13.279   8.224  13.603 -0.2425  0.2991  0.2772
31234W        W47308  17.869   3.880   5.603 -0.1553 -0.1783 -0.0152
31235W        W47309   8.722  15.030  15.282  0.1358 -0.0733  0.1341
31236W        W47310  17.518  15.774  11.197 -0.1624  0.3904 -0.0615
31237W        W47311  14.577  10.120  15.826  0.0312 -0.0393  0.0791
31238W        W47312  10.488   9.615   0.251 -0.5154 -0.3114  0.1390
31239W        W47313  10.757   0.418  11.695  0.0548 -0.0350 -0.0055
31240W        W47314   0.093   1.851  14.875 -0.1284 -0.0245 -0.1222
31241W        W47315  10.762  11.169   1.064  0.1084 -0.1502 -0.2992
31242W        W47316   2.173  10.924  13.478 -0.0788  0.2900  0.1399
31243W        W47317  12.074  10.896   5.467 -0.0674  0.0658 -0.1070
31244W        W47318   4.079  13.146  13.173 -0.2527 -0.3846  0.0780
31245W        W47319   0.568  10.354  15.276 -0.1248  0.0394 -0.1264
31246W        W47320  12.293  11.928  16.020  0.3271  0.0452  0.2895
31247W        W47321  11.512   9.868  11.847 -0.0974  0.0505  0.1941
31248W        W47322   2.224   5.775  14.588 -0.1882 -0.2764  0.1023
31249W        W47323  15.385  10.836   3.673  0.1578  0.1847 -0.1211
31250W        W47324  13.373  12.232   1.436 -0.1356  0.3212  0.0101
31251W        W47325  10.706  15.045   2.872 -0.3839  0.2128  0.0612
31252W        W47326  11.813  15.182  15.807 -0.0342  0.2937  0.1089
31253W        W47327   9.375   9.938   0.671  0.0938 -0.0868 -0.1728
31254W        W47328   7.842  16.706  13.701  0.0509 -0.1308  0.0815
31255W        W47329  12.100  17.340   0.223 -0.0456  0.0126 -0.0845
31256W        W47330  16.274   4.505  15.905 -0.0109 -0.2298 -0.0244
31257W        W47331   3.487  17.447  14.018 -0.3124  0.1799  0.3743
31258W        W47332   7.205   4.916   2.661  0.1303  0.2170  0.1020
31259W        W47333  18.096   6.631   0.445 -0.1151 -0.0936  0.2078
31260W        W47334   2.569  17.757  11.332 -0.2056 -0.0959 -0.3677
31261W        W47335   5.802  10.930   4.067 -0.0329  0.0983 -0.1621
31262W        W47336  16.167   8.397  13.153 -0.2106 -0.0665  0.2148
31263W        W47337   2.597   8.384   0.249  0.2019  0.0857 -0.3564
31264W        W47338  11.941  15.890   5.970 -0.1642  0.3579  0.0861
31265W        W47339   9.935   7.901  11.518 -0.0769  0.1425  0.0387
31266W        W47340  15.158   1.785   5.669 -0.2068  0.0322 -0.0743
31267W        W47341  16.046   1.781  15.671  0.0827 -0.0233 -0.0153
31268W        W47342  13.942  16.151  12.279 -0.0804 -0.2039  0.1607
31269W        W47343   5.596   9.535  12.411  0.0881  0.0123 -0.2629
31270W        W47344  11.450   5.906  11.674 -0.1584  0.1093  0.0036
31271W        W47345   7.661   8.732   5.582 -0.2435 -0.0492  0.1718
31272W        W47346  17.314  12.483  14.527  0.2722 -0.0331  0.1316
31273W        W47347   3.044   7.756   3.071 -0.0371 -0.1118 -0.2879
31274W        W47348   5.079   1.049  14.155  0.0070 -0.2808  0.0705
31275W        W47349  14.674  12.500  12.036 -0.0136 -0.1730  0.0603
31276W        W47350   6.713  10.392  12.162  0.2633  0.0696  0.2628
31277W        W47351   1.980   7.827   0.229 -0.0374  0.0973  0.0878
31278W        W47352  13.086   0.425   4.653  0.0495  0.0194  0.1646
31279W        W47353   7.744   5.091  12.012  0.2908  0.1389  0.1923
31280W        W47354   0.883  17.303  15.406  0.1212  0.0366  0.0966
31281W        W47355  15.759   3.528  14.753 -0.0556 -0.0913  0.1323
31282W        W47356   2.488   5.523  12.724  0.0236  0.0942 -0.1036
31283W        W47357   0.047   9.799  14.955 -0.0761 -0.1863  0.0359
31284W        W47358  13.649   4.583   0.714  0.0957  0.0158 -0.0580
31285W        W47359   8.020   0.860   4.362  0.3647 -0.2654  0.1221
31286W        W47360   7.746   3.693  11.969 -0.2085 -0.1228  0.0917
31287W        W47361  10.087   8.167  14.826  0.2005  0.1206  0.1462
31288W        W47362  13.041  16.577   1.428 -0.0535  0.0319 -0.0757
31289W        W47363   8.802   7.443  12.525  0.2811  0.1616  0.1558
31290W        W47364   8.759   7.687   5.083 -0.1967 -0.1808  0.3562
31291W        W47365  14.143   0.198   3.451 -0.3236  0.1013  0.3222
31292W        W47366   7.187   1.867  12.911  0.0235 -0.1860  0.0869
31293W        W47367   7.958   4.896   0.267 -0.0750 -0.0833 -0.1666
31294W        W47368  13.892  12.072   3.072  0.3798 -0.1735  0.0182
31295W        W47369  13.177   6.379   2.923 -0.4649  0.0269  0.1053
31296W        W47370   6.363   3.453  14.643  0.0440  0.0924  0.1968
31297W        W47371   1.929  15.576   4.737 -0.1290  0.0689 -0.1585
31298W        W47372   7.668  12.434  15.615  0.0458  0.0345 -0.0129
31299W        W47373   9.734   8.462  15.255 -0.1343 -0.2106  0.1928
31300W        W47374  14.969  11.253  14.146 -0.0985  0.0132  0.0704
31301W        W47375   2.393  14.505  13.726 -0.1027 -0.0034 -0.0412
31302W        W47376   4.864   0.193  16.476 -0.1063 -0.3893 -0.2384
31303W        W47377  14.378  12.492  15.666 -0.2091  0.1631  0.2675
31304W        W47378  12.973   0.094   5.502  0.1295  0.0734  0.1475
31305W        W47379   1.364   5.809  13.462 -0.0613 -0.0180 -0.1805
31306W        W47380  11.284  17.819  13.498 -0.0483  0.3541  0.1000
31307W        W47381  14.896   3.469  14.337 -0.2290 -0.2502  0.3732
31308W        W47382  12.825  10.678  15.216 -0.1424  0.0618  0.1010
31309W        W47383   2.608   9.607   0.803  0.3367  0.0024 -0.1431
31310W        W47384  11.904  11.553   2.733  0.0021 -0.0206  0.3320
31311W        W47385  16.203   0.803   2.539  0.1139  0.0797  0.2763
31312W        W47386  13.768   1.022  14.566 -0.1912 -0.0516  0.1833
31313W        W47387   0.949  17.185  11.694  0.2505  0.0251  0.0867
31314W        W47388  13.828   0.511   5.085 -0.2800 -0.1772  0.2467
31315W        W47389   4.360   4.603   2.998 -0.1129  0.2540  0.0200
31316W        W47390   6.364  16.151  12.595 -0.3092 -0.2008 -0.0216
31317W        W47391   6.608  16.915  12.580 -0.2810 -0.3663 -0.1198
31318W        W47392  14.713   0.580   3.035 -0.3020  0.0306  0.1996
31319W        W47393   0.635  12.139   4.899 -0.4060 -0.2204  0.0515
31320W        W47394   5.920  11.120  14.818  0.0300  0.0704 -0.1490
31321W        W47395   3.625  15.977   1.609  0.4094 -0.2525  0.0269
31322W        W47396   8.927  12.194  13.235 -0.1675  0.3868  0.1018
31323W        W47397   6.028   4.490   0.803 -0.0708 -0.2500  0.3457
31324W        W47398   3.774   9.155   2.294 -0.1134 -0.0458 -0.2179
31325W        W47399   6.684   0.670   2.354 -0.1203 -0.3626 -0.0580
31326W        W47400   8.557  16.445   1.564 -0.2790  0.2054  0.0450
31327W        W47401   8.735  11.353  12.434  0.3327 -0.0483 -0.2893
31328W        W47402   1.519   5.387  15.791  0.1582 -0.0923  0.1976
31329W        W47403   8.077  16.121   5.301  0.0184  0.0317  0.0642
31330W        W47404   8.208   4.808   2.719 -0.0816  0.2921 -0.0349
31331W        W47405  16.150   3.837   6.320 -0.2238 -0.1435 -0.5026
31332W        W47406  14.227   2.041  11.954  0.3388 -0.2573 -0.1687
31333W        W47407  11.984   9.327   0.328  0.1204 -0.0168 -0.1810
31334W        W47408   3.787   6.167   4.208  0.1588 -0.1385  0.0895
31335W        W47409  16.100  15.368   2.062  0.1133 -0.0075 -0.1275
31336W        W47410  11.125  17.900  12.514  0.1390  0.0716  0.0808
31337W        W47411  17.779   2.102  11.623  0.0008 -0.3410 -0.0867
31338W        W47412  12.191   7.067  11.647  0.0543 -0.2122  0.0218
31339W        W47413   6.861  14.332  13.030 -0.1898  0.0954  0.2570
31340W        W47414   0.196   1.004   2.519  0.3089 -0.1848 -0.0141
31341W        W47415   1.364  13.659   3.056  0.0630  0.1968 -0.1856
31342W        W47416   7.682   8.147  12.378 -0.3427  0.3621 -0.0572
31343W        W47417  13.779   5.163  14.241 -0.2098  0.1578 -0.0381
31344W        W47418   7.888   3.908  12.829 -0.3178  0.1886 -0.2292
31345W        W47419   6.961  14.593  14.073 -0.1649 -0.1186 -0.0388
31346W        W47420  10.445   7.390  14.202 -0.2222 -0.0764 -0.0310
31347W        W47421  10.109  11.370   5.365  0.2737 -0.1044 -0.2517
31348W        W47422  11.558   4.329   3.699 -0.1890  0.0709  0.0545
31349W        W47423  12.380  15.092  16.303 -0.0030 -0.0906  0.1114
31350W        W47424  10.634   8.243   4.887  0.1028 -0.0042  0.2970
31351W        W47425  13.960   4.467   1.461 -0.1748  0.2177  0.2402
31352W        W47426   8.379  18.072  15.716  0.2911  0.0098  0.0055
31353W        W47427   2.258  17.844  12.224  0.0201 -0.2730  0.0010
31354W        W47428   4.528  12.551   1.586 -0.0545 -0.0141  0.1172
31355W        W47429   8.723   4.245   6.016  0.2207  0.0310 -0.0329
31356W        W47430  16.476   9.413   3.302  0.1786 -0.0930  0.2732
31357W        W47431   7.355  11.248  14.216 -0.0552  0.1257 -0.0405
31358W        W47432  10.258   2.036  14.149  0.1967 -0.2819  0.1266
31359W        W47433  13.164  10.371  16.121  0.1366 -0.0313  0.1293
31360W        W47434   7.872   2.125  13.094  0.1358  0.1742  0.0055
31361W        W47435   4.210  15.126   1.774  0.0328 -0.1650  0.0002
31362W        W47436   8.011   2.384   1.525  0.0807  0.0345  0.1495
31363W        W47437  11.700  15.363   0.951 -0.0638  0.0091  0.0901
31364W        W47438   8.231  16.951   2.316  0.2552 -0.3100 -0.2630
31365W        W47439   8.152  13.905  12.140 -0.0636 -0.2540 -0.0208
31366W        W47440  14.961   1.791   0.771  0.0763  0.2735 -0.1815
31367W        W47441   1.652  13.540   3.419  0.2214 -0.0418 -0.0615
31368W        W47442   5.279  15.165   3.701  0.1036 -0.0667  0.1992
31369W        W47443   3.940  14.492  15.136  0.3848  0.0967  0.3648
31370W        W47444   0.101  11.994  14.545 -0.1481  0.3097  0.1947
31371W        W47445  10.528  17.528   3.673  0.0123 -0.0211  0.2630
31372W        W47446  15.773  18.237  12.922  0.2354 -0.2042  0.0488
31373W        W47447  14.471  16.019  12.385 -0.0326 -0.1884 -0.2017
31374W        W47448   1.509  17.322   6.287 -0.1016 -0.1398 -0.2150
31375W        W47449  15.150  17.022   4.236 -0.0443  0.0208  0.1292
31376W        W47450  15.644   9.130  15.589  0.3521 -0.0287  0.0662
31377W        W47451  11.636  17.601   0.820 -0.1479  0.0415  0.0563
31378W        W47452   7.178   3.397   3.340 -0.0185 -0.0089  0.4100
31379W        W47453  15.395   3.533   4.683 -0.2066  0.2883 -0.2602
31380W        W47454  10.555  13.179  14.568  0.1022  0.0090  0.0417
31381W        W47455   0.589   4.079  15.714  0.0260  0.0901 -0.2891
31382W        W47456   8.044   9.025  15.030 -0.0536 -0.1990 -0.2031
31383W        W47457  13.979  15.811   3.981 -0.0891  0.0967 -0.0055
31384W        W47458  15.085  10.577  11.721 -0.2056  0.1179 -0.2467
31385W        W47459  14.209  16.208  14.035  0.2657 -0.1240 -0.0562
31386W        W47460   3.852  16.270   4.821 -0.0584 -0.2325  0.2306
31387W        W47461  16.364   8.519  11.963  0.1790  0.2462 -0.0049
31388W        W47462   6.066   3.971   1.011  0.0793 -0.1400  0.2125
31389W        W47463  15.090  13.565  13.576 -0.1742 -0.1160  0.0764
31390W        W47464  11.038  13.475   0.745 -0.0185 -0.0390 -0.2743
31391W        W47465   7.363  12.571  16.084 -0.2150  0.0222 -0.0785
31392W        W47466  17.023   9.451   4.100  0.2190  0.0283 -0.2392
31393W        W47467   6.770   5.966  15.355  0.0980  0.0490 -0.0423
31394W        W47468  12.670   0.402   0.805 -0.1032 -0.0429  0.1258
31395W        W47469   7.370  17.213   5.610 -0.1735 -0.3069  0.0419
31396W        W47470   1.491   8.821  14.794  0.0042 -0.1102 -0.1586
31397W        W47471   3.370   1.069   0.779 -0.0739 -0.3665 -0.2412
31398W        W47472   1.979   4.485  15.750 -0.2094 -0.1725 -0.0444
31399W        W47473   5.523   1.012   6.548  0.0537  0.0265  0.3228
31400W        W47474  13.887  15.230   5.103  0.0503  0.0477  0.2565
31401W        W47475   9.960   2.425   3.943 -0.1882 -0.1344 -0.1027
31402W        W47476  17.791   4.199   5.260 -0.3102 -0.1096  0.0360
31403W        W47477  16.216   6.957  13.055 -0.0405  0.2557 -0.0737
31404W        W47478   3.966  17.957  13.819 -0.1790  0.0048  0.1057
31405W        W47479  10.484  16.288  13.017 -0.0881 -0.0526  0.0145
31406W        W47480   9.132   0.391   0.625  0.3043 -0.4007 -0.2152
31407W        W47481  15.650   5.404  11.612  0.0782  0.2960  0.1452
31408W        W47482  10.696  12.476   2.205 -0.2976  0.3821  0.0249
31409W        W47483   5.742   3.710   4.588  0.1239 -0.1342 -0.1569
31410W        W47484   7.631  15.595  13.850 -0.0228 -0.1375 -0.0448
31411W        W47485   4.673   2.837   6.044 -0.0426  0.1834  0.1781
31412W        W47486  16.433   8.427  12.649 -0.1172 -0.2301  0.2413
31413W        W47487   0.076   1.487   1.082 -0.1412 -0.1266  0.1709
31414W        W47488   0.369   7.603   4.770  0.0330 -0.0288 -0.0910
31415W        W47489  16.192   5.656   2.418 -0.0854 -0.0218 -0.1245
31416W        W47490   8.439  16.778   4.138  0.1460  0.2616  0.0539
31417W        W47491  14.178   4.593  14.959  0.0104  0.1994 -0.0412
31418W        W47492  11.599  17.852  13.130  0.2263 -0.1958 -0.0470
31419W        W47493   6.399  16.436  13.888  0.2158  0.2660  0.3951
31420W        W47494  13.240  11.232   1.903 -0.0849 -0.4857 -0.2019
31421W        W47495   5.144  14.495   5.518  0.1227  0.1168  0.1131
31422W        W47496  12.498   1.103  16.284  0.1954 -0.0394  0.1979
31423W        W47497   6.178   0.403  13.777 -0.0313  0.0500 -0.1970
31424W        W47498   7.698   6.367   4.669  0.0100 -0.0403  0.2364
31425W        W47499  10.098  13.749   1.744 -0.2277  0.1084  0.2316
31426W        W47500   4.674   7.639  16.262 -0.3670  0.0541 -0.2104
31427W        W47501  14.114  17.890   2.621  0.1620 -0.1143  0.1765
31428W        W47502   0.513  16.771  15.943 -0.2437  0.0755  0.0147
31429W        W47503   4.463  10.296  11.765  0.3328 -0.0036 -0.0411
31430W        W47504   5.482  16.391  14.953 -0.0940 -0.0475  0.2516
31431W        W47505   0.316   8.180  11.198  0.0309 -0.0807 -0.0938
31432W        W47506   9.714   8.691   4.062 -0.1384  0.2354  0.1436
31433W        W47507  14.971   1.487  12.921  0.2179 -0.1628 -0.1271
31434W        W47508  12.257  15.935   3.379 -0.2391 -0.3662  0.1858
31435W        W47509   5.792  15.803   2.847 -0.0652 -0.0152  0.2193
31436W        W47510   1.073   8.182  14.855 -0.4782 -0.1924  0.0262
31437W        W47511  17.105   7.002  14.288 -0.1560 -0.3205 -0.1498
31438W        W47512   4.900   7.774  14.330 -0.1599  0.2446 -0.2789
31439W        W47513   3.355   8.643  13.043  0.0268  0.1590  0.2325
31440W        W47514  17.549   2.784   2.678 -0.0199 -0.0162 -0.3067
31441W        W47515   4.066  10.917  14.374  0.3316  0.4374  0.1063
31442W        W47516   0.996   0.507  11.434  0.4356  0.2004 -0.3408
31443W        W47517   4.093  10.059   0.193 -0.0446  0.0148 -0.0852
31444W        W47518   8.881  13.245   0.057  0.0621 -0.0570  0.0417
31445W        W47519  14.504   0.533  14.286 -0.2293 -0.1574  0.2258
31446W        W47520  13.534   4.677   1.220 -0.0733 -0.0061 -0.0141
31447W        W47521   3.291   7.530   3.481 -0.2088 -0.1231 -0.1025
31448W        W47522   4.886   3.066   1.537  0.1104  0.1600 -0.0837
31449W        W47523   7.805   7.662   0.465 -0.0744 -0.1505  0.3486
31450W        W47524   1.137  13.173   4.938  0.0801 -0.1618 -0.0326
31451W        W47525  17.464  14.616  11.664  0.3636 -0.0075  0.0565
31452W        W47526   8.131   1.318  16.123  0.0341 -0.1484  0.4841
31453W        W47527   4.636   8.497  14.437 -0.1354  0.0568  0.1432
31454W        W47528   7.137   0.450  13.124  0.3687  0.2700  0.0596
31455W        W47529   8.912   6.038   3.462 -0.2368  0.2411 -0.1513
31456W        W47530  16.524  13.730  14.599 -0.0900  0.2662 -0.0483
31457W        W47531  17.116   5.847  13.752  0.1037  0.1549 -0.3408
31458W        W47532  13.745  13.375   3.733  0.0580 -0.0741  0.0183
31459W        W47533  10.330   3.314  12.291  0.2432  0.3616 -0.2891
31460W        W47534   5.264   6.582  15.573  0.1240  0.1374 -0.1043
31461W        W47535   3.818  15.211   2.140  0.1525 -0.1006 -0.1279
31462W        W47536   8.798  17.892  12.315  0.2013  0.0926  0.1103
31463W        W47537   4.665   0.131   1.868  0.3354  0.1698 -0.1366
31464W        W47538   4.718   6.628   0.774 -0.1142  0.1629 -0.1532
31465W        W47539  17.405  11.181  12.176  0.1494 -0.3243  0.3242
31466W        W47540   7.057  10.339  14.015  0.2460 -0.2645 -0.0970
31467W        W47541  12.962  13.170  13.474  0.1598 -0.0306 -0.4005
31468W        W47542   0.613  11.477   4.348 -0.0283 -0.0210  0.4143
31469W        W47543   4.390   6.454  13.258 -0.0123 -0.0889 -0.3328
31470W        W47544   9.459   0.834  15.521  0.3498 -0.2647 -0.2518
31471W        W47545  16.536   5.721  11.729  0.0840 -0.1396 -0.0315
31472W        W47546   8.068   6.569   4.339 -0.0564 -0.2634 -0.1026
31473W        W47547   7.789   9.510  15.788  0.0919 -0.2984  0.0402
31474W        W47548   3.733   2.105   3.924 -0.0246 -0.5608  0.1304
31475W        W47549  15.578   3.214  12.558  0.0116 -0.1036 -0.2091
31476W        W47550  10.440  14.686   1.592  0.2229  0.3064 -0.0204
31477W        W47551   7.181  14.997   4.670 -0.0544 -0.1566 -0.3430
31478W        W47552  10.638   1.204  15.896  0.0797  0.3723  0.1412
31479W        W47553   9.529   1.773  16.409 -0.2552  0.1032 -0.0399
31480W        W47554   6.487  10.183   1.293 -0.4010  0.3098  0.4216
31481W        W47555   3.841  14.747   2.026  0.0168  0.1096 -0.1038
31482W        W47556   4.617   1.866   2.110 -0.3894  0.0127 -0.2984
31483W        W47557   1.981  11.099  14.345  0.1754  0.1625 -0.2352
31484W        W47558  15.231  16.422   2.848  0.0802 -0.0580  0.2665
31485W        W47559   4.239  17.911   3.383  0.1997  0.1322  0.1688
31486W        W47560   8.314  13.097  15.624 -0.0151 -0.0633 -0.5906
31487W        W47561  15.276   2.747   2.491  0.4342  0.0209  0.1151
31488W        W47562  14.036  10.196   0.980 -0.0349 -0.0998 -0.0895
31489W        W47563  13.047   8.757  16.424  0.1481  0.1445  0.2422
31490W        W47564  13.950  12.070  14.467 -0.1248  0.1363  0.1532
31491W        W47565  11.234   3.673   1.552 -0.1192 -0.0641  0.0641
31492W        W47566  17.160   7.044   3.758  0.0719 -0.0249  0.0575
31493W        W47567   4.464   9.325   0.649  0.0865  0.2071 -0.1434
31494W        W47568  14.786   8.214   4.652  0.2792  0.2249 -0.1623
31495W        W47569  14.067  11.501   2.545  0.0550  0.0472  0.1258
31496W        W47570   1.968   4.324  12.898 -0.4419  0.2482  0.2161
31497W        W47571  16.240   8.775   2.043 -0.2240  0.1571  0.1174
31498W        W47572  17.369  10.395   1.195  0.0510  0.0601 -0.1885
31499W        W47573   6.542  14.736   2.101 -0.1405 -0.3419  0.0565
31500W        W47574  10.149  12.455   4.875 -0.3147 -0.2084 -0.2172
31501W        W47575   0.874   2.611  14.978  0.0743 -0.1776 -0.1774
31502W        W47576   9.639  12.868   1.733 -0.0598 -0.2118  0.2542
31503W        W47577  15.677  15.262   5.119  0.3712 -0.0353 -0.1066
31504W        W47578  12.192  12.615   1.726 -0.2554  0.5784  0.1153
31505W        W47579   7.256   0.682  15.896  0.1785  0.0099 -0.1793
31506W        W47580   1.862  17.419  15.940  0.2415  0.3035  0.0094
31507W        W47581   7.275  17.132  13.346  0.1203  0.0828 -0.0064
31508W        W47582  16.364   6.704   0.970 -0.0440  0.0775  0.1879
31509W        W47583  12.771  10.326  11.917  0.3755 -0.0252 -0.0380
31510W        W47584   1.955  15.062   0.049  0.1324  0.2352 -0.3169
31511W        W47585   2.983   1.230  13.918  0.4422 -0.1096 -0.2401
31512W        W47586   0.226   6.753  14.279 -0.0396 -0.1151  0.0712
31513W        W47587   1.270   6.510  15.907 -0.0671  0.0744 -0.0557
31514W        W47588   1.728  17.528  11.884  0.1541 -0.1344 -0.0795
31515W        W47589   4.252  16.475   4.498 -0.0316  0.1038  0.1967
31516W        W47590   4.778   5.573  15.917 -0.0020  0.2780 -0.0325
31517W        W47591  17.774  10.838  14.907 -0.4127 -0.0031 -0.0733
31518W        W47592  13.013   9.762   2.161  0.2078  0.1438 -0.1278
31519W        W47593  12.720  12.939   5.382  0.3802  0.1399  0.3424
31520W        W47594  10.089  18.180  14.835  0.0883  0.2260 -0.2673
31521W        W47595  13.250  15.586   2.495  0.1393 -0.2626 -0.2097
31522W        W47596   5.424  10.370  12.455  0.1900 -0.0964  0.0937
31523W        W47597  17.453  13.881  16.259  0.0435  0.1895  0.0122
31524W        W47598  13.533  16.659   4.010  0.2146  0.2566  0.0495
31525W        W47599  13.437  17.005   5.680  0.0227 -0.0810  0.2284
31526W        W47600   5.773  17.678   2.427  0.0104  0.3107 -0.2651
31527W        W47601   4.264   3.712  13.885  0.3275 -0.1986  0.2081
31528W        W47602  15.266  11.717  10.677  0.4677  0.3474  0.1425
31529W        W47603  16.458  14.804   4.933 -0.0659  0.0858  0.0826
31530W        W47604   2.384  13.709  15.973 -0.0042  0.0528  0.0442
31531W        W47605   1.859   2.683  14.668 -0.3964 -0.4010  0.0822
31532W        W47606   8.498  11.449  14.012  0.2468 -0.0585  0.1201
31533W        W47607   7.811  10.329   0.415 -0.1257  0.0208 -0.1595
31534W        W47608   4.827   3.959   3.999 -0.0683 -0.1248  0.0652
31535W        W47609   1.794   7.384  15.031  0.3059  0.1401 -0.0504
31536W        W47610   8.058  12.002   4.819  0.4093  0.2323 -0.1893
31537W        W47611  15.546  13.901   1.929 -0.0965 -0.0672  0.0859
31538W        W47612  13.472   5.405  12.346 -0.0549 -0.0960  0.1651
31539W        W47613  12.035  16.482   1.598 -0.1268  0.1810 -0.1347
31540W        W47614   6.836   8.170   3.492 -0.0315  0.2084 -0.0441
31541W        W47615   7.639   4.083   4.675  0.0223 -0.1877  0.0646
31542W        W47616   9.558   6.725   4.781  0.0606  0.0298 -0.1031
31543W        W47617   7.297   9.561   1.421  0.1745  0.2013 -0.2529
31544W        W47618  13.840  10.370  15.055 -0.1544  0.1675  0.1241
31545W        W47619   6.927   7.668  12.797  0.4968 -0.1465 -0.2867
31546W        W47620  10.409   1.545  13.983 -0.0774 -0.0954  0.0379
31547W        W47621   7.288  11.718   2.102  0.0495 -0.1530  0.2587
31548W        W47622  17.615   5.143  12.590 -0.0622  0.1159 -0.1233
31549W        W47623   0.054  14.062   2.835  0.2169 -0.3739 -0.1194
31550W        W47624   3.632  13.327   2.975  0.0280 -0.2230  0.4043
31551W        W47625   0.625   3.637  13.028  0.2411 -0.0032  0.1262
31552W        W47626   3.268   4.258   6.329 -0.1161  0.3268  0.0113
31553W        W47627   9.916   4.581   1.675 -0.0619 -0.1086  0.3232
31554W        W47628   3.250   5.179  15.303 -0.0604  0.3639 -0.1712
31555W        W47629  11.339  10.365   3.904 -0.2071 -0.1062 -0.2636
31556W        W47630  10.423   0.306   0.985  0.0698 -0.1181  0.0290
31557W        W47631   3.775  16.792   3.301  0.0850  0.1639  0.0255
31558W        W47632   9.680  16.823  11.719  0.2028 -0.1507  0.1000
31559W        W47633  16.182  17.556   4.142  0.1151  0.0354 -0.1790
31560W        W47634  17.582  10.056  13.711  0.4089 -0.0557  0.2208
31561W        W47635  12.663   0.196  15.652 -0.0516  0.1641  0.0533
31562W        W47636   0.048   4.035   5.074  0.1118  0.4058 -0.1711
31563W        W47637   9.825   9.499  14.331  0.1751 -0.3663  0.0516
31564W        W47638   8.374   5.837  15.503  0.0978  0.0625  0.1282
31565W        W47639  12.995   1.064  15.142  0.5119 -0.0111 -0.1934
31566W        W47640   9.989  12.880   4.153 -0.0657 -0.1172 -0.0720
31567W        W47641   4.490   4.042  11.616 -0.1487  0.0139  0.3341
31568W        W47642   0.467   2.972   2.038  0.0116  0.3123  0.1298
31569W        W47643  17.800  12.837  12.910  0.0083 -0.1227  0.0921
31570W        W47644   0.953   0.766  12.023  0.2142 -0.0566 -0.0463
31571W        W47645   6.384  14.410  13.448  0.3474  0.0628 -0.1214
31572W        W47646   2.417   1.026   1.542 -0.2773  0.5098  0.1181
31573W        W47647  10.271   1.980   1.285 -0.0264  0.0372  0.0852
31574W        W47648   5.981   7.569   0.008 -0.0870 -0.2601  0.2590
31575W        W47649   1.598   6.594  13.746  0.3336  0.1064  0.5698
31576W        W47650   6.126  12.460   3.518  0.1879 -0.1819 -0.0586
31577W        W47651  14.298  13.199  13.968 -0.2552  0.2211  0.0442
31578W        W47652   8.109   5.800   2.314 -0.1821 -0.1124  0.1463
31579W        W47653   4.760   5.262  13.012 -0.1241 -0.0828  0.0508
31580W        W47654   5.632   0.785  11.791  0.2411 -0.1632 -0.1831
31581W        W47655   8.354   7.751   0.287 -0.1598  0.0215  0.2011
31582W        W47656  17.206   6.450  13.310  0.1321 -0.2786  0.0229
31583W        W47657   4.518  18.248  11.859 -0.1435  0.0753 -0.1841
31584W        W47658   0.242  11.596  12.848 -0.1561 -0.0514  0.1140
31585W        W47659   0.070   4.084   2.989 -0.1466 -0.2272 -0.0888
31586W        W47660  14.669  15.771  12.786 -0.0456  0.1421 -0.1017
31587W        W47661   5.546   3.696  15.324  0.0979  0.2716 -0.1108
31588W        W47662   1.804  15.501   1.366  0.1202 -0.2052 -0.2061
31589W        W47663   8.643   3.886   3.558 -0.2279 -0.1387  0.0852
31590W        W47664  15.461   7.588   1.237  0.0045  0.3069 -0.2020
31591W        W47665   5.761  16.647  15.804  0.0262 -0.2505 -0.0848
31592W        W47666  13.644  17.697   2.275 -0.2167  0.4933 -0.1641
31593W        W47667  16.463   4.856  15.603 -0.4522  0.3205  0.3031
31594W        W47668  13.894  12.629  15.201 -0.1073 -0.0451  0.1354
31595W        W47669  16.965  17.449   5.968  0.2022  0.1570 -0.0327
31596W        W47670  12.149   8.246  11.730  0.0629 -0.2376  0.1377
31597W        W47671   3.253   0.635  12.784  0.0768  0.0239 -0.0680
31598W        W47672  10.687  15.861  16.400 -0.1961 -0.2930  0.1154
31599W        W47673   3.419  10.991  15.235 -0.0553 -0.0336  0.0491
31600W        W47674   2.603  12.721   4.242  0.0962 -0.1560 -0.0993
31601W        W47675   5.080  16.902  13.016  0.1875  0.0765  0.1666
31602W        W47676   4.995   3.082   3.146  0.0539 -0.0652 -0.1032
31603W        W47677   6.486   7.191  12.816  0.0286  0.0655  0.1161
31604W        W47678  11.215   4.524   4.073  0.4616  0.0181  0.1257
31605W        W47679   9.714   2.785  13.534  0.1112 -0.0684 -0.0312
31606W        W47680   7.873  17.065  16.480  0.0050  0.2228  0.0764
31607W        W47681  15.516   7.051  12.531  0.1085  0.2093 -0.1135
31608W        W47682   7.559  13.582   4.698 -0.2008  0.0710 -0.0345
31609W        W47683  18.238   4.271   5.566 -0.1577  0.0933  0.0821
31610W        W47684   3.143   6.534   5.827  0.2926  0.1448  0.2991
31611W        W47685  15.047  15.788  15.915 -0.0577 -0.1495 -0.2543
31612W        W47686  12.813  12.452  11.404  0.0570 -0.0489  0.0741
31613W        W47687   1.430  10.195   2.334  0.0927  0.0467 -0.0079
31614W        W47688  13.214   5.153   4.158  0.1248  0.2042  0.2893
31615W        W47689   7.763  11.953  11.489  0.3928 -0.3253 -0.3432
31616W        W47690   8.742  15.192   6.397 -0.1466  0.2179  0.0814
31617W        W47691  11.753   1.052   5.097  0.0232  0.0212  0.0899
31618W        W47692   8.055   1.653   2.321 -0.0079 -0.0951  0.2033
31619W        W47693   8.703  11.152   5.962  0.1514  0.0174  0.1735
31620W        W47694  16.678   2.671  12.692  0.1368 -0.1029 -0.3091
31621W        W47695  13.130   4.622  12.821  0.0494  0.3203 -0.3421
31622W        W47696  16.247   0.468   1.040 -0.2502  0.1389 -0.3190
31623W        W47697  10.487  17.520   1.908  0.0449 -0.0926  0.1375
31624W        W47698   8.121   3.413   1.682  0.3061 -0.0644 -0.0494
31625W        W47699  13.100  17.280   0.984  0.2004 -0.0054 -0.0934
31626W        W47700  10.413  15.598   5.458  0.1321  0.2353 -0.0345
31627W        W47701  10.752   6.240   5.618  0.1181 -0.1039  0.0754
31628W        W47702  11.771  12.032   4.608  0.0761 -0.1728  0.2068
31629W        W47703   5.183  15.276  14.913 -0.0851 -0.1601  0.0215
31630W        W47704   3.983  17.992  16.284  0.3281  0.4223 -0.2051
31631W        W47705  14.343  17.101   3.418  0.2838  0.4295 -0.0023
31632W        W47706  13.427   7.583  11.996 -0.1354 -0.1019  0.0440
31633W        W47707   9.676   4.241  16.225 -0.2172  0.0883  0.1665
31634W        W47708   5.896  18.144  12.920  0.2957  0.2249  0.0783
31635W        W47709   5.634  11.695   0.232 -0.2255 -0.0757  0.2456
31636W        W47710   6.576  14.277   4.186  0.0966 -0.2301  0.1218
31637W        W47711  12.978   4.222   0.086 -0.1123 -0.1549  0.1751
31638W        W47712   9.159  13.757   1.745  0.0890  0.2630  0.3074
31639W        W47713   3.397  12.562  14.705 -0.0477 -0.1071 -0.1963
31640W        W47714   6.291  12.859   4.494  0.0428 -0.4673  0.1993
31641W        W47715  13.648   5.467   4.124 -0.2441  0.1752 -0.0635
31642W        W47716  12.017   0.809   4.343  0.1261 -0.1341  0.0032
31643W        W47717  16.096   4.743  14.655  0.2125 -0.2330 -0.0424
31644W        W47718  16.244   1.037  12.006 -0.1839  0.2931 -0.0161
31645W        W47719  10.584  16.766   3.004  0.3398 -0.2291 -0.3782
31646W        W47720   3.574  11.215  12.322 -0.4365  0.0098 -0.0183
31647W        W47721   8.861  16.581   0.619  0.0673 -0.0776 -0.3387
31648W        W47722   4.926   5.614  13.501 -0.1403  0.2253 -0.0368
31649W        W47723  11.434   8.228   2.624  0.2420  0.2751 -0.2085
31650W        W47724  15.840   4.537   4.845  0.0922  0.1387  0.1670
31651W        W47725   7.947  14.012   0.296  0.2723 -0.1347  0.1934
31652W        W47726  13.933  17.259  12.248 -0.0106  0.0482 -0.0797
31653W        W47727  15.075   5.146   2.367 -0.1320  0.1375 -0.0893
31654W        W47728   0.271   9.581  14.613  0.1558  0.2212  0.0533
31655W        W47729   0.776  11.236   2.855 -0.1400  0.6726  0.1264
31656W        W47730  13.337   4.643  15.306 -0.0290 -0.1346 -0.2209
31657W        W47731  13.211   2.342  13.669 -0.0847 -0.0663  0.0764
31658W        W47732  14.970  17.573  16.250 -0.0527 -0.3684 -0.0453
31659W        W47733   5.524   8.292  15.107  0.0691  0.1069  0.1035
31660W        W47734   2.362  15.015  16.273 -0.1882  0.1091 -0.3151
31661W        W47735   4.619   8.684  16.290  0.1009 -0.2060 -0.0979
31662W        W47736   1.832  13.577  11.759 -0.0211  0.0251  0.1404
31663W        W47737   7.162   2.054   0.824 -0.0885  0.0419 -0.0563
31664W        W47738   6.922   0.383  13.966 -0.0644  0.0684  0.2700
31665W        W47739   9.485   1.501  14.833  0.0654  0.0174 -0.0614
31666W        W47740   4.199  10.565   2.606 -0.1366  0.0377 -0.4646
31667W        W47741  15.275   1.958   4.699  0.1496 -0.0064 -0.1402
31668W        W47742  16.138  12.382   3.185  0.3780 -0.0798 -0.1205
31669W        W47743   5.922  10.542  12.227 -0.4351 -0.0231  0.0659
31670W        W47744   6.375   0.924  16.099  0.3455  0.1783  0.0704
31671W        W47745  12.840  13.489   5.316  0.0503 -0.2509 -0.0698
31672W        W47746  12.989  11.170   2.884  0.1727 -0.0127 -0.1133
31673W        W47747  17.006   4.393  12.821  0.3384 -0.0141  0.1400
31674W        W47748  11.978  12.571   3.954  0.0877  0.0370 -0.0668
31675W        W47749   9.786   0.189   6.047  0.0469  0.0739 -0.1583
31676W        W47750  16.369   7.927  12.342 -0.0836 -0.1289 -0.1748
31677W        W47751   1.516   0.266  13.366  0.0571  0.3767 -0.0665
31678W        W47752  12.380   9.952   5.979 -0.2326 -0.3772 -0.0400
31679W        W47753  10.027   6.515   4.340 -0.0491  0.0217  0.0999
31680W        W47754   1.278  12.199  14.353 -0.0134  0.1162 -0.2261
31681W        W47755  15.718  13.351   5.263 -0.0520 -0.4324 -0.0795
31682W        W47756   4.467  13.214   4.438  0.1331 -0.1397  0.3779
31683W        W47757  10.254  16.717   0.688  0.0487  0.1418  0.0497
31684W        W47758  15.299   5.747  14.451 -0.1351 -0.2827 -0.1544
31685W        W47759  15.889   3.932   0.111 -0.3591 -0.1435 -0.0050
31686W        W47760  16.145  14.937  13.422  0.2939  0.0077 -0.0102
31687W        W47761   7.387   1.059   1.006 -0.1097 -0.1424  0.1718
31688W        W47762  11.236   4.132   1.276  0.0350 -0.0381 -0.1288
31689W        W47763   2.912   5.883  16.358 -0.3227 -0.5691  0.0956
31690W        W47764  12.369  17.291   2.044  0.0104  0.2791 -0.1584
31691W        W47765  14.880  17.810   5.625  0.1743  0.0331  0.0092
31692W        W47766  16.215   8.098   5.095  0.0718 -0.0391 -0.1054
31693W        W47767   5.121   4.785  14.490  0.3440 -0.2053  0.1772
31694W        W47768   7.788   0.101   5.225  0.1846 -0.3787  0.0896
31695W        W47769   9.317  12.144   5.099  0.2075  0.1922 -0.0704
31696W        W47770  11.342   8.121  11.754 -0.0089  0.0713  0.3546
31697W        W47771  11.417  16.477   5.243 -0.3578 -0.0206 -0.0370
31698W        W47772   9.982  18.192  12.176  0.2004 -0.2664 -0.1440
31699W        W47773   2.521  14.358   2.304  0.1237  0.0472  0.1646
31700W        W47774  11.795   0.508  14.068 -0.1862  0.1151  0.2691
31701W        W47775   8.058   2.385   2.889 -0.0115 -0.0460 -0.0259
31702W        W47776   4.470   6.046  11.457 -0.2565 -0.2268  0.0088
31703W        W47777   7.560   6.893  12.687 -0.0198  0.0387 -0.1355
31704W        W47778   3.390   6.350   2.675 -0.0331 -0.0586 -0.0677
31705W        W47779  15.423  14.233  13.590 -0.3475  0.3816  0.2284
31706W        W47780  17.002   5.796   2.217  0.0709  0.2881  0.0053
31707W        W47781  15.226  12.760   2.414 -0.0501 -0.1243 -0.1034
31708W        W47782   3.480  10.771  11.413  0.2775 -0.2370  0.0238
31709W        W47783  13.705  14.335  11.671  0.1795  0.1634 -0.1378
31710W        W47784  17.097  17.634  14.950  0.1190  0.0286  0.4338
31711W        W47785   3.673   2.295   0.149 -0.2778 -0.0073 -0.0411
31712W        W47786   1.338  14.202   4.934  0.0555  0.2607  0.2289
31713W        W47787   8.820  11.261   3.773 -0.1993 -0.0987  0.3048
31714W        W47788   9.146  12.703   1.749  0.1216 -0.2208 -0.0274
31715W        W47789  10.355   0.209   0.018 -0.1419  0.0951 -0.1276
31716W        W47790   5.095   6.971  16.414  0.1605  0.1309 -0.0352
31717W        W47791   3.240   2.537  16.358  0.1200 -0.1792 -0.1163
31718W        W47792   8.548  11.926  13.047 -0.0109 -0.3042 -0.0454
31719W        W47793   8.398  13.628   0.349 -0.1059 -0.3028  0.0085
31720W        W47794  12.946  12.555  16.499 -0.2252  0.4923  0.2501
31721W        W47795   6.596   9.918  11.161 -0.0806  0.0714 -0.5073
31722W        W47796   1.438  10.423  14.959 -0.3062 -0.1841 -0.3996
31723W        W47797   6.047   2.264   2.961  0.3779  0.1649  0.3005
31724W        W47798   4.058   3.585  16.485 -0.0731 -0.1112  0.0544
31725W        W47799   0.984  15.710   4.148 -0.1158  0.1429  0.1113
31726W        W47800  16.319   6.236   5.359  0.0573  0.1951  0.0928
31727W        W47801  17.744   3.132  16.055 -0.3106 -0.0218  0.2900
31728W        W47802   7.178  14.472   4.651 -0.0804 -0.0495  0.0944
31729W        W47803  12.111   4.706   2.114  0.2670  0.2067  0.2248
31730W        W47804   7.294   5.816  13.036 -0.1840 -0.1670  0.2716
31731W        W47805   2.407   1.529   3.415  0.1350  0.0111 -0.0441
31732W        W47806   2.403  13.776   4.565  0.0212  0.0556  0.0536
31733W        W47807   1.800  11.327  16.021 -0.0800  0.1588  0.1335
31734W        W47808  15.136  12.346   0.858 -0.2205  0.2255 -0.1535
31735W        W47809   3.360   2.193   0.922 -0.0031  0.0603  0.1570
31736W        W47810   0.353  15.508  13.987  0.0846 -0.2866 -0.2107
31737W        W47811   4.626   5.661   3.341  0.2302  0.3193  0.0060
31738W        W47812   3.608  10.314  12.311  0.1021 -0.1501 -0.2135
31739W        W47813   6.103   3.916   1.996 -0.1191  0.2391  0.1300
31740W        W47814  12.535  11.920   0.929 -0.0297 -0.0379 -0.0558
31741W        W47815  14.102  14.942   0.139 -0.0419  0.2037  0.1894
31742W        W47816  13.973  13.844   6.045  0.4365  0.1050 -0.3108
31743W        W47817  12.714   8.897  13.343  0.0346 -0.2995  0.1694
31744W        W47818  11.747  13.872  14.421 -0.1653  0.1294  0.2835
31745W        W47819  13.442   7.394   6.515  0.0959  0.0912  0.2843
31746W        W47820   5.733   1.794   1.188 -0.3362 -0.0040  0.0520
31747W        W47821   4.295   9.876  13.043 -0.0756  0.2640  0.0923
31748W        W47822  15.896  15.552   3.615 -0.0961  0.0451  0.0221
31749W        W47823  12.352   6.716  12.049 -0.2249  0.1641 -0.1328
31750W        W47824  10.119   0.753   5.718  0.1479 -0.0608 -0.0935
31751W        W47825  17.150   7.999   0.634  0.0819  0.2522  0.1091
31752W        W47826  13.581   3.365  14.555  0.3353  0.0410 -0.0553
31753W        W47827   6.501   5.822  14.944 -0.1326  0.0547 -0.3145
31754W        W47828   1.305   7.544   1.504 -0.0746 -0.3197 -0.2685
31755W        W47829   7.826  13.039   6.070  0.2043  0.0774 -0.1240
31756W        W47830  14.665   1.145   0.357  0.1048  0.2430  0.0266
31757W        W47831  13.271  13.407  11.443  0.0336 -0.0171 -0.1495
31758W        W47832  16.956   0.169  14.805 -0.3086  0.1995  0.1064
31759W        W47833  17.671   9.905  13.259  0.2601  0.1532  0.2997
31760W        W47834   1.704   9.755  11.428  0.1788 -0.2322 -0.1163
31761W        W47835   4.733  15.543   5.329  0.1731 -0.0921 -0.2842
31762W        W47836   0.408   8.224  15.968 -0.2180 -0.1452 -0.1719
31763W        W47837   1.393   5.798  14.924  0.0771  0.3808  0.1459
31764W        W47838   9.897  11.570   1.206  0.2477 -0.3744 -0.1962
31765W        W47839  13.380   5.416   1.082  0.1391  0.1082 -0.0066
31766W        W47840  15.938   2.351  12.045  0.1138  0.2412  0.0423
31767W        W47841  15.755  17.465   0.269  0.1326 -0.3316 -0.1647
31768W        W47842   3.464  10.082   4.863  0.0033 -0.1614 -0.1383
31769W        W47843   7.426   1.382   0.175 -0.2036 -0.1763 -0.2608
31770W        W47844   2.724  11.391  11.891  0.1319  0.1072  0.1341
31771W        W47845   1.358   8.612  11.936 -0.0415 -0.0129  0.0687
31772W        W47846   8.274  14.114   2.143  0.2145  0.2103  0.2247
31773W        W47847  14.634  16.649   2.462  0.0829 -0.1187 -0.2876
31774W        W47848   5.973  16.278   1.674  0.1036 -0.0553  0.2230
31775W        W47849  16.335  17.966   2.431 -0.0632  0.1399 -0.0417
31776W        W47850  17.915   5.022   5.032  0.0482 -0.1619  0.0223
31777W        W47851  13.545   4.892  12.387 -0.0241 -0.0394  0.2314
31778W        W47852   2.191   7.247   4.820  0.0417  0.1884  0.0141
31779W        W47853   1.727   4.912  15.071  0.2140  0.2658 -0.0580
31780W        W47854   7.374  17.540   2.675 -0.1221 -0.1040 -0.1302
31781W        W47855   4.447   7.289   4.192  0.1522 -0.1525 -0.0683
31782W        W47856   7.724   0.552   4.837 -0.0422  0.2879  0.2918
31783W        W47857  13.116  10.706  12.074 -0.0695  0.2796  0.1478
31784W        W47858   4.032   7.342   0.284 -0.1098 -0.3129  0.2848
31785W        W47859   6.329  15.046   0.296  0.0077 -0.1101 -0.1904
31786W        W47860   7.976   5.885   0.363 -0.1396 -0.2809 -0.1747
31787W        W47861  14.129  12.673   1.642  0.0572 -0.1011  0.4723
31788W        W47862  10.580   1.984   3.776 -0.1638  0.0116 -0.0094
31789W        W47863  10.786  17.181   3.941 -0.2488 -0.1116  0.2757
31790W        W47864   5.454   7.299  15.281  0.2123 -0.4512 -0.0133
31791W        W47865   2.180   9.567   5.376 -0.1516 -0.0698  0.2524
31792W        W47866   6.180  13.071  11.543  0.1493 -0.3331  0.0110
31793W        W47867  12.617  13.118  15.733  0.1546 -0.1482  0.0386
31794W        W47868  14.584   9.221  13.113  0.2737 -0.2354 -0.1865
31795W        W47869  15.283  11.022   6.088 -0.0477  0.1420 -0.1572
31796W        W47870  16.080  18.146  12.143  0.2118  0.2117  0.2903
31797W        W47871  10.223   9.293   4.961 -0.1058 -0.2802 -0.2137
31798W        W47872  17.802   5.315   2.656  0.1802  0.0050  0.0112
31799W        W47873   1.188  14.903   3.401  0.0109  0.2197  0.2610
31800W        W47874   1.687  14.471  13.225 -0.3097 -0.1957  0.0758
31801W        W47875  13.339   6.770   1.107  0.3388  0.1383 -0.1463
31802W        W47876  14.284  11.469   3.709 -0.0062 -0.1643  0.0905
31803W        W47877   6.231  15.747   2.941 -0.2277  0.2165 -0.0094
31804W        W47878   0.513   8.173  13.040 -0.0755  0.0590 -0.2087
31805W        W47879  10.239   6.050   4.207  0.2208 -0.0179  0.1867
31806W        W47880  14.749   8.035  13.301  0.1777  0.2377  0.1270
31807W        W47881   7.802   2.056  14.752  0.0799 -0.2210 -0.0405
31808W        W47882  15.165  16.925   2.651 -0.1655 -0.2774 -0.2291
31809W        W47883   1.616   8.171   2.265 -0.2655 -0.1880 -0.0693
31810W        W47884   0.885   4.485  11.563  0.0323 -0.1256  0.0734
31811W        W47885   7.561  16.766   2.000 -0.2195  0.5685 -0.0382
31812W        W47886  12.361  13.153   2.695  0.0479 -0.1168  0.1182
31813W        W47887   9.676   9.946  13.896  0.0587 -0.4572  0.0772
31814W        W47888   0.380   1.450  13.873 -0.1876  0.0814  0.1700
31815W        W47889  17.227   6.380   5.483 -0.1991 -0.0126 -0.0362
31816W        W47890  14.658   2.142   1.038  0.0778 -0.4136  0.0228
31817W        W47891   6.122  17.400   2.187  0.0642 -0.4562 -0.0118
31818W        W47892   0.341   2.731  13.842 -0.0023  0.2536 -0.3881
31819W        W47893  17.600   4.088  12.765 -0.0557 -0.2296  0.1207
31820W        W47894   8.219   1.598  12.564  0.2131 -0.1160 -0.3205
31821W        W47895  15.681   6.611   2.142 -0.0470  0.2245  0.3490
31822W        W47896  16.639  11.675   4.613 -0.0747 -0.2524  0.0375
31823W        W47897  17.390  10.553   3.738 -0.2928 -0.4176 -0.0591
31824W        W47898   2.575  14.590  13.141 -0.2641 -0.4737  0.3729
31825W        W47899  12.414  17.925  15.763  0.1247  0.1881 -0.2062
31826W        W47900   9.853   5.335  16.492 -0.1862 -0.1322  0.1440
31827W        W47901  11.938  10.608  10.817  0.0343 -0.1727  0.0048
31828W        W47902  13.753  10.738  12.568 -0.0216  0.2029  0.1157
31829W        W47903   6.174   2.967   1.257 -0.3105  0.0102 -0.1820
31830W        W47904   0.319   9.391  12.500 -0.0108  0.2522 -0.0879
31831W        W47905  16.771   0.148   5.567  0.0671 -0.1138 -0.2293
31832W        W47906   1.212   5.627  15.408  0.1484  0.3983 -0.0386
31833W        W47907  17.279  17.115   5.037 -0.3933  0.1500  0.0243
31834W        W47908  10.613  15.722  15.935  0.0527  0.0343  0.2513
31835W        W47909  11.041  14.037  16.387  0.2612  0.0443 -0.2464
31836W        W47910   3.836  16.281   0.215 -0.3100 -0.1353 -0.0496
31837W        W47911   4.658  16.845   1.772  0.3456 -0.0565  0.2489
31838W        W47912  17.920  14.460   0.118 -0.0735  0.1261  0.0289
31839W        W47913   3.586   0.017  15.050  0.1363  0.1675  0.1408
31840W        W47914   2.482   3.716  14.948 -0.0131 -0.3831  0.2433
31841W        W47915  14.830   3.074  13.341  0.2128  0.2874 -0.1453
31842W        W47916   2.375  10.996  14.066 -0.0620  0.3070  0.1729
31843W        W47917  10.262  12.614   2.944  0.0226  0.0707 -0.0206
31844W        W47918   4.348  12.609  11.172  0.2773  0.0091  0.0005
31845W        W47919   9.632   6.062  14.803  0.1642 -0.0800 -0.1716
31846W        W47920   9.930  13.308   3.919  0.0820  0.2597 -0.0171
31847W        W47921  11.130   7.171   0.480  0.3474  0.0802  0.2369
31848W        W47922  10.644   0.782  13.534 -0.2402 -0.1951  0.2534
31849W        W47923  12.212  15.359  13.779 -0.2481 -0.2259  0.0420
31850W        W47924   8.335  16.849   5.368  0.1254  0.1108 -0.0893
31851W        W47925  15.054   7.872   1.474  0.1168 -0.1334 -0.0317
31852W        W47926   2.998   6.476  14.782  0.0877  0.2060  0.0476
31853W        W47927   3.850  18.098   5.183  0.0730 -0.2216 -0.4528
31854W        W47928   1.555   7.420   3.606  0.1713 -0.3424 -0.0017
31855W        W47929   3.274   0.405   1.515  0.2019 -0.0054 -0.1322
31856W        W47930   6.602   1.087  13.827  0.0386 -0.4110  0.1711
31857W        W47931   0.568   2.694  12.890 -0.0414  0.1061  0.1554
31858W        W47932   6.865  10.277  13.540  0.2103 -0.1148  0.1655
31859W        W47933   4.301   3.093   1.366  0.0723  0.1653  0.0086
31860W        W47934   6.712  12.933   0.277 -0.3194 -0.1096  0.0750
31861W        W47935   0.159   4.251   1.873  0.0613  0.0006 -0.1688
31862W        W47936  12.027   2.205  13.643  0.0848 -0.1772 -0.2657
31863W        W47937  10.652   5.686  15.948 -0.0625 -0.0357 -0.0071
31864W        W47938  16.187   0.458   5.511  0.0388 -0.1392 -0.3750
31865W        W47939  12.397  18.044  15.281  0.0765  0.0800  0.0746
31866W        W47940   2.987   9.961   3.398 -0.0538 -0.2552  0.0215
31867W        W47941  17.661  17.805  12.262 -0.1510 -0.2364 -0.2617
31868W        W47942  14.836   3.348  11.989  0.0574  0.0251 -0.0006
31869W        W47943   1.891   9.285   4.641  0.1318  0.1079  0.2666
31870W        W47944  11.112  13.286  12.470  0.2213 -0.1793  0.1251
31871W        W47945   3.828  11.689  16.470  0.1182  0.0483  0.2468
31872W        W47946   4.056  10.506   2.148  0.0287 -0.1936  0.1198
31873W        W47947  18.227  12.661  14.206  0.1461  0.1552  0.1531
31874W        W47948   6.545   1.635   3.222 -0.0051 -0.2456 -0.0396
31875W        W47949  10.129  16.410   2.941  0.1077 -0.3099 -0.4047
31876W        W47950   7.621  17.596  16.210  0.3606  0.2375  0.1703
31877W        W47951  12.755   4.112   4.150 -0.2158 -0.0727  0.0298
31878W        W47952   3.250   5.271   4.890  0.1637  0.1238  0.0340
31879W        W47953   2.839  10.738  12.043  0.0498 -0.0796  0.0939
31880W        W47954   6.957  15.951   4.522 -0.3962  0.1128  0.1833
31881W        W47955  13.144  17.065  12.575  0.1781  0.2372 -0.3237
31882W        W47956   6.176   0.026   4.405 -0.1291 -0.1002 -0.0087
31883W        W47957   3.214  16.208  12.677 -0.0777  0.2868  0.1284
31884W        W47958  10.055  16.500  13.806  0.1693 -0.1211  0.2031
31885W        W47959  16.886  16.305  10.719  0.0421  0.1910 -0.0884
31886W        W47960  14.113   7.467   0.094  0.0436  0.0904 -0.0981
31887W        W47961   9.220   7.043  13.941  0.0416  0.0717 -0.0667
31888W        W47962  17.290  14.076   4.911  0.0924 -0.5616  0.0595
31889W        W47963   4.473   0.752  10.853  0.2333  0.1532  0.1496
31890W        W47964   2.954   9.669  15.218 -0.0159  0.3954  0.0718
31891W        W47965  12.052   5.624   0.650  0.1381  0.2631 -0.0661
31892W        W47966   6.429   7.215   0.791 -0.4315  0.0441 -0.0346
31893W        W47967  11.695  12.770   1.993 -0.0355 -0.1326  0.0993
31894W        W47968  16.778   4.555  14.777  0.0301 -0.0834  0.1957
31895W        W47969  11.144  15.652  16.293  0.1312  0.0870  0.2051
31896W        W47970  10.093   8.691   0.298  0.0163 -0.1056  0.3833
31897W        W47971  11.567  16.174  14.955 -0.0490 -0.0196  0.1101
31898W        W47972  12.734  10.308   1.088 -0.1979  0.0113 -0.1273
31899W        W47973   8.131  17.670  14.591  0.3693  0.1517  0.2718
31900W        W47974   7.174   7.726  15.906  0.1452  0.3272 -0.1643
31901W        W47975   0.128   8.912   4.733 -0.1810  0.0875  0.2424
31902W        W47976  16.348   7.324  13.828 -0.1405 -0.3349 -0.1457
31903W        W47977  12.711  16.416  15.476  0.1387 -0.0698  0.0290
31904W        W47978  10.512   1.140   4.195 -0.2831 -0.1359  0.0124
31905W        W47979   4.619   5.308   1.390 -0.1383 -0.0725 -0.1313
31906W        W47980  13.513   8.960   1.801 -0.1576  0.1323 -0.2981
31907W        W47981   9.000   7.271   2.513 -0.2004  0.1761  0.3488
31908W        W47982   3.813   6.963   3.222 -0.0803  0.2072  0.1778
31909W        W47983   4.169   9.130   0.059 -0.0617  0.0482 -0.0287
31910W        W47984  13.733   1.122  11.759  0.0624  0.1300  0.1334
31911W        W47985   5.426  12.592   4.303  0.1286  0.0347 -0.2035
31912W        W47986   8.549   9.091  11.187  0.0874 -0.1796 -0.2627
31913W        W47987  10.647   6.823  10.946 -0.0009 -0.0134  0.0715
31914W        W47988   9.982   7.048   5.126 -0.0556 -0.2310  0.0417
31915W        W47989   3.672  16.148  12.838 -0.2287 -0.0952 -0.0722
31916W        W47990   6.692  12.796   1.731 -0.1921  0.1268 -0.0884
31917W        W47991   1.687  15.653  14.247  0.5661  0.0179  0.0727
31918W        W47992   0.866  13.700  13.439  0.1758  0.2879  0.2880
31919W        W47993  13.654   0.097  14.174 -0.0788  0.0652  0.2431
31920W        W47994   4.327   5.272  11.609  0.1176  0.1195  0.1287
31921W        W47995  11.182   4.040  13.697 -0.2256  0.0904 -0.2338
31922W        W47996  10.479  13.792  14.126 -0.0942 -0.1710 -0.1970
31923W        W47997   4.668  12.738  10.827 -0.2520 -0.0460 -0.0479
31924W        W47998  10.772   5.492   0.300 -0.0728 -0.0427 -0.1309
31925W        W47999   7.976   2.817   3.241  0.0149 -0.3501 -0.0010
31926W        W48000  13.037   7.009  12.804 -0.1390  0.2306  0.1512
31927W        W48001  10.526  16.150  14.332 -0.1600  0.2142 -0.0946
31928W        W48002  15.886  15.718   4.908 -0.2008 -0.0319 -0.1936
31929W        W48003   7.481  16.865   5.225  0.2957 -0.2007  0.1541
31930W        W48004   4.484  17.165   3.940  0.0018  0.0320  0.1943
31931W        W48005   3.144   9.111  13.203 -0.0307  0.0793 -0.1364
31932W        W48006  11.403   7.754  15.137 -0.2262 -0.0856 -0.3207
31933W        W48007   1.653   5.504  15.241  0.0850  0.1379  0.1368
31934W        W48008   1.119   8.747  13.199 -0.3988 -0.0469 -0.0520
31935W        W48009   6.997   0.144  16.260 -0.0350  0.3577 -0.0909
31936W        W48010   6.258  15.720  15.743  0.0971  0.1451  0.2754
31937W        W48011   1.748   0.062  11.446  0.2613 -0.3288  0.1470
31938W        W48012  12.289   1.024   2.558  0.1740 -0.0075  0.0076
31939W        W48013  16.779   9.497  13.780 -0.2041  0.3134  0.1644
31940W        W48014   5.140   4.239   5.917 -0.0711  0.1805  0.0329
31941W        W48015  15.785  12.741   3.420  0.0318 -0.2064 -0.0161
31942W        W48016  16.988   4.947   3.195  0.0682  0.0491 -0.1497
31943W        W48017  12.494  11.737   5.933  0.0486  0.3131  0.0841
31944W        W48018   0.089   0.113  12.226  0.2094  0.1065 -0.0591
31945W        W48019  13.718   3.008  15.320 -0.0529  0.3944 -0.0550
31946W        W48020  10.030   2.602   0.844 -0.2559  0.1702 -0.0136
31947W        W48021  12.748  12.773  13.131  0.1293  0.1548  0.3502
31948W        W48022   6.923  14.692   0.699  0.0062  0.0995 -0.0112
31949W        W48023  10.829  15.017  14.127  0.0233  0.1724 -0.0146
31950W        W48024   8.795  14.408   3.997  0.3921  0.0670  0.0263
31951W        W48025   5.256   8.956   3.241 -0.0310  0.0498 -0.3500
31952W        W48026  11.119  12.750  12.457 -0.0641  0.0679  0.3045
31953W        W48027  14.088   7.885  16.256 -0.0602  0.0406  0.2702
31954W        W48028  10.428   0.160   3.110  0.0147 -0.0074  0.2663
31955W        W48029   5.510   0.102  14.078  0.4175 -0.0243  0.1331
31956W        W48030   4.383   0.980  14.637 -0.0457 -0.4426 -0.1538
31957W        W48031   2.855  15.093   5.144  0.0997  0.2124  0.1567
31958W        W48032  12.204   1.100  11.815 -0.0524 -0.0191 -0.1994
31959W        W48033   5.411   1.578   0.504  0.0121 -0.2299 -0.1586
31960W        W48034  14.026  17.547   1.705  0.1381  0.0961  0.1973
31961W        W48035   8.235   5.507   0.125 -0.2456 -0.0159 -0.1188
31962W        W48036  16.635  17.494   5.067  0.0070 -0.1069  0.0953
31963W        W48037   5.585  12.595  13.979 -0.2074  0.0776  0.1012
31964W        W48038   9.687  16.495  14.692  0.1477 -0.1611  0.2695
31965W        W48039   1.575  10.233   1.410  0.2147 -0.0011  0.2726
31966W        W48040   7.184   7.944  13.108 -0.0454  0.2611 -0.1271
31967W        W48041   2.264   5.910   3.392 -0.1544 -0.1391 -0.0998
31968W        W48042   7.273   6.896   5.322  0.1278  0.0321  0.0754
31969W        W48043   4.766  17.349  16.150 -0.5209  0.2462 -0.0562
31970W        W48044   1.917  13.267   3.715  0.0107  0.0446  0.0631
31971W        W48045   5.859  10.283   2.331 -0.2130 -0.0334 -0.0231
31972W        W48046  10.265  14.391  16.089 -0.0070 -0.0745  0.0937
31973W        W48047  11.895   7.273  15.262 -0.4794  0.0092 -0.1277
31974W        W48048   3.683   1.022   4.503  0.0447  0.1938  0.5405
31975W        W48049  18.160   6.977   0.871  0.1546 -0.1989  0.3475
31976W        W48050  10.245   5.810   2.649  0.0172  0.0379 -0.0043
31977W        W48051  12.284   0.722  12.734  0.2139  0.2854 -0.1196
31978W        W48052   2.937   8.285   1.950 -0.2507 -0.1087 -0.1206
31979W        W48053   4.263   3.111  13.583  0.2500  0.1553  0.0828
31980W        W48054  10.163   6.049   1.758  0.1540  0.0780 -0.0146
31981W        W48055   9.137  16.266   1.480 -0.0676  0.1760  0.1739
31982W        W48056   2.178   1.397  15.182 -0.0940 -0.1453  0.4961
31983W        W48057   1.321  14.344  13.589 -0.4557 -0.1348 -0.2748
31984W        W48058  14.754  18.236   3.129  0.3257  0.0278 -0.0715
31985W        W48059  17.436  13.219  11.723 -0.0599 -0.0526  0.1249
31986W        W48060   9.489  17.003   1.558 -0.0431 -0.1357 -0.0039
31987W        W48061   9.610   7.860   0.167  0.0531  0.0196  0.1065
31988W        W48062  12.226   9.649  12.419 -0.0524  0.4421  0.1884
31989W        W48063  16.901   0.784   2.975  0.1031 -0.0797 -0.0074
31990W        W48064  14.909  12.420   4.253 -0.0849 -0.2846 -0.0091
31991W        W48065  16.583   6.359   1.507  0.1260  0.2752  0.2599
31992W        W48066   9.979  12.948   3.566 -0.1372  0.1648  0.0464
31993W        W48067   4.876  16.839  15.773 -0.0440 -0.1426  0.0947
31994W        W48068   6.654  14.372   1.018  0.0046  0.1925  0.0567
31995W        W48069   7.164  17.724   0.377  0.1168 -0.1162 -0.0747
31996W        W48070  18.084   5.370  12.868  0.0495  0.0362 -0.0049
31997W        W48071   5.712  12.419   2.111  0.0891  0.0915  0.5758
31998W        W48072   4.642  10.647   0.193 -0.0705  0.1626  0.1742
31999W        W48073   7.539   0.453  14.524 -0.1201 -0.1122 -0.1640
32000W        W48074  12.285   5.752  12.815 -0.0374  0.0182  0.1434
32001W        W48075   9.689  11.237   3.217 -0.1286  0.2408 -0.0110
32002W        W48076   8.097  12.665  13.980  0.1733 -0.0879  0.0940
32003W        W48077   4.715   0.820   2.453  0.2296  0.3041 -0.1589
32004W        W48078  16.294  10.197   4.849  0.0198  0.1149  0.1991
32005W        W48079   9.507   5.534   2.447  0.1433 -0.0325 -0.1113
32006W        W48080  12.581   0.748  12.096 -0.3349 -0.0237 -0.0750
32007W        W48081  15.348  15.706   3.635  0.1075 -0.0779 -0.0835
32008W        W48082  13.750   3.191   3.907 -0.0615  0.1305 -0.3265
32009W        W48083   5.106  10.457   0.212  0.0834 -0.3313  0.2036
32010W        W48084  14.845   4.200   1.213  0.1340  0.1011 -0.0751
32011W        W48085   9.683   5.117  16.020 -0.0395 -0.1731  0.0051
32012W        W48086  12.551  13.674   2.018  0.1407 -0.2756  0.3006
32013W        W48087  16.777   5.448  16.239  0.1184 -0.0603  0.2332
32014W        W48088   3.337  12.064   1.845 -0.0078  0.1694 -0.2134
32015W        W48089   8.616  15.261  13.594  0.0982  0.1477  0.1627
32016W        W48090   7.608   3.811   1.608 -0.0225 -0.1022  0.0584
32017W        W48091  13.972  11.690  16.495  0.0977 -0.3859  0.2261
32018W        W48092   4.878   2.249   1.109  0.1867  0.0183  0.1045
32019W        W48093  17.498  11.188   0.283 -0.0791 -0.2257  0.3182
32020W        W48094  11.270  14.506  15.052 -0.1145  0.5352  0.0752
32021W        W48095  11.562   8.576  14.750 -0.2142 -0.0538  0.2181
32022W        W48096  16.253   2.522  16.294  0.1297  0.1807  0.0421
32023W        W48097  15.449  10.844   4.442  0.0656  0.1086 -0.2013
32024W        W48098  11.689   1.146   4.564 -0.0406 -0.1022 -0.2021
32025W        W48099  17.403   8.655   1.256 -0.0084  0.1424  0.2013
32026W        W48100  11.579   6.688   4.270 -0.0319 -0.0121 -0.2504
32027W        W48101   3.235  15.425   4.144  0.1935  0.3636  0.2246
32028W        W48102  15.459   6.839  12.009  0.1704  0.1993 -0.0741
32029W        W48103  11.687  14.788   6.480  0.1731 -0.4741 -0.1399
32030W        W48104   5.772   3.706   0.524 -0.0391  0.1377 -0.1536
32031W        W48105   5.821   7.817  10.618 -0.0759 -0.3172  0.0603
32032W        W48106   2.324   8.938   4.033  0.0678 -0.0754 -0.3163
32033W        W48107   5.234   3.769   3.356  0.2786  0.3134 -0.0490
32034W        W48108   9.251  11.473   3.056  0.1632 -0.2395 -0.0530
32035W        W48109   2.267  17.127  15.847  0.1771 -0.1210  0.0649
32036W        W48110   2.812   4.606   2.599  0.1392 -0.3291 -0.2235
32037W        W48111   6.322   3.252   3.061 -0.0576 -0.2178 -0.1917
32038W        W48112  10.130  16.569  11.640  0.1382  0.0303 -0.1626
32039W        W48113   0.048  16.790   5.378  0.1480  0.0440 -0.1601
32040W        W48114  10.565   6.456  13.826  0.1649  0.1478 -0.3867
32041W        W48115  15.444  13.181  15.369 -0.0415 -0.2280  0.2049
32042W        W48116  12.690  18.055  16.351  0.2109  0.2362 -0.0441
32043W        W48117   3.029   7.435  15.872  0.1333  0.2007 -0.0565
32044W        W48118  15.954   3.087   1.839  0.0649  0.0872 -0.1195
32045W        W48119   9.920  16.630   6.481  0.1659  0.0349  0.1124
32046W        W48120   5.689   2.089  13.946  0.0064 -0.4102 -0.1148
32047W        W48121  16.971  14.967   3.692  0.2570 -0.0772 -0.2474
32048W        W48122   8.012   5.110   0.978 -0.3058 -0.1656  0.1179
32049W        W48123   1.404  15.539   5.397 -0.0821 -0.1101 -0.4538
32050W        W48124   4.763  12.890  11.926 -0.0216 -0.1143 -0.2333
32051W        W48125  12.530  15.022   4.458 -0.0380  0.2090  0.5393
32052W        W48126  16.074   5.490  15.144 -0.2349 -0.3514  0.0833
32053W        W48127  11.071   5.689  14.405  0.2998  0.3840  0.0383
32054W        W48128   9.188  11.417   5.660 -0.1352  0.0928 -0.1133
32055W        W48129   9.485  15.681  16.224 -0.1903  0.0035  0.0322
32056W        W48130  11.181   1.943  13.242  0.3188 -0.0207 -0.0441
32057W        W48131  15.926  15.747  10.085  0.0030  0.4043 -0.2213
32058W        W48132   4.812   9.744  16.299  0.0510  0.0158 -0.1373
32059W        W48133   0.719   6.822  14.437 -0.0265  0.2043 -0.0671
32060W        W48134   6.089   2.078  11.898 -0.2642  0.2563  0.1011
32061W        W48135   1.597   7.821  15.142  0.2249  0.1979 -0.1592
32062W        W48136   2.626   2.877   6.434  0.2012 -0.0101  0.0247
32063W        W48137  15.904  14.222   1.882  0.0935  0.0306 -0.1420
32064W        W48138   9.458  13.518   5.130  0.3299 -0.2806  0.1170
32065W        W48139   3.892  12.288  13.730  0.2199 -0.0330 -0.0621
32066W        W48140  11.243  14.004  15.017  0.1661  0.0063  0.2694
32067W        W48141   5.748   8.411   0.388  0.0242  0.0192  0.0202
32068W        W48142  18.068  10.375  11.649  0.0766 -0.2642 -0.0546
32069W        W48143   0.683  13.831  14.436 -0.0963 -0.2375  0.1705
32070W        W48144  11.447  10.169  12.812 -0.0207 -0.0552 -0.0088
32071W        W48145  13.235   8.968   2.204  0.3372  0.2112 -0.1153
32072W        W48146  10.258   1.028   6.152  0.2853  0.1058  0.2217
32073W        W48147   8.905  17.600  13.154  0.0557 -0.1004  0.0315
32074W        W48148   3.361   9.562   2.097 -0.1005  0.1063  0.1796
32075W        W48149   2.561   9.208  12.517  0.2880 -0.1449 -0.2337
32076W        W48150  14.962  15.677   0.816 -0.2470 -0.1684 -0.2377
32077W        W48151   1.975  12.647   2.416  0.1002  0.1588 -0.1522
32078W        W48152   5.358  17.295  14.369 -0.2253  0.1781 -0.3562
32079W        W48153  12.869  16.899  15.448 -0.1541 -0.1515 -0.1452
32080W        W48154  17.234   7.384   4.995 -0.0859 -0.1102 -0.0537
32081W        W48155  10.622   4.172   2.656  0.0841  0.1109 -0.1826
32082W        W48156  17.594  10.650   4.820  0.0810 -0.3770  0.1063
32083W        W48157  15.885   6.262   3.162  0.0848  0.1779 -0.3137
32084W        W48158  14.259   5.641  15.573  0.1064  0.3646  0.0770
32085W        W48159  11.837  10.747   3.843 -0.0989 -0.0972 -0.1917
32086W        W48160  16.238  10.654  14.140 -0.0950 -0.0818  0.3010
32087W        W48161   8.319  12.547   3.744  0.2084  0.1434 -0.2906
32088W        W48162   3.202   7.205   5.072 -0.2302  0.1313 -0.3890
32089W        W48163   0.263   0.871  15.102  0.0828 -0.1351 -0.0656
32090W        W48164   3.716  12.171  15.449  0.0960  0.1654 -0.2833
32091W        W48165   1.677  10.798   4.842 -0.1554  0.1624  0.3225
32092W        W48166  14.447   8.575   2.913  0.1444  0.0405 -0.2460
32093W        W48167  15.040   5.434  15.341 -0.1770  0.0711  0.2479
32094W        W48168   1.595   7.655  10.779  0.1579  0.0647  0.1698
32095W        W48169   5.112   0.490   3.144 -0.1342  0.1989 -0.1705
32096W        W48170  15.143  14.296   2.546  0.0991  0.0372  0.2622
32097W        W48171  16.682  11.622  11.835  0.1184  0.0100  0.1359
32098W        W48172   2.982   5.462   4.399 -0.0100 -0.1194 -0.0742
32099W        W48173  17.505   2.946   3.200 -0.1182 -0.3427  0.3351
32100W        W48174  10.720  10.879  13.410  0.3236  0.2425  0.0189
32101W        W48175  16.253   5.997   1.632 -0.1104 -0.2021 -0.0406
32102W        W48176   1.722  16.573  15.845 -0.2172  0.3052  0.2252
32103W        W48177   2.182  11.047   3.869  0.4347  0.0649 -0.0745
32104W        W48178  14.781   2.307   4.584  0.0730 -0.1198 -0.1938
32105W        W48179   8.737   3.029  13.288 -0.1902 -0.1147  0.2581
32106W        W48180   3.240   1.025   4.920  0.3212 -0.0434 -0.0320
32107W        W48181  17.937  10.693  13.923 -0.0654  0.0624 -0.4181
32108W        W48182   5.399   5.794  15.937  0.1107 -0.1538  0.0884
32109W        W48183  10.630   3.778   0.776  0.1937 -0.1993 -0.1195
32110W        W48184   1.987  11.746   2.402  0.1473 -0.4195  0.1164
32111W        W48185  10.543   7.895   2.878  0.2394 -0.0652  0.4361
32112W        W48186   2.682  15.220   4.721  0.0830 -0.1269 -0.0730
32113W        W48187   8.120   7.481   2.584  0.0071  0.5774  0.3231
32114W        W48188   6.405   4.211   3.901 -0.3784  0.0744 -0.2032
32115W        W48189   7.164  12.192  12.672 -0.3427  0.2205  0.0857
32116W        W48190  10.269  15.066   4.656  0.0308 -0.0117  0.0304
32117W        W48191   7.920  17.825  14.088  0.0073 -0.0721  0.0442
32118W        W48192   3.239   8.208   2.906 -0.1149  0.1610  0.2155
32119W        W48193  11.529  16.797  15.442 -0.0924  0.0848 -0.1658
32120W        W48194  12.083   7.074   2.560  0.3053 -0.1365 -0.2420
32121W        W48195  12.373  10.224  14.611  0.0405 -0.2030  0.1173
32122W        W48196  11.360   0.762   2.074 -0.0116 -0.2268  0.3128
32123W        W48197  11.563   6.025  15.017 -0.1077  0.1523 -0.2238
32124W        W48198  16.632   8.950  12.562 -0.0364  0.0826 -0.2543
32125W        W48199   0.588  15.500  11.666  0.0210  0.0179 -0.0091
32126W        W48200   0.320  12.709   3.240  0.0936 -0.2850 -0.1257
32127W        W48201  17.009  10.306   2.399  0.0844  0.1223  0.0493
32128W        W48202  11.310   3.696   1.008 -0.1116  0.3594 -0.2930
32129W        W48203  12.335  17.077  15.800 -0.0128 -0.2010  0.0456
32130W        W48204   0.119  10.973  12.814  0.0504  0.1554  0.0222
32131W        W48205   3.285   3.961   3.391 -0.1852  0.1978 -0.1499
32132W        W48206   7.615   1.376  14.717 -0.1165  0.5196 -0.0076
32133W        W48207  12.657  10.623   3.910 -0.1313 -0.0763  0.1798
32134W        W48208   5.109   8.295   5.591 -0.2211 -0.1369 -0.2331
32135W        W48209   2.929   7.224   3.166  0.0908 -0.2608  0.4036
32136W        W48210   4.372  10.381   3.847  0.2043  0.1296 -0.4549
32137W        W48211  16.473  10.474   2.333 -0.1328 -0.2047  0.2062
32138W        W48212   2.917  15.001   2.567  0.0954 -0.0143 -0.2347
32139W        W48213  12.408  11.646  13.101 -0.1266  0.2352 -0.1681
32140W        W48214   4.373   3.883  12.548  0.1488 -0.2144  0.3459
32141W        W48215  18.118   2.127  16.372 -0.0949 -0.2158 -0.2084
32142W        W48216   4.693  16.303  13.291 -0.0333 -0.3599 -0.0474
32143W        W48217   6.925   3.469   6.547  0.1036 -0.0472  0.0428
32144W        W48218   9.466   3.248  11.569 -0.0214  0.0683 -0.1165
32145W        W48219  11.306   8.959   4.237  0.0177 -0.0317 -0.2746
32146W        W48220   0.417   6.087   3.819  0.2667 -0.0771  0.2858
32147W        W48221   7.626   1.670   4.081  0.1860 -0.3535  0.1070
32148W        W48222  16.733  10.404  13.448  0.0370  0.0071 -0.2064
32149W        W48223   8.922   5.762  13.835  0.3270  0.0321 -0.2526
32150W        W48224  11.457   1.413   5.840 -0.0395  0.4321 -0.1483
32151W        W48225   3.024  18.035   5.991  0.0257 -0.0529  0.2705
32152W        W48226  16.547  10.100  14.499 -0.1408 -0.2648 -0.2371
32153W        W48227  11.607   1.806   0.586 -0.0322  0.4314 -0.1401
32154W        W48228   9.831   2.198  12.108 -0.0455  0.2026  0.2799
32155W        W48229  16.544  12.809   6.041 -0.2758  0.0587 -0.1041
32156W        W48230   0.853   6.361  14.906 -0.2106 -0.2453 -0.0392
32157W        W48231  12.215   2.255  11.674  0.1638  0.2267 -0.3229
32158W        W48232   2.386  15.965  15.444 -0.3064  0.3162  0.2808
32159W        W48233   1.234  15.765  15.462 -0.0648  0.1558 -0.2813
32160W        W48234  13.089   2.241   5.240  0.1709  0.0459 -0.2338
32161W        W48235  14.636   6.862  12.172 -0.1793  0.0322  0.0432
32162W        W48236  17.267   6.272  14.309  0.1393  0.1138  0.1384
32163W        W48237   9.920   5.838  13.261 -0.2230  0.1759  0.1203
32164W        W48238   3.224  14.108   1.040  0.3589  0.1658  0.0354
32165W        W48239   0.722   7.333  14.878 -0.1073  0.3283  0.0428
32166W        W48240   1.774  17.723  12.385  0.3324  0.0659  0.2207
32167W        W48241  11.276  12.985   2.103  0.0884 -0.0977  0.0683
32168W        W48242   2.952   7.193   1.530  0.2034 -0.0441  0.2048
32169W        W48243  17.812   7.843  14.806 -0.2509  0.3194 -0.0124
32170W        W48244   5.912   9.206   3.908 -0.2489  0.3589  0.0473
32171W        W48245   5.484   9.203  12.014 -0.4667  0.2099  0.0512
32172W        W48246  12.915  12.226   4.632  0.4145  0.3065 -0.2219
32173W        W48247   5.101  14.541  15.222  0.2502 -0.1170 -0.4077
32174W        W48248   5.833  14.826   5.853  0.0447 -0.4075  0.1663
32175W        W48249  13.989   6.055  15.795 -0.1114 -0.0138 -0.1000
32176W        W48250  16.031   4.678   5.329  0.3200  0.1724 -0.2911
32177W        W48251   7.504   2.625  14.624 -0.1640  0.2232  0.1015
32178W        W48252  12.222  14.111  14.889 -0.1979 -0.0697 -0.1737
32179W        W48253  16.169   9.320  12.410 -0.0317  0.2667  0.0187
32180W        W48254   4.878  11.829   5.479 -0.0578 -0.3857 -0.1359
32181W        W48255   7.200  16.617   0.752  0.0843 -0.3441  0.1082
32182W        W48256  15.444  12.342  12.079 -0.1337  0.2590 -0.0611
32183W        W48257   8.540  13.680   1.936  0.0917  0.0362 -0.2286
32184W        W48258   4.863   5.599   4.793  0.1154  0.0671  0.4562
32185W        W48259   1.886  17.429  13.303  0.0890  0.3303  0.1005
32186W        W48260  17.623   6.687  14.095 -0.0601 -0.2470 -0.1527
32187W        W48261  16.614   3.485  11.449  0.0323  0.1095  0.0220
32188W        W48262  14.605   9.532  12.704  0.1040 -0.1108 -0.1060
32189W        W48263   3.964  14.537  13.173  0.3955  0.3278  0.1869
32190W        W48264   9.405  15.079   2.727  0.3507  0.1227  0.1518
32191W        W48265  14.888  13.877   4.270  0.1193 -0.2919  0.1393
32192W        W48266   4.618   6.897  13.388  0.3084  0.2029 -0.1479
32193W        W48267  17.551   7.161   4.564  0.0683  0.1312 -0.0992
32194W        W48268  12.639  11.802   1.403 -0.3950 -0.1589  0.0099
32195W        W48269   5.183   5.524  15.457  0.1517 -0.0072  0.3178
32196W        W48270  15.588  11.900   4.539  0.1148 -0.1620 -0.2576
32197W        W48271  13.991  10.756  16.452  0.1261  0.4511  0.0948
32198W        W48272   8.477  10.456   3.885 -0.0935 -0.2286  0.0807
32199W        W48273   2.809   9.413  13.986 -0.0727  0.2646 -0.0113
32200W        W48274   9.982   7.488  14.176  0.0121 -0.1443 -0.0931
32201W        W48275  15.729  17.751  15.966 -0.1534 -0.0383  0.0860
32202W        W48276   2.088  11.982  16.184 -0.2051 -0.0551  0.1405
32203W        W48277  17.056  13.597  11.759 -0.1577  0.1419 -0.1260
32204W        W48278   4.405   6.131   5.698 -0.0438 -0.0782 -0.3362
32205W        W48279  10.968  13.440   2.382  0.0800 -0.1623 -0.1920
32206W        W48280   0.773   2.769  15.800  0.2065 -0.0703 -0.0967
32207W        W48281  11.955  11.891   3.403 -0.0611  0.3016 -0.3481
32208W        W48282  13.776   4.055  11.883 -0.0035 -0.2190 -0.0447
32209W        W48283   2.107  13.762  13.030  0.1745  0.0307  0.1011
32210W        W48284   1.632   1.456  15.148 -0.2358 -0.0910  0.2197
32211W        W48285   6.042   2.632   5.259  0.1600 -0.2130 -0.1756
32212W        W48286   2.194   6.816   5.074  0.1656  0.3511 -0.2863
32213W        W48287   3.413  10.024  16.364  0.1289 -0.3228 -0.0063
32214W        W48288   2.205   4.032  16.260 -0.0299 -0.2464  0.0944
32215W        W48289   9.037  12.088  11.856 -0.1548  0.3373 -0.1546
32216W        W48290   7.913  10.850   0.947 -0.1278  0.1366  0.0307
32217W        W48291   8.834   3.308   4.232 -0.0844 -0.3373 -0.0545
32218W        W48292   8.368   4.010   5.336  0.1508 -0.0289  0.0432
32219W        W48293   2.763  18.150   3.737 -0.2004  0.2471 -0.1062
32220W        W48294  12.154  10.367   6.142 -0.1037 -0.3065  0.0483
32221W        W48295   3.080   1.857   3.709 -0.0418  0.0935  0.2208
32222W        W48296  15.781   4.592   0.299  0.2662 -0.1724 -0.1805
32223W        W48297  12.280  11.321   2.493 -0.1226 -0.4107 -0.0019
32224W        W48298  11.807   1.996   1.047 -0.3254 -0.1536 -0.0978
32225W        W48299   0.170   4.626   6.500 -0.2867 -0.1127  0.0464
32226W        W48300   1.307  13.831  14.827 -0.0501 -0.0021  0.5568
32227W        W48301   4.465   9.604   0.119  0.2739  0.0929 -0.1846
32228W        W48302  14.579   9.351   3.468  0.1884  0.0098  0.2918
32229W        W48303   8.856   4.811  12.867 -0.0286 -0.1878 -0.0366
32230W        W48304   4.942   6.672   3.648 -0.2233  0.0583  0.0865
32231W        W48305   3.130  16.470  11.388 -0.0004 -0.1500 -0.2034
32232W        W48306   6.840   6.276   1.887 -0.0039  0.0482 -0.1772
32233W        W48307  11.016  11.394  12.182  0.0323  0.0956  0.1217
32234W        W48308  17.108   7.540  12.565 -0.2896  0.4472 -0.1071
32235W        W48309  15.694  10.671  11.601 -0.0778 -0.0222 -0.1681
32236W        W48310   7.063  10.497   1.241 -0.1141 -0.2553 -0.1475
32237W        W48311  15.899  12.243  12.299  0.4596  0.0949  0.2740
32238W        W48312   5.374   6.731   3.871 -0.1470 -0.3005  0.1931
32239W        W48313   6.912  18.096   5.800 -0.2114  0.1527 -0.0612
32240W        W48314  13.934  13.929  14.129  0.1169  0.1175 -0.0887
32241W        W48315   8.124   2.469  16.017  0.1216  0.0209 -0.0633
32242W        W48316  10.413  16.180  16.127 -0.1487  0.1396 -0.1950
32243W        W48317   8.561  12.654   5.030 -0.1276 -0.1923 -0.1716
32244W        W48318  14.613  16.298  13.714  0.0104 -0.1266  0.1760
32245W        W48319   8.557   9.802   0.759  0.5061  0.4046  0.5158
32246W        W48320   4.701  14.461   5.304 -0.0461  0.4867 -0.2076
32247W        W48321   6.662  15.876  14.116  0.1674 -0.4355 -0.0322
32248W        W48322   8.456  17.523   0.684 -0.0310  0.3570  0.0289
32249W        W48323   7.802  12.342   2.155  0.1320  0.0898 -0.1313
32250W        W48324   5.529   3.755  13.984 -0.2408 -0.1699  0.1465
32251W        W48325   4.501  13.818   0.506 -0.1749 -0.2496 -0.2387
32252W        W48326   4.923  11.574  15.738  0.2225  0.0674  0.2286
32253W        W48327  10.683  13.972  12.248  0.0363  0.1372  0.2620
32254W        W48328   0.942   9.885  13.954  0.2364 -0.0095 -0.0030
32255W        W48329   5.998  13.731   0.755  0.0542  0.1470  0.0257
32256W        W48330   8.338  11.762  14.373 -0.0527 -0.1290  0.1992
32257W        W48331  17.792   9.295   3.105  0.1108 -0.1695  0.1211
32258W        W48332  14.769  10.383   1.234  0.1870 -0.1891  0.1736
32259W        W48333   1.178   1.746  15.361 -0.0317  0.3307 -0.1902
32260W        W48334  10.298   2.331  12.258 -0.0527  0.0971 -0.0395
32261W        W48335   8.211   5.353  15.620  0.1960 -0.1947  0.1085
32262W        W48336   3.453   7.166   1.598  0.2039 -0.2009  0.2093
32263W        W48337   7.478   0.286   1.624  0.1589  0.0918  0.1374
32264W        W48338   0.436  14.860   1.715 -0.3096  0.0655  0.2638
32265W        W48339  16.645   2.058   3.478  0.1121 -0.2578  0.3760
32266W        W48340   3.466   2.602   1.166 -0.0222 -0.2954 -0.0600
32267W        W48341  10.126  15.074   2.522  0.2622 -0.1367 -0.1396
32268W        W48342   9.511   8.563  12.237  0.2448 -0.2041 -0.0247
32269W        W48343   0.899  11.009   4.197 -0.1173 -0.1207  0.1405
32270W        W48344   6.009   3.364   4.321 -0.6735 -0.5305 -0.4411
32271W        W48345   3.938  15.705  12.232  0.1142 -0.2093  0.0800
32272W        W48346   4.867  16.512  11.282  0.2045 -0.2073  0.0511
32273W        W48347  10.114  15.434   5.077  0.0233 -0.1323  0.0377
32274W        W48348   6.871   0.944   3.714 -0.3620 -0.3049 -0.4065
32275W        W48349   9.483   2.655  15.696 -0.0710 -0.0402 -0.2148
32276W        W48350   0.917   3.387   3.469 -0.0253 -0.0324 -0.0136
32277W        W48351   6.802  15.570   3.998 -0.2633 -0.0836 -0.0396
32278W        W48352   7.525   5.775  12.558  0.3370 -0.5255 -0.0172
32279W        W48353   8.812   2.936   1.213 -0.4554 -0.1604 -0.2455
32280W        W48354  11.807  12.542   1.174  0.1240  0.3070 -0.1016
32281W        W48355  13.806   8.471   2.639  0.2978 -0.2221  0.1264
32282W        W48356   2.515   1.909   4.285 -0.0908  0.1906  0.0667
32283W        W48357   0.535  16.979   3.885 -0.0938  0.0444  0.2295
32284W        W48358   5.105  11.645  14.262  0.0761 -0.3265  0.0148
32285W        W48359   6.019   6.436  13.907  0.3322 -0.1069 -0.0608
32286W        W48360  14.917   2.954  16.042 -0.2684 -0.0823 -0.0483
32287W        W48361   4.765   0.046  15.882 -0.0207  0.2660 -0.1300
32288W        W48362  16.619   5.578   4.160  0.1001  0.1175  0.4458
32289W        W48363   9.283   1.016   5.226  0.1205  0.0671  0.3956
32290W        W48364   9.068  10.472  16.254  0.0397 -0.2343 -0.2171
32291W        W48365   3.631  11.833   4.892 -0.1324 -0.1550  0.0506
32292W        W48366   3.532  15.010   4.361 -0.1731 -0.2225  0.3281
32293W        W48367   6.162  15.483  14.199  0.2566 -0.1601 -0.1366
32294W        W48368   9.195   3.048  15.925  0.0760  0.0689 -0.1520
32295W        W48369   5.441   0.557  15.476 -0.0936  0.2539 -0.0643
32296W        W48370   2.346   9.498  11.403 -0.1077  0.0646  0.1404
32297W        W48371  17.328   1.229   0.617 -0.0019 -0.2322  0.0497
32298W        W48372  18.031  11.276  15.864  0.0510 -0.0241 -0.0283
32299W        W48373  13.305  13.528   5.145 -0.0597  0.0006 -0.1010
32300W        W48374  10.878  13.136   4.817 -0.2049  0.1903 -0.0924
32301W        W48375  15.819   5.944   0.461 -0.0695 -0.0833 -0.2974
32302W        W48376   7.382   5.363  14.090  0.1237  0.2408 -0.1453
32303W        W48377  10.012  11.977   5.263 -0.1664 -0.0252  0.0287
32304W        W48378  17.306  12.594   2.572  0.0214 -0.0159 -0.0064
32305W        W48379  11.044  12.581   2.949 -0.0286 -0.0945 -0.0381
32306W        W48380   8.527  13.781   5.712 -0.1285  0.0761 -0.0876
32307W        W48381   6.516   8.421   2.159 -0.3039  0.0069 -0.0568
32308W        W48382   0.957  14.943  12.125 -0.2277 -0.2810 -0.0639
32309W        W48383   5.880   8.831   3.505  0.1005  0.2431 -0.2162
32310W        W48384   2.966   8.791   1.793  0.2905 -0.0194  0.1288
32311W        W48385   0.403   4.814   4.545 -0.0579  0.0422  0.1537
32312W        W48386  11.007   1.385   1.505  0.0679 -0.3589 -0.1370
32313W        W48387  13.092  10.493  13.207  0.2519 -0.3912  0.3346
32314W        W48388   3.028  10.954   5.021 -0.1954  0.1175 -0.0369
32315W        W48389   8.570   8.936  11.982  0.4427  0.2164  0.1499
32316W        W48390  10.811   2.523   5.895  0.2356  0.1464 -0.0321
32317W        W48391  11.102  14.920  14.785  0.1409  0.3981  0.3643
32318W        W48392  14.019  12.333  13.638  0.0248  0.4082  0.1058
32319W        W48393   2.981  15.037  12.328 -0.0219 -0.2370  0.2506
32320W        W48394   7.483  16.696  16.204 -0.0049 -0.0573 -0.3194
32321W        W48395  16.389   4.450   2.656  0.2708  0.0631  0.2669
32322W        W48396   6.929   7.202   2.536 -0.1705  0.2266 -0.1367
32323W        W48397   6.973   0.095   2.356  0.2044 -0.0654  0.1671
32324W        W48398  17.758   7.338  14.673  0.2294  0.0441  0.1854
32325W        W48399   6.822   5.894   4.554 -0.1898  0.2071 -0.0529
32326W        W48400  10.296   5.704  15.440 -0.0953 -0.0819 -0.1431
32327W        W48401  16.523   5.377  15.344 -0.0837  0.1395 -0.0137
32328W        W48402   3.558  17.807  16.174  0.3867 -0.1374 -0.0672
32329W        W48403   5.467   0.839   5.479 -0.0788 -0.1373 -0.0602
32330W        W48404   5.216  15.513  16.025 -0.0580 -0.2311  0.0869
32331W        W48405  10.172   8.031  12.439 -0.1266 -0.3746  0.0786
32332W        W48406   6.217  10.037  16.178 -0.0323 -0.3111 -0.0544
32333W        W48407  13.777   3.682  15.003  0.1950 -0.0573 -0.0945
32334W        W48408   3.301  17.367  13.499 -0.2313  0.3657 -0.1474
32335W        W48409   6.064  16.322   4.666 -0.1981 -0.0352 -0.0251
32336W        W48410   4.168   5.697  14.246  0.0950  0.0532 -0.2588
32337W        W48411   3.402  12.517   5.911  0.1395  0.1865 -0.0173
32338W        W48412   5.435   6.941   2.489 -0.1781  0.0957 -0.4326
32339W        W48413   9.301  15.739  12.363 -0.1185  0.2059 -0.0522
32340W        W48414  14.140  14.365  14.494  0.0467  0.0431 -0.3901
32341W        W48415  15.111   9.648  14.010 -0.1031  0.0589  0.2519
32342W        W48416   2.178  10.308  12.580  0.0144  0.0018  0.0630
32343W        W48417   3.319  11.472   0.877 -0.0026 -0.1178  0.0127
32344W        W48418   4.037   0.037  11.553 -0.2317 -0.3510  0.1706
32345W        W48419   6.547   6.750  14.008  0.1164  0.0146 -0.1009
32346W        W48420   9.053   9.532   5.150 -0.1006  0.0931 -0.2425
32347W        W48421  17.217  10.020   0.720 -0.0106  0.0246  0.0830
32348W        W48422  14.976   9.094   4.348  0.3468 -0.1272  0.0090
32349W        W48423   9.725   6.769   2.046  0.2654  0.2397 -0.3255
32350W        W48424   0.053   4.647   2.841 -0.3999 -0.1384 -0.0619
32351W        W48425  12.206   7.774   4.979 -0.1097  0.0652  0.1250
32352W        W48426  12.074   7.129   5.969  0.0827 -0.4517 -0.2366
32353W        W48427  12.930  10.073  14.596  0.0205 -0.0230  0.0606
32354W        W48428   6.417   6.216  13.061 -0.0866  0.0031 -0.0530
32355W        W48429  11.584   7.682   5.503  0.2231  0.1774  0.0997
32356W        W48430   7.535  16.443  11.639 -0.0480  0.0134 -0.0814
32357W        W48431   3.589  14.623  15.537  0.0901 -0.1919  0.0899
32358W        W48432   5.193   3.593   3.834 -0.0153 -0.2531  0.2289
32359W        W48433   2.099   7.543   3.557 -0.1237 -0.1792 -0.0820
32360W        W48434   3.629   1.492  12.359 -0.0366 -0.0534  0.0429
32361W        W48435  15.801  12.420  13.208 -0.0415  0.1998  0.1401
32362W        W48436   8.406   8.757   5.449  0.0742 -0.2848 -0.1598
32363W        W48437  10.925   0.934   0.564 -0.1057 -0.1573  0.2802
32364W        W48438  11.236   6.855   1.542  0.0826  0.2142  0.3327
32365W        W48439   3.106  12.769   0.497  0.1545 -0.0666  0.0706
32366W        W48440   7.669   9.648   4.120 -0.0795 -0.1648 -0.0549
32367W        W48441   6.491  12.376  14.802 -0.0584 -0.0765  0.1041
32368W        W48442  17.184   6.343  15.793 -0.0538 -0.4190 -0.1315
32369W        W48443  17.217   8.123   3.373  0.0610 -0.1938  0.3993
32370W        W48444  14.985  10.124   3.392  0.0306  0.0072  0.2509
32371W        W48445   7.095  16.368   4.792 -0.1073 -0.0175 -0.0264
32372W        W48446  13.127  15.098   2.590 -0.2110  0.3308  0.0835
32373W        W48447  13.177  13.637   5.664 -0.3622  0.3294 -0.2527
32374W        W48448   3.500  13.097   4.158 -0.0879  0.3538 -0.1488
32375W        W48449   9.996   9.715   4.024 -0.1563  0.2172  0.0879
32376W        W48450   6.602  17.370  14.747  0.0488  0.0363  0.1594
32377W        W48451   9.142   5.701  11.295  0.1457  0.2280 -0.0218
32378W        W48452   1.907  14.955   1.664 -0.3843  0.1394  0.1301
32379W        W48453   0.441   5.688   0.631 -0.0320 -0.1851 -0.0897
32380W        W48454  17.318   4.489  16.048 -0.0123 -0.1051  0.1234
32381W        W48455  11.621  17.791   4.170  0.1787  0.2797 -0.2024
32382W        W48456   9.974  16.354  15.182  0.0494 -0.1147 -0.3548
32383W        W48457   7.593  15.446  12.277 -0.0878 -0.1193 -0.0955
32384W        W48458  11.332  11.547  15.999  0.2941 -0.1911 -0.1267
32385W        W48459   6.719   3.541  14.095  0.0420 -0.0387 -0.0867
32386W        W48460  11.221   4.620  14.518 -0.0253 -0.0790  0.0086
32387W        W48461  18.121   7.585   4.681 -0.1346 -0.1022  0.1160
32388W        W48462  18.078   2.680   2.715  0.2076  0.3870 -0.1028
32389W        W48463  11.345  13.234  15.315  0.1721 -0.2053  0.2318
32390W        W48464   1.799   9.439   3.697 -0.4014 -0.1541  0.0848
32391ION     NA48465  14.539  11.790  10.751  0.1018 -0.0113  0.0021
32392ION     NA48466  12.485  12.580   3.197  0.1704 -0.1184 -0.0915
32393ION     NA48467   3.623  14.266  10.590  0.0678  0.1047 -0.1411
32394ION     NA48468   7.870  12.307  10.624  0.1876  0.3734 -0.1497
32395ION     NA48469  12.830  10.179  10.151  0.0495  0.1804  0.0036
32396ION     NA48470   6.559   3.783  10.709 -0.0397  0.0865 -0.1599
32397ION     NA48471   3.239  18.025   0.156  0.1197  0.0440  0.3086
32398ION     NA48472   9.321  15.043  10.647 -0.0740  0.1478 -0.0986
32399ION     NA48473  17.319   6.650  10.661  0.2036  0.1881 -0.0023
32400ION     NA48474  15.058   2.848  10.823  0.3198  0.2634 -0.1154
32401ION     NA48475   0.766   2.381   4.256 -0.0444 -0.0722 -0.0824
32402ION     NA48476   9.485   7.703  12.783 -0.3418  0.1376  0.0293
32403ION     NA48477   6.012   8.840  13.262  0.0344  0.1692  0.0338
32404ION     NA48478   6.425   0.352  11.266 -0.1641 -0.1266  0.1083
32405ION     NA48479  10.505  18.207  10.791 -0.0074  0.1202  0.1446
32406ION     NA48480   4.823   3.611  10.472  0.3092  0.0859 -0.1271
32407ION     NA48481  14.174  16.663   5.760  0.1048 -0.1876  0.1824
32408ION     NA48482  13.271   8.253  10.854 -0.2524  0.2857  0.0130
32409ION     NA48483   2.612   3.182  10.848 -0.0627  0.1582  0.0798
32410ION     NA48484  14.269  16.598   0.768  0.0167  0.3594 -0.0972
32411ION     NA48485   2.743   0.046  10.446  0.0110 -0.3114 -0.0953
32412ION     NA48486  15.345  12.056  14.224  0.0573 -0.2469 -0.4212
32413ION     NA48487   9.824  14.789   4.556  0.0556 -0.3294 -0.1415
32414ION     NA48488   3.917   6.307  12.271 -0.0539  0.0096 -0.1219
32415ION     NA48489  17.870   2.597  10.430 -0.0440 -0.1000 -0.0441
32416ION     NA48490  13.474   7.024  10.731  0.1063  0.0274  0.2433
32417ION     NA48491  14.604   9.158  15.971  0.0854 -0.1413  0.0362
32418ION     NA48492  17.125   4.639  10.431 -0.0561  0.2093 -0.0411
32419ION     NA48493   5.020   8.841  14.458 -0.4261 -0.0758 -0.0691
32420ION     NA48494   1.347  12.671  10.279  0.0118 -0.3664 -0.4046
32421ION     NA48495  12.995  14.303  10.722 -0.0724 -0.0128  0.1008
32422ION     NA48496  13.082  13.375   6.375  0.4050 -0.2668 -0.0643
32423ION     NA48497  11.164  12.223  10.534 -0.2176 -0.3790 -0.1469
32424ION     NA48498   4.333  16.801  10.815  0.1065 -0.2624 -0.2822
32425ION     NA48499   9.413   4.933  10.810  0.0025  0.1449 -0.1918
32426ION     NA48500  17.519   3.111   5.971 -0.1194 -0.3309 -0.1319
32427ION     NA48501  16.309  16.651   5.957  0.0512 -0.1254 -0.2822
32428ION     NA48502  12.413   8.657  10.510 -0.1016  0.1198 -0.0760
32429ION     NA48503   1.999  15.983   5.606 -0.2645 -0.0427 -0.0186
32430ION     NA48504   6.166   4.613  15.499  0.1297 -0.2019 -0.0141
32431ION     NA48505   9.960  15.628   0.815  0.0417 -0.2100 -0.5200
32432ION     NA48506   4.662  10.530   4.863 -0.1376  0.0545  0.2412
32433ION     NA48507  14.815  10.995  11.861 -0.0142 -0.1395 -0.2149
32434ION     NA48508   0.150   8.092  10.212 -0.1278 -0.2308  0.0595
32435ION     NA48509   9.979   7.440  10.521 -0.0318 -0.4985 -0.0536
32436ION     NA48510  12.901  15.790  12.310  0.4364 -0.2090 -0.1169
32437ION     NA48511  12.480   2.600  12.270  0.1777 -0.1404  0.1567
32438ION     NA48512   3.252   5.093   1.663  0.1009 -0.2661 -0.3642
32439ION     NA48513   8.423   7.697  10.325  0.0768  0.1904  0.2040
32440ION     NA48514   5.134  14.084   0.785 -0.0843 -0.0733 -0.2613
32441ION     NA48515   6.293  15.798  11.376  0.3716 -0.1916 -0.4220
32442ION     NA48516   4.355   3.700   3.051 -0.2899  0.0211  0.2018
32443ION     NA48517   6.383  16.902   6.313 -0.0034 -0.1300 -0.0399
32444ION     NA48518  14.941  13.594  11.655  0.0059  0.3670 -0.1536
32445ION     NA48519   7.837   9.449   0.299  0.0076 -0.4152 -0.1528
32446ION     NA48520   7.723   9.744  10.534 -0.1509 -0.0057  0.0638
32447ION     NA48521   7.814   0.285  10.989  0.1112 -0.1406 -0.0223
32448ION     NA48522  15.492  16.675   1.527  0.0099 -0.2056  0.0616
32449ION     NA48523   2.995   9.641  10.343  0.4277 -0.0057 -0.1318
32450ION     NA48524  14.586   6.661   4.895 -0.2245 -0.0257 -0.1999
32451ION     NA48525   2.625  17.265   0.151 -0.1444 -0.1986  0.0574
32452ION     NA48526   3.956   6.434  10.599  0.0042 -0.1503  0.0781
32453ION     NA48527   5.076  17.688  14.229 -0.2278 -0.2918 -0.0417
32454ION     NA48528   9.247   3.496  10.716 -0.1847 -0.0164  0.0765
32455ION     NA48529  15.204   3.881   6.109 -0.0940 -0.0539 -0.1386
32456ION     NA48530  14.134   9.812  10.719  0.1280  0.4688  0.3610
32457ION     NA48531  17.912   8.357   3.882  0.2376  0.3750  0.2880
32458ION     NA48532   9.527   1.981   5.854  0.0633  0.0778  0.0770
32459ION     NA48533   0.214  14.559   2.808 -0.1989  0.0004  0.1769
32460ION     NA48534  10.154  10.341   1.280 -0.2345 -0.0644 -0.1008
32461ION     NA48535   1.960  11.500  10.337  0.1629  0.3117 -0.0078
32462ION     NA48536   6.928   8.489  10.416  0.0740  0.0212  0.0132
32463ION     NA48537   7.490  14.574  11.744  0.1519 -0.1394  0.0302
32464ION     NA48538   0.371   2.862  11.077  0.0984 -0.0100 -0.0407
32465ION     NA48539   6.023   1.228  10.983 -0.2909 -0.0380  0.1714
32466ION     NA48540   2.354  10.623  10.566  0.0226 -0.1351 -0.1456
32467ION     NA48541   0.574   6.748   5.460  0.0141 -0.0258  0.0722
32468ION     NA48542   4.828  16.633  12.295  0.0338 -0.0629 -0.0592
32469ION     NA48543   9.875  11.222  10.071 -0.0174 -0.0724 -0.2364
32470ION     NA48544   7.098  17.447   0.849 -0.1133 -0.0802  0.1812
32471ION     NA48545   0.061  16.604  10.098 -0.0018  0.0927 -0.1038
32472ION     NA48546   1.345   7.442   5.591  0.3551 -0.0726  0.0765
32473ION     NA48547  10.279   7.505   3.617 -0.0703  0.0693  0.3003
32474ION     NA48548   5.738  15.348  16.057 -0.2207  0.0470  0.0021
32475ION     NA48549   2.558  14.639   5.869 -0.1633  0.2056  0.0197
32476ION     NA48550   1.846   2.551  10.503  0.0740  0.2331 -0.1364
32477ION     NA48551  18.157  10.944  10.401 -0.0050  0.4097 -0.2626
32478ION     NA48552   4.246   9.685   4.680 -0.3624 -0.2785  0.2699
32479ION     NA48553   9.005   0.727   6.498 -0.1318 -0.0771 -0.3583
32480ION     NA48554  14.704  15.793  11.399 -0.1629  0.0692 -0.0536
32481ION     NA48555   5.813   8.766   5.901 -0.1928  0.1477 -0.0273
32482ION     NA48556  11.188  12.395   5.833 -0.3039 -0.1769 -0.0485
32483ION     NA48557   9.644   1.608  10.754 -0.1231 -0.1352  0.0472
32484ION     NA48558   1.016  11.443  10.181  0.2275 -0.0226  0.1074
32485ION     NA48559  13.363   4.912   4.589  0.1289 -0.4549  0.1218
32486ION     NA48560  15.653  13.015  10.568  0.1172  0.0720 -0.1983
32487ION     NA48561  15.503  10.285   5.526  0.2043 -0.1206  0.4457
32488ION     NA48562  12.570  13.778  10.455 -0.1936 -0.1954 -0.1557
32489ION     NA48563   0.384   0.408  10.130  0.0174  0.1978  0.2700
32490ION     NA48564   1.219  15.425  15.085  0.0316  0.0620 -0.1786
32491ION     NA48565  17.716   1.720  10.448 -0.2149  0.0902 -0.0796
32492ION     NA48566   1.243   0.990  10.151 -0.0887  0.0263 -0.0909
32493ION     NA48567   5.692  14.423  10.825  0.1177  0.0712 -0.3009
32494ION     NA48568   5.068  10.812  15.347 -0.3512 -0.0409  0.0393
32495ION     NA48569   0.793   8.520  10.084  0.6844 -0.0358  0.1076
32496ION     NA48570   1.988  14.411  10.421  0.0625 -0.0367 -0.0300
32497ION     NA48571   7.255  15.403  14.658 -0.2055  0.1811  0.2098
32498ION     NA48572   3.099   2.305  10.772  0.3274  0.1033  0.0730
32499ION     NA48573   4.139   8.056  10.034 -0.2655  0.1052 -0.0577
32500ION     NA48574  10.120  10.839  15.886  0.3127  0.0215 -0.1440
32501ION     NA48575   7.035  18.247  12.703  0.1419  0.0138 -0.0676
32502ION     NA48576   8.894   4.951   6.355  0.0712 -0.0335 -0.1858
32503ION     NA48577   8.754  13.150   1.301 -0.0419  0.1642 -0.2807
32504ION     NA48578   3.554   7.184  10.158  0.4633 -0.1137 -0.1132
32505ION     NA48579   7.876  13.370  10.658 -0.2649 -0.2880 -0.1729
32506ION     NA48580   5.267  16.659  16.081  0.0792 -0.3215  0.2353
32507ION     NA48581  13.094  15.200  10.720  0.0244 -0.0674 -0.0153
32508ION     NA48582   3.025   6.460  16.384 -0.1508 -0.2997  0.0173
32509ION     NA48583   7.020  12.591   6.315 -0.1974  0.2196 -0.0027
32510ION     NA48584   6.357   0.117   3.578  0.0751  0.2111 -0.4581
32511ION     NA48585  11.568   6.425  10.964  0.2121 -0.3179 -0.0839
32512ION     NA48586  16.660   7.078  15.878  0.2668 -0.1813 -0.0938
32513ION     NA48587   4.051   1.355  14.475  0.0614 -0.0396 -0.1802
32514ION     NA48588   5.120   8.934  10.224  0.1259  0.3814  0.4611
32515ION     NA48589   9.799   4.339   2.339  0.2678  0.0355 -0.2073
32516ION     NA48590   3.305   8.784   9.984 -0.1699 -0.0609 -0.0183
32517ION     NA48591  12.479   7.837  10.650 -0.2426  0.1777  0.2166
32518ION     NA48592   0.167   3.371  10.657 -0.1180 -0.2941  0.2170
32519ION     NA48593   7.101   6.917  10.636  0.1755  0.0206 -0.2302
32520ION     NA48594   8.457  16.511   6.124 -0.1087 -0.0441  0.1374
32521ION     NA48595  15.443   3.488   3.322 -0.0808 -0.1759 -0.2582
32522ION     NA48596   4.211   5.393  10.311 -0.1521  0.1583 -0.0251
32523ION     NA48597  17.369   6.572   3.860 -0.0642  0.1746 -0.1957
32524ION     NA48598   4.592   6.261  10.082 -0.0455 -0.1280  0.1313
32525ION     NA48599  18.216   9.453   0.674  0.0033  0.2902  0.0650
32526ION     NA48600  17.605   6.487  15.932 -0.2336  0.0605 -0.1853
32527ION     NA48601  17.259   5.170  10.583  0.2489 -0.1233  0.1864
32528ION     NA48602  12.349   6.109  10.815 -0.1954 -0.0030  0.0487
32529ION     NA48603   7.079  16.852   5.483 -0.0906 -0.0301  0.0299
32530ION     NA48604  10.166  11.174   3.022 -0.0924  0.0871 -0.0426
32531ION     NA48605   9.836  17.561   6.184 -0.1894  0.0866 -0.0654
32532ION     NA48606  17.485  15.122  10.186 -0.2136  0.0750  0.1912
32533ION     NA48607  12.320  14.904  14.149  0.0338  0.0461 -0.1940
32534ION     NA48608   8.806   6.566  12.474  0.3217  0.1216 -0.1028
32535ION     NA48609  16.049   2.517  14.530 -0.3276  0.1080  0.0268
32536ION     NA48610  16.762   1.594  10.691 -0.1160  0.2669  0.2296
32537ION     NA48611  13.525  10.057  10.445  0.2848  0.3966 -0.1270
32538ION     NA48612   2.824  15.533   5.955 -0.2781  0.2960 -0.2048
32539ION     NA48613  12.007   2.624   5.788 -0.4076 -0.0195 -0.3679
32540ION     NA48614   6.281   9.055  10.178 -0.2612 -0.1806 -0.1043
32541ION     NA48615   5.035  16.990  11.029 -0.1200  0.0612  0.2072
32542ION     NA48616   0.189   8.837   2.726 -0.0584 -0.1129 -0.0394
32543ION     NA48617   2.282   6.871  15.564 -0.0933  0.1464 -0.2752
32544ION     NA48618   8.147   5.507  16.099 -0.1907 -0.1016 -0.0921
32545ION     NA48619  16.836  11.246   2.554 -0.1642 -0.2078  0.0899
32546ION     NA48620   0.983   3.605  10.568  0.0054 -0.0128 -0.2397
32547ION     NA48621   1.291   6.676  10.226  0.0271 -0.1047 -0.1940
32548ION     NA48622  13.324  10.876  10.458 -0.0624 -0.1460  0.1806
32549ION     NA48623   7.701   4.281   6.030  0.0680  0.2483  0.2377
32550ION     NA48624   1.002   5.059  10.568  0.2030  0.0163  0.3081
32551ION     NA48625   4.226  10.224  13.610 -0.2815 -0.0169  0.2088
32552ION     NA48626   7.397   1.572   6.460  0.1188 -0.0220  0.0689
32553ION     NA48627   5.968  11.830   3.062 -0.0194 -0.1339 -0.0334
32554ION     NA48628   9.556   2.307  10.820 -0.0121  0.0031  0.3686
32555ION     NA48629  11.543  11.576   5.833 -0.2367  0.0344  0.0019
32556ION     NA48630  12.703   3.245  10.872  0.2689  0.2447 -0.1093
32557ION     NA48631   0.399   4.311  10.748 -0.0855 -0.2051  0.5625
32558ION     NA48632  11.324  14.206   1.183 -0.3546  0.2100 -0.0070
32559ION     NA48633  12.045   5.818  14.921 -0.1264 -0.2778  0.1851
32560ION     NA48634  14.546  15.838  15.941  0.0047  0.0804 -0.3918
32561ION     NA48635   9.300  17.513   0.471 -0.0735 -0.0376  0.0815
32562ION     NA48636  11.411   7.759   6.003  0.1961 -0.2996 -0.2664
32563ION     NA48637  13.407  10.069  11.050  0.2471  0.0497 -0.0037
32564ION     NA48638   1.651   3.029   3.421 -0.3078 -0.0816  0.3355
32565ION     NA48639  14.838  12.303  15.698  0.0880 -0.1159  0.2513
32566ION     NA48640  15.943   5.661   6.183 -0.0406  0.2305 -0.1548
32567ION     NA48641   9.982  17.755   1.050  0.2880 -0.0828 -0.0105
32568ION     NA48642   5.104   6.309  10.369  0.1191 -0.1924 -0.0682
32569ION     NA48643   3.702   6.023  10.393 -0.0921  0.2347  0.0034
32570ION     NA48644  15.753   7.958  10.781 -0.0720  0.2941  0.0804
32571ION     NA48645   5.119   6.687   5.688  0.2078  0.2118 -0.0772
32572ION     NA48646   5.370  11.090  10.271  0.1101  0.2368  0.0941
32573ION     NA48647   7.800  17.366  11.829 -0.2339 -0.2516 -0.0534
32574ION     NA48648  16.253  13.339  10.692  0.0202 -0.0052 -0.0953
32575ION     NA48649   9.618  13.353   3.518 -0.0872  0.0571 -0.1241
32576ION     NA48650  15.412  17.533   1.271  0.3619  0.0587 -0.1582
32577ION     NA48651  16.028  18.065  10.447 -0.2287 -0.1379 -0.0699
32578ION     NA48652   2.559  15.415  13.667  0.3047 -0.1691  0.0149
32579ION     NA48653   6.279   7.586  10.588 -0.1487 -0.0906 -0.1592
32580ION     NA48654  13.138   9.365  10.464  0.1723  0.0060 -0.0592
32581ION     NA48655  14.189  12.935  10.841  0.0327 -0.3497  0.1714
32582ION     NA48656   6.210   6.652  10.607  0.0500 -0.1283 -0.0249
32583ION     NA48657   1.769  18.242  12.464 -0.3187  0.2593  0.0534
32584ION     NA48658   5.820   1.166  14.892  0.1027 -0.1602  0.1024
32585ION     NA48659  13.756  14.765  10.838  0.2163  0.0043  0.0568
32586ION     NA48660  16.861   0.049   5.009 -0.0162 -0.3645 -0.0576
32587ION     NA48661  18.104  15.326   5.683  0.2952  0.0498 -0.1170
32588ION     NA48662  17.292   7.921  12.911  0.0077  0.0031  0.0053
32589ION     NA48663   0.754   1.232  10.395 -0.1926  0.2221  0.2339
32590ION     NA48664   7.214  10.297   5.342  0.1037  0.0197 -0.0109
32591ION     NA48665  15.294  16.729  10.770  0.0194  0.4020  0.2869
32592ION     NA48666   3.498  17.966  10.430  0.0233 -0.0488  0.5532
32593ION     NA48667  17.453   8.921  15.631  0.1633  0.3812  0.3359
32594ION     NA48668  18.022  13.537  12.196  0.2002  0.3133  0.2129
32595ION     NA48669   5.087   6.967  15.273  0.0296  0.0177 -0.0407
32596ION     NA48670   0.685   0.013   0.392  0.0513  0.1284 -0.1507
32597ION     NA48671   6.041  13.540  10.750  0.0412 -0.0976  0.1429
32598ION     NA48672  12.305   2.429   0.429  0.0501  0.2275 -0.2512
32599ION     NA48673  17.781  10.712   1.439  0.2038 -0.3562  0.1002
32600ION     NA48674  18.240  11.960  10.396  0.1211 -0.0319  0.1751
32601ION     NA48675   8.632  16.737  15.129  0.2371 -0.2637 -0.2531
32602ION     NA48676   6.517   9.257   0.580 -0.1247  0.0090  0.1277
32603ION     NA48677   6.589   5.700  10.582  0.4432  0.3295 -0.0891
32604ION     NA48678   3.436   3.778  10.477 -0.0182 -0.0739  0.0537
32605ION     NA48679  17.697   7.427   5.967 -0.2402  0.1495  0.0329
32606ION     NA48680   2.445  16.326  13.767 -0.2794 -0.0824 -0.1932
32607ION     NA48681   9.269   7.950  10.599 -0.1883  0.0831 -0.3382
32608ION     NA48682   2.208  17.353  10.501 -0.1127  0.0622 -0.0869
32609ION     NA48683  10.615   7.058  15.978 -0.1695 -0.0302  0.0456
32610ION     NA48684  15.874   1.629  10.718  0.1535 -0.0088 -0.1559
32611ION     NA48685   0.400  18.081  13.628  0.1919  0.1322 -0.0440
32612ION     NA48686   1.651   8.963   9.980 -0.2850 -0.2507  0.1291
32613ION     NA48687  11.988  17.454   5.866 -0.0614  0.0387 -0.1141
32614ION     NA48688   7.315  16.507   6.314  0.3239  0.0984 -0.1890
32615ION     NA48689   7.048   4.262   5.506 -0.0177 -0.0210 -0.0577
32616ION     NA48690   7.476   6.030  10.683  0.1085 -0.2111  0.0074
32617ION     NA48691   0.702   3.000   5.853  0.1656  0.0767 -0.3094
32618ION     NA48692   1.886   5.548  10.721 -0.3851 -0.1868  0.2812
32619ION     NA48693  15.246  13.443   1.934 -0.0653  0.0597  0.1209
32620ION     NA48694  16.414   9.270  10.493 -0.3173 -0.2203 -0.0617
32621ION     NA48695   1.542   9.750   3.968  0.1712 -0.1880  0.1938
32622ION     NA48696  17.807  11.059   3.350  0.3955 -0.0460 -0.6287
32623ION     NA48697  14.092  15.498  10.922  0.3687 -0.2395 -0.4286
32624ION     NA48698   9.581  17.850  11.036 -0.0901  0.1109 -0.1009
32625ION     NA48699   4.688   1.836  10.793 -0.0702  0.0797  0.0783
32626ION     NA48700  16.948  14.444   3.629  0.2321  0.2493  0.3921
32627ION     NA48701  15.951   4.762   1.286 -0.0726  0.0909  0.0750
32628ION     NA48702   2.471  16.581   3.474  0.1701  0.0626 -0.1532
32629ION     NA48703  16.557   3.010  10.611  0.0881  0.0273  0.0930
32630ION     NA48704  13.190   1.060  11.777 -0.1722 -0.0599  0.0536
32631ION     NA48705  10.513  14.099   6.068  0.0875  0.0865  0.0518
32632ION     NA48706   7.193   2.979  10.764  0.2471  0.2682 -0.0426
32633ION     NA48707  12.474  13.052  10.491  0.0710  0.0556  0.2731
32634ION     NA48708  13.792  18.019  10.643 -0.3290  0.2095 -0.0745
32635ION     NA48709   3.373  12.832   2.705  0.2099 -0.0606  0.0160
32636ION     NA48710  12.029  18.120   4.238 -0.0477 -0.2226  0.0924
32637ION     NA48711  12.450   8.089   4.661 -0.1717 -0.0258  0.0361
32638ION     NA48712  13.558  12.342  10.647 -0.2092  0.1657 -0.3340
32639ION     NA48713   5.599  14.279  11.753  0.0549  0.5689 -0.1476
32640ION     NA48714   2.319  16.677  14.546  0.1575 -0.1191 -0.1956
32641ION     NA48715  14.569  17.384  10.677  0.3372  0.2250 -0.0624
32642ION     NA48716  12.951   0.452  10.752  0.1254  0.2631  0.0283
32643ION     NA48717   4.462  14.292   5.733  0.3470 -0.1596 -0.0167
32644ION     NA48718   2.450   1.762  10.440  0.0580  0.2937  0.3181
32645ION     NA48719   9.754   9.305  10.383 -0.2146 -0.1084  0.3481
32646ION     NA48720   8.549  17.284  11.212  0.1465 -0.2117 -0.1099
32647ION     NA48721   2.129   9.555   9.900  0.1112  0.0660 -0.0068
32648ION     NA48722   5.961   6.312  10.876  0.1556  0.3733 -0.2239
32649ION     NA48723  10.270  14.380  10.938  0.1280  0.1198 -0.2199
32650ION     NA48724  14.926  15.739  10.659  0.2375  0.4054  0.0863
32651ION     NA48725   5.987   9.724   5.933 -0.0426 -0.0092  0.0272
32652ION     NA48726   7.857   6.458  10.470  0.0377  0.5056 -0.0553
32653ION     NA48727   6.210   1.464   6.126 -0.0279  0.2066 -0.2438
32654ION     NA48728   6.454  17.306  10.886  0.1704  0.1465 -0.0497
32655ION     NA48729   2.751   8.033   9.848 -0.1771  0.1440  0.2266
32656ION     NA48730  10.768   1.030   6.269 -0.1142  0.4453 -0.0734
32657ION     NA48731  11.327  11.222  10.285 -0.0869  0.0677 -0.1315
32658ION     NA48732   8.357   9.963  11.045 -0.1290  0.0325 -0.1270
32659ION     NA48733   4.268   0.042  11.042  0.2680 -0.3375 -0.3510
32660ION     NA48734   8.936  11.507   6.235 -0.1821  0.1159  0.0837
32661ION     NA48735  11.260   6.327  10.535  0.1578 -0.1387  0.1545
32662ION     NA48736   3.421   5.190  10.549  0.1616 -0.0981  0.3849
32663ION     NA48737  12.730  12.066  10.556 -0.3594  0.0168  0.0959
32664ION     NA48738  18.035   6.312  15.008 -0.0008 -0.1229  0.1570
32665ION     NA48739   6.293   8.964   5.697  0.2214 -0.2003 -0.0715
32666ION     NA48740  13.416  13.490  10.423 -0.3501  0.0413 -0.3569
32667ION     NA48741  14.198   6.224  10.712  0.2773  0.0237  0.1856
32668ION     NA48742  12.423   6.699  14.722 -0.2430  0.3331  0.1057
32669ION     NA48743   5.603  14.115   6.252  0.5218 -0.0374  0.2077
32670ION     NA48744   4.712  17.713  10.807  0.0751  0.0517 -0.1429
32671ION     NA48745  11.369   1.086  10.727 -0.2997  0.0610 -0.4484
32672ION     NA48746   5.238  12.053  15.911  0.0487 -0.1247 -0.0813
32673ION     NA48747   8.560  11.761  10.550  0.3054 -0.0184 -0.0237
32674ION     NA48748  15.792   6.672  15.787  0.1749  0.2247  0.1849
32675ION     NA48749   6.777   4.600  10.368  0.2236  0.4399  0.1118
32676ION     NA48750  15.797   7.036  10.617 -0.0018 -0.2632  0.1293
32677ION     NA48751   8.916   7.046   5.937 -0.0589 -0.0154 -0.1627
32678ION     NA48752   2.610   7.609   2.311 -0.2196 -0.0905 -0.0748
32679ION     NA48753  11.189   9.057   5.529 -0.2238  0.0013  0.1330
32680ION     NA48754  10.922   4.495   6.412  0.1404 -0.0779 -0.0137
32681ION     NA48755  14.520   8.379   6.117  0.3456  0.0430 -0.0902
32682ION     NA48756  14.744   3.506   2.753  0.3858 -0.3868  0.1250
32683ION     NA48757  15.754  17.736  10.675 -0.0045  0.0458  0.1519
32684ION     NA48758   7.030  15.566  10.969  0.1151 -0.4120  0.2321
32685ION     NA48759  12.221  10.499   3.606 -0.1974  0.1159  0.0417
32686ION     NA48760   0.495   6.028  10.409  0.1254 -0.4515 -0.0418
32687ION     NA48761  18.154   5.312  10.647  0.1071 -0.1252  0.0358
32688ION     NA48762   5.531  11.369   6.246  0.0307 -0.0096  0.0140
32689ION     NA48763   0.755  12.951   5.161  0.2535  0.0723 -0.0159
32690ION     NA48764   6.258  10.634  10.173 -0.1677 -0.2488 -0.0356
32691ION     NA48765  15.429  15.818  10.585  0.1097 -0.2197 -0.2214
32692ION     NA48766   1.155  13.573  10.073 -0.0924  0.3152 -0.0238
32693ION     NA48767   6.503   8.059   5.459  0.1597 -0.2680 -0.4896
32694ION     NA48768  13.444   6.610   5.890 -0.2480  0.0747  0.0576
32695ION     NA48769  11.659   8.428  11.064 -0.2062  0.1728 -0.1097
32696ION     NA48770  12.254   4.110  10.860  0.0342 -0.1589  0.0598
32697ION     NA48771  16.395   9.765  11.390  0.2672  0.1831  0.1606
32698ION     NA48772  15.425   0.916  10.632 -0.2747  0.0660  0.2160
32699ION     NA48773  17.330  11.046  10.659  0.2685 -0.0530  0.0242
32700ION     NA48774   5.876   8.698   4.528  0.1219 -0.3204  0.3513
32701ION     NA48775  11.773   4.222  12.132 -0.1389  0.1996 -0.0172
32702ION     NA48776   9.316   3.239   5.310 -0.2997  0.1599 -0.0310
32703ION     NA48777   2.003  15.429   1.822 -0.1916 -0.1121 -0.1654
32704ION     NA48778  10.275   0.154   6.227 -0.1263 -0.0838  0.1034
32705ION     NA48779  10.032   9.652   5.865 -0.0016 -0.0882  0.0526
32706ION     NA48780  15.338  13.141  11.133  0.3040  0.0622  0.1442
32707ION     NA48781   8.511  15.184  10.959 -0.1696  0.0254 -0.1295
32708ION     NA48782  11.297   4.133  12.344  0.1262  0.0295  0.2131
32709ION     NA48783   4.984   7.882  10.307 -0.1445 -0.4208 -0.2191
32710ION     NA48784   3.608   5.842   0.887 -0.0234 -0.0875  0.1118
32711ION     NA48785  12.907   3.428   2.194 -0.1179  0.1785 -0.1363
32712ION     NA48786  18.184   9.886  10.327  0.0758  0.2941 -0.4184
32713ION     NA48787  14.048  17.253  10.756  0.1290 -0.2659  0.5285
32714ION     NA48788  18.210   4.805  13.418 -0.0230  0.0353  0.1866
32715ION     NA48789   7.999   8.405  10.103 -0.1948 -0.1707 -0.0251
32716ION     NA48790  15.149   6.780   3.112 -0.1668  0.1913 -0.0574
32717ION     NA48791   6.261   5.332  10.772  0.1279 -0.2696  0.0257
32718ION     NA48792   1.144   9.952  15.899 -0.0088  0.0138  0.1215
32719ION     NA48793  16.281  11.052  10.461 -0.0960 -0.1818 -0.0278
32720ION     NA48794   8.007  15.058   2.457  0.0006  0.3057 -0.2095
32721ION     NA48795   1.129   9.293   9.960 -0.0280 -0.0555 -0.4708
32722ION     NA48796   3.553   0.479  10.935 -0.0983  0.0829  0.1056
32723ION     NA48797  15.837   6.740  13.409 -0.0152  0.0086  0.0023
32724ION     NA48798  15.234   0.197  10.753  0.1671  0.1909  0.1055
32725ION     NA48799   5.221   0.266  10.919  0.4699  0.0633  0.0774
32726ION     NA48800  10.235   6.594  10.595 -0.2125 -0.2424 -0.0837
32727ION     NA48801   9.958  10.265  10.215 -0.0371  0.0010  0.2541
32728ION     NA48802  10.611  17.229  10.945  0.1179  0.0334  0.0590
32729ION     NA48803   7.916  17.647  12.643  0.0012 -0.2400  0.1342
32730ION     NA48804   6.037  10.335  14.143 -0.1875  0.3153  0.0430
32731ION     NA48805  11.045   1.850  11.052 -0.3201  0.1736  0.3376
32732ION     NA48806  10.800  17.917   2.088 -0.1469 -0.1718 -0.0358
32733ION     NA48807   7.682   8.706   0.976 -0.0221 -0.2016 -0.2826
32734ION     NA48808   3.104  10.564  14.099 -0.0211  0.1884  0.2219
32735ION     NA48809   9.979   3.143  10.850  0.2149  0.0312  0.2348
32736ION     NA48810  17.234   9.330  10.460  0.2369 -0.1831 -0.1534
32737ION     NA48811   6.895   1.257  11.196  0.1011  0.0490 -0.2488
32738ION     NA48812   5.939   7.202   5.703  0.0011 -0.0866 -0.4301
32739ION     NA48813  11.534   8.292  10.573 -0.2467 -0.0273  0.0779
32740ION     NA48814  16.389  12.461  10.795 -0.2755  0.1447 -0.0482
32741ION     NA48815   7.858   7.638  14.505  0.1118  0.2171 -0.1678
32742ION     NA48816   5.369  13.443  13.341 -0.0678  0.0266  0.0216
32743ION     NA48817   5.738  16.602   5.805 -0.2479  0.1544 -0.0507
32744ION     NA48818   1.295  15.504  13.920 -0.2315  0.0188 -0.3461
32745ION     NA48819   8.194  16.122  10.621 -0.1915  0.2804  0.1026
32746ION     NA48820  16.465   8.457   5.878 -0.0476 -0.2406  0.1350
32747ION     NA48821   5.799   8.381  10.726  0.2160 -0.0823 -0.1004
32748ION     NA48822   9.217  14.057  10.717  0.1055 -0.3566 -0.1629
32749ION     NA48823  14.597  13.726  10.705 -0.2578  0.1040  0.2033
32750ION     NA48824  13.247  17.290  10.816  0.1298 -0.2007 -0.0428
32751ION     NA48825  17.448   4.154   5.679 -0.0064  0.1668 -0.2982
32752ION     NA48826   8.031   6.228  15.414  0.1558  0.1066 -0.0407
32753ION     NA48827   9.706  15.290   6.319  0.1068  0.0374 -0.1711
32754ION     NA48828  15.663   5.477  10.678  0.2890 -0.0759 -0.1551
32755ION     NA48829   8.644   6.312  11.521  0.0544  0.1702  0.3216
32756ION     NA48830  15.003   1.778  10.842  0.0204  0.1181 -0.0192
32757ION     NA48831  12.891   6.310  10.915  0.1641 -0.0429 -0.1220
32758ION     NA48832   3.115   1.183  10.718 -0.0850  0.0722 -0.0633
32759ION     NA48833   7.236  11.263  15.312  0.2406  0.1265  0.2601
32760ION     NA48834   8.681   3.524  12.419  0.1982  0.0914  0.1371
32761ION     NA48835  17.182  16.982   6.051  0.0138  0.3773  0.0051
32762ION     NA48836   0.498  17.728   5.836  0.3175 -0.2165  0.0242
32763ION     NA48837   2.017  18.059  10.224  0.0006  0.2312  0.0632
32764ION     NA48838  10.126   0.372   0.541  0.0902  0.2090  0.0171
32765ION     NA48839   7.323   8.503  12.363 -0.1695 -0.3605  0.1518
32766ION     NA48840   7.769   4.480  10.575  0.1859  0.0032  0.0685
32767ION     NA48841  11.185   6.601  13.236  0.2289  0.1003  0.0603
32768ION     NA48842  15.447   8.905  10.811 -0.0294  0.4806 -0.0760
32769ION     NA48843   8.085   5.408  10.647 -0.0338 -0.4724 -0.1480
32770ION     NA48844  12.110   7.106  13.001 -0.0127  0.0339 -0.0288
32771ION     NA48845  11.639   9.467  10.492  0.1769 -0.1343  0.0628
32772ION     NA48846   6.287  15.117  10.854 -0.3558 -0.2462 -0.2024
32773ION     NA48847  12.432   4.049   0.277  0.0225 -0.1398  0.0746
32774ION     NA48848   7.046  11.913  10.675  0.1546 -0.0141  0.1724
32775ION     NA48849  14.200  10.902  10.570  0.2726  0.0677  0.1469
32776ION     NA48850  16.356   5.820  15.432  0.3468 -0.1787 -0.2819
32777ION     NA48851  13.663   6.408  13.142 -0.0924  0.0120  0.0186
32778ION     NA48852   7.517   0.735  13.257  0.0695 -0.0831 -0.1924
32779ION     NA48853   6.168   9.929   9.990  0.1808  0.2885  0.0493
32780ION     NA48854  14.919   7.301  10.937  0.1711  0.0441 -0.0945
32781ION     NA48855   3.350  12.464  10.387 -0.0461 -0.1531  0.1954
32782ION     NA48856   2.240  15.109  12.887 -0.2341  0.0051  0.4357
32783ION     NA48857  11.313  15.691   5.244 -0.1463  0.2480  0.2130
32784ION     NA48858   8.887  10.682   6.007 -0.1318  0.1129 -0.2085
32785ION     NA48859   2.645   5.552   5.796  0.0886  0.0913  0.0257
32786ION     NA48860  13.327   3.957  11.002 -0.0631 -0.1477 -0.2628
32787ION     NA48861  16.339   4.813  10.533 -0.1227 -0.0538 -0.2968
32788ION     NA48862  12.644   1.518  10.797 -0.0789 -0.0587  0.4231
32789ION     NA48863   4.415  14.894  10.600 -0.2705  0.2907  0.2772
32790ION     NA48864   8.237  11.684   0.876  0.2426  0.0480  0.1693
32791ION     NA48865  12.641  15.867   4.278  0.0588  0.1444 -0.2344
32792ION     NA48866  10.484   8.628  10.527  0.1196 -0.1463  0.0791
32793ION     NA48867  14.869  13.222   5.683  0.0659 -0.0771 -0.0088
32794ION     NA48868   1.811   6.043  14.720  0.0582 -0.0079 -0.1364
32795ION     NA48869   0.748   2.585   1.194  0.2651 -0.1903  0.3352
32796ION     NA48870   1.643   9.426  14.103  0.0353 -0.1859 -0.3037
32797ION     NA48871  12.250  13.640   6.089  0.1347  0.1148  0.3263
32798ION     NA48872   8.953  16.394   5.044 -0.3581 -0.3311 -0.0353
32799ION     NA48873   3.399  16.634  10.687 -0.0464  0.2302 -0.1808
32800ION     NA48874  10.835   6.772   5.470 -0.0513 -0.1332  0.1036
32801ION     NA48875   4.588  16.342  15.522  0.0327 -0.1032 -0.0437
32802ION     NA48876  12.619  10.045  10.563  0.0035  0.2414  0.0466
32803ION     NA48877   1.535  17.403   1.508  0.1475 -0.1575  0.3121
32804ION     NA48878   6.380   3.168   5.796 -0.0604 -0.1445 -0.2385
32805ION     NA48879   4.636  15.885   1.595 -0.0772 -0.0389 -0.0668
32806ION     NA48880   2.989   5.561  10.441 -0.0365 -0.0288  0.0487
32807ION     NA48881  11.636   2.861  12.952  0.1541  0.1022  0.0907
32808ION     NA48882  17.932   4.428  10.722  0.0668  0.1654 -0.2893
32809ION     NA48883  11.898  11.826  10.334 -0.0895  0.1941  0.1355
32810ION     NA48884  17.971  12.973  10.250  0.1245 -0.0005  0.0935
32811ION     NA48885  17.381   3.288  10.599  0.0090  0.2440 -0.0357
32812ION     NA48886  13.697  10.335   0.667  0.1168 -0.0433  0.2751
32813ION     NA48887  12.942  14.496   6.199  0.3765  0.0764  0.3918
32814ION     NA48888  13.202  12.668  12.846  0.1891  0.1506 -0.2179
32815ION     NA48889  11.394  10.392  10.381  0.0871 -0.1814 -0.0504
32816ION     NA48890  17.151  11.440  16.236  0.3507 -0.0668 -0.2483
32817ION     NA48891   3.113  13.917   5.685 -0.0170  0.0164  0.0985
32818ION     NA48892  14.925  10.240  11.354  0.2456 -0.1290 -0.3146
32819ION     NA48893  17.966   6.454   5.915 -0.0422  0.0114  0.1062
32820ION     NA48894  14.163  11.576   4.162 -0.2173 -0.0342  0.2038
32821ION     NA48895   8.842   9.682  10.178 -0.1229 -0.1616  0.1413
32822ION     NA48896  12.348  15.756  10.750  0.0183  0.0940  0.0662
32823ION     NA48897  10.642  10.652  10.146  0.1039  0.1373 -0.1977
32824ION     NA48898  14.180  13.933  10.575  0.1825 -0.2786  0.1863
32825ION     NA48899   7.743   3.966  16.042  0.0168 -0.0795  0.2169
32826ION     NA48900  11.733   3.394   5.902 -0.3201 -0.0464  0.0414
32827ION     NA48901   0.381   3.046   4.862  0.3045  0.1336 -0.5827
32828ION     NA48902   2.005   3.979   2.364  0.2939 -0.1658 -0.2605
32829ION     NA48903   4.397  15.838  10.632  0.3052 -0.0874 -0.0641
32830ION     NA48904  14.913  12.677  10.723 -0.3403 -0.1070  0.2618
32831ION     NA48905  14.802   8.264  10.722  0.2959 -0.0268  0.0247
32832ION     NA48906   3.626  14.487  12.782 -0.0485  0.2889 -0.3213
32833ION     NA48907   5.840  15.933  10.721 -0.0016  0.2828  0.2348
32834ION     NA48908   7.269  13.721  10.764  0.0325  0.2204  0.0200
32835ION     NA48909  12.453   0.403  10.907  0.0086 -0.0638 -0.1021
32836ION     NA48910   6.770   7.639  10.484 -0.1027 -0.1876 -0.0703
32837ION     NA48911   2.966   2.805   5.342  0.1128  0.0983 -0.2357
32838ION     NA48912   1.538  18.052  10.434  0.1145 -0.2705  0.2240
32839ION     NA48913   7.544  17.681  11.013 -0.1458  0.1637  0.1857
32840ION     NA48914   5.083   3.670  12.150  0.4322 -0.1246  0.2839
32841ION     NA48915   9.066   1.847  12.433 -0.2274  0.0645  0.2225
32842ION     NA48916  17.881  14.164   5.727 -0.1344  0.1376 -0.3172
32843ION     NA48917   0.678   5.971  13.959  0.2560 -0.1253 -0.3749
32844ION     NA48918  13.654  11.654  10.884  0.1281 -0.2659  0.1420
32845ION     NA48919  18.095   7.267  10.511  0.1483 -0.1191 -0.3713
32846ION     NA48920  12.886  12.453   6.100 -0.0851 -0.0642  0.0584
32847ION     NA48921  15.267   3.348   5.441 -0.1103 -0.2725  0.3755
32848ION     NA48922  10.829   9.586  10.618 -0.4019 -0.1431 -0.0416
32849ION     NA48923  11.784   0.169   6.054 -0.1951  0.3620  0.0303
32850ION     NA48924   8.458  16.545  10.649  0.0443 -0.2392 -0.0248
32851ION     NA48925   0.526  15.568  10.248  0.2180 -0.2127  0.0986
32852ION     NA48926   7.498   2.605   6.262  0.2781  0.1158  0.0282
32853ION     NA48927  12.041   7.547  10.697  0.3168  0.0942  0.0207
32854ION     NA48928   7.821   6.552  13.415 -0.0823  0.0936  0.0150
32855ION     NA48929   5.684   2.512   1.850  0.2617  0.0116  0.0490
32856ION     NA48930  16.408   0.830  10.728 -0.0764 -0.2860 -0.0252
32857ION     NA48931  13.634  15.120   6.034 -0.0012  0.1550  0.2114
32858ION     NA48932   9.423  12.134  10.528  0.1517  0.1342  0.3745
32859ION     NA48933  10.216  11.868  10.716 -0.0843  0.0640 -0.0635
32860ION     NA48934   0.043   8.162  14.837 -0.0494 -0.1706  0.0762
32861ION     NA48935  15.015  10.620   6.248 -0.0192  0.0133 -0.2629
32862ION     NA48936  18.014  11.981   5.799  0.2407  0.3006 -0.1936
32863ION     NA48937   3.465  13.370  16.249  0.1129  0.0997  0.0295
32864ION     NA48938   9.462  10.138  10.063 -0.0938  0.1111  0.0097
32865ION     NA48939   0.519  17.788   3.658 -0.1421 -0.0178  0.0169
32866ION     NA48940   5.972  12.257  10.593  0.1273 -0.3195  0.1050
32867ION     NA48941   9.768  16.754  10.773 -0.1120 -0.0704  0.1034
32868ION     NA48942   4.896  11.744  10.458  0.1916 -0.2182 -0.1711
32869ION     NA48943  16.642  17.288  10.429 -0.0792  0.0674  0.1118
32870ION     NA48944   0.073  13.769  13.739  0.3303 -0.1316  0.3570
32871ION     NA48945  10.718  16.718   5.864 -0.0256  0.1259 -0.0780
32872ION     NA48946  10.112   0.258  10.957  0.0741 -0.2325 -0.0761
32873ION     NA48947  17.516   0.897  10.301 -0.1086 -0.3366  0.2724
32874ION     NA48948   3.966  11.761  10.110  0.3212  0.1757  0.2233
32875ION     NA48949   7.119   6.114   1.445 -0.0248 -0.1902  0.2735
32876ION     NA48950  12.903   6.743  12.040  0.1517 -0.0376  0.0200
32877ION     NA48951   8.496   5.624   5.974  0.0230 -0.1118 -0.0753
32878ION     NA48952  14.715  16.854   3.710 -0.1492  0.2218 -0.1785
32879ION     NA48953  12.727   9.914   3.119  0.0501 -0.1899 -0.2528
32880ION     NA48954  11.084  14.394  10.710  0.3951 -0.3001 -0.0872
32881ION     NA48955  17.523  17.120  10.225  0.0815  0.0354 -0.0712
32882ION     NA48956   3.482  15.223   5.472 -0.0804 -0.1336 -0.2487
32883ION     NA48957   2.798  11.858  10.136 -0.3452  0.1229 -0.0996
32884ION     NA48958  12.164   0.053  15.623  0.2877 -0.2166  0.1435
32885ION     NA48959  15.689   3.555  10.778  0.0126  0.3141 -0.1169
32886ION     NA48960  10.868   5.448  10.743 -0.0665 -0.0573  0.0986
32887ION     NA48961  15.375   1.250   5.350 -0.1515  0.2142 -0.0268
32888ION     NA48962  15.958   2.447  10.782  0.1899  0.2948  0.2413
32889ION     NA48963  11.420  17.377  10.917 -0.0612  0.2269 -0.0088
32890ION     NA48964   9.812   4.024  15.766 -0.0656  0.0843  0.1526
32891ION     NA48965   9.335   5.475   5.754  0.1061  0.0200 -0.0117
32892ION     NA48966   6.305  17.217  14.404  0.1895 -0.0333 -0.0897
32893ION     NA48967  14.425   4.875  11.831 -0.2063  0.0780 -0.1126
32894ION     NA48968   6.158  16.641   3.455  0.1525 -0.5456 -0.0561
32895ION     NA48969   7.840   3.315   1.238  0.1353  0.2848  0.1429
32896ION     NA48970  14.778   3.768  10.878 -0.2670  0.0783 -0.3815
32897ION     NA48971  14.193   9.169   5.392  0.0862  0.2071  0.2556
32898ION     NA48972   2.205   0.641  10.159 -0.1763  0.1646 -0.0345
32899ION     NA48973   3.507  15.496  10.846  0.1438  0.0774 -0.2759
32900ION     NA48974   1.486  10.387  10.958 -0.1375  0.0489 -0.0128
32901ION     NA48975  11.377   2.584  10.845 -0.0508 -0.4013  0.0057
32902ION     NA48976  16.055   6.814   1.337  0.1680 -0.0118 -0.2587
32903ION     NA48977  13.793  16.445  10.818 -0.2772 -0.0148  0.3286
32904ION     NA48978   2.850   3.067  13.384 -0.1864  0.4229 -0.0351
32905ION     NA48979   1.320  15.100  10.329 -0.1521 -0.0373  0.0561
32906ION     NA48980  12.148  10.923  10.347  0.0709  0.1540  0.1749
32907ION     NA48981   2.886   4.661  10.323 -0.4880  0.0699 -0.1695
32908ION     NA48982   1.816   7.352   9.923  0.1152  0.2293 -0.2487
32909ION     NA48983  10.155  15.051  10.811 -0.1019  0.0219 -0.0066
32910ION     NA48984  14.912  10.215  10.470  0.2560 -0.4003  0.0090
32911ION     NA48985   2.056  16.135  10.122 -0.2636  0.0680  0.2526
32912ION     NA48986   7.808  16.973  10.851  0.0913 -0.2882 -0.1292
32913ION     NA48987   0.510  15.125  14.507  0.1692 -0.1209 -0.0074
32914ION     NA48988   1.783   8.418   5.619  0.2595 -0.2302  0.2794
32915ION     NA48989   9.623   8.660   2.187 -0.1908 -0.3416 -0.0668
32916ION     NA48990   5.025   0.401   6.097  0.0614 -0.3380  0.2903
32917ION     NA48991   9.159  16.000  10.883 -0.0971 -0.1601 -0.0186
32918ION     NA48992  13.909   7.931  10.401 -0.1837  0.0191 -0.0816
32919ION     NA48993  15.158  15.370   3.291 -0.0795 -0.1350  0.0684
32920ION     NA48994   7.770  15.165  11.013  0.3150 -0.1087 -0.0527
32921ION     NA48995  13.652   4.809  10.725  0.0310 -0.1096  0.0297
32922ION     NA48996  11.189   8.329   1.210  0.2285  0.1000 -0.0279
32923ION     NA48997  14.577   2.965   0.538  0.1016  0.1597  0.0575
32924ION     NA48998   1.837   5.995   4.051  0.1739  0.2765 -0.1453
32925ION     NA48999  12.064   5.059   6.325  0.2541 -0.3118  0.1391
32926ION     NA49000   5.746  16.790  11.052 -0.2750 -0.0607  0.1834
32927ION     NA49001  14.138  10.337   3.181  0.0481  0.2280 -0.3735
32928ION     NA49002   2.653  14.111  10.558  0.1356 -0.2183 -0.1091
32929ION     NA49003  14.543  14.686  10.913 -0.0861 -0.1608 -0.3916
32930ION     NA49004   3.840  13.227  10.564  0.2663  0.2126 -0.0329
32931ION     NA49005  15.687   9.474   0.953 -0.2467  0.2592  0.0007
32932ION     NA49006   3.166  13.568  10.368 -0.0588  0.0875 -0.1781
32933ION     NA49007   3.943   4.573  10.434  0.3763 -0.0444  0.0419
32934ION     NA49008   3.881   4.853   1.273  0.1810  0.0217 -0.0550
32935ION     NA49009  12.314  14.520   6.274 -0.1454 -0.1194 -0.1013
32936ION     NA49010  16.088   4.810   3.974  0.2245 -0.1349 -0.3231
32937ION     NA49011   0.552   9.834  10.226 -0.3065 -0.2721 -0.2039
32938ION     NA49012  15.089   1.901  13.249 -0.1485  0.2503 -0.0181
32939ION     NA49013   2.281  15.242  10.291 -0.0713  0.3578 -0.0983
32940ION     NA49014   4.813   7.380   1.184  0.1692  0.1622  0.1084
32941ION     NA49015   8.839   8.855  10.386  0.0539 -0.2335  0.2371
32942ION     NA49016  14.763   7.093   1.759  0.3073 -0.0772 -0.0567
32943ION     NA49017  10.865   7.821  10.865  0.2584 -0.3953 -0.3021
32944ION     NA49018   1.912   3.435  10.302  0.4030 -0.0483  0.0623
32945ION     NA49019   6.340   3.120  10.869  0.1501 -0.1989  0.0886
32946ION     NA49020  11.941   7.592  12.149  0.0687 -0.1658  0.2956
32947ION     NA49021  16.358  14.237  10.330  0.6427  0.5070 -0.1981
32948ION     NA49022  11.847   4.302  13.902 -0.0873  0.1022  0.2623
32949ION     NA49023  15.179   4.895  11.418 -0.1079  0.2503 -0.0222
32950ION     NA49024   1.002   8.169   4.228  0.0597 -0.0736  0.1822
32951ION     NA49025   1.386   3.021  12.888  0.4243 -0.2142  0.1636
32952ION     NA49026  17.326  14.232  10.369  0.1068 -0.0511  0.0332
32953ION     NA49027   9.290   5.387   1.735  0.2124 -0.1204 -0.2154
32954ION     NA49028   0.532  12.623  10.239  0.0318 -0.1019  0.0811
32955ION     NA49029  16.679   3.818  15.433  0.1518  0.0191  0.1377
32956ION     NA49030  17.257  11.855   5.690 -0.1082  0.1103  0.1734
32957ION     NA49031   5.672  17.626  11.136 -0.0649 -0.1460 -0.2206
32958ION     NA49032   0.962   0.067   4.549 -0.1805 -0.1230 -0.2675
32959ION     NA49033  14.391  14.263  11.161  0.0864  0.2920 -0.0195
32960ION     NA49034  14.368  14.972  16.176  0.1133 -0.0658 -0.2387
32961ION     NA49035   8.840   4.159  10.686 -0.0334  0.1753 -0.2800
32962ION     NA49036   4.936   4.379  10.528 -0.1531 -0.0748 -0.1041
32963ION     NA49037  15.220  11.088  10.566 -0.0367  0.1164 -0.1727
32964ION     NA49038   6.408  11.890   1.660 -0.1858 -0.2258  0.1172
32965ION     NA49039   7.660  16.268   5.059  0.2827  0.2096  0.1310
32966ION     NA49040   2.565   3.890  10.187  0.1455 -0.2036 -0.4388
32967ION     NA49041  10.451  16.027  10.876  0.4463  0.1098  0.0984
32968ION     NA49042  13.255  14.978   3.085 -0.1460 -0.1238  0.0051
32969ION     NA49043   4.786   5.219  10.165 -0.2697 -0.2488 -0.3142
32970ION     NA49044  10.464   1.137  10.853 -0.0818 -0.1614  0.2515
32971ION     NA49045  13.599   2.630   2.355  0.1341  0.0729  0.2564
32972ION     NA49046   2.701  12.312   3.282  0.1447 -0.1812  0.0596
32973ION     NA49047  16.985  13.094  13.103 -0.5363  0.4888  0.2754
32974ION     NA49048   4.538   7.111  10.470 -0.0064 -0.0412 -0.1423
32975ION     NA49049  14.501   5.275  10.914 -0.3495 -0.1554  0.3107
32976ION     NA49050   8.918  13.036  10.689  0.1064 -0.1354 -0.3368
32977ION     NA49051  13.949   3.317  10.768 -0.0425  0.2698  0.0724
32978ION     NA49052  11.653  13.576  10.816 -0.2591  0.3474  0.0243
32979ION     NA49053  10.074   7.779   5.958  0.0054  0.1583 -0.1713
32980ION     NA49054   7.634  13.864  16.383 -0.0454  0.0512  0.3401
32981ION     NA49055   3.975  10.901  15.249 -0.0909  0.0916 -0.0158
32982ION     NA49056  10.857  13.098  10.616 -0.0069  0.0414 -0.0026
32983ION     NA49057   1.279   8.160   5.596  0.2414  0.0491 -0.2860
32984ION     NA49058  17.232  13.364  10.420 -0.0712 -0.2654 -0.2066
32985ION     NA49059  17.022  18.239  10.549  0.2540 -0.2115 -0.0404
32986ION     NA49060   2.494   6.796  12.022 -0.0832  0.0011  0.3030
32987ION     NA49061   7.560   3.205   5.884 -0.3526 -0.0754  0.1053
32988ION     NA49062   0.388  14.073   5.774  0.1291 -0.1087 -0.0583
32989ION     NA49063  16.427   8.499  10.649  0.0914  0.1305 -0.1658
32990ION     NA49064  11.507   4.092   5.003 -0.0457  0.2814 -0.1233
32991ION     NA49065  17.664  17.774  10.882 -0.0964 -0.3040 -0.4268
32992ION     NA49066   1.499   1.809  14.854 -0.1897  0.4062 -0.0219
32993ION     NA49067   6.256  11.780  10.550 -0.0568 -0.0477  0.0409
32994ION     NA49068   2.231  14.059   0.235  0.0354 -0.1180  0.0400
32995ION     NA49069  11.886   6.086   6.249  0.0209  0.0909 -0.2620
32996ION     NA49070   7.007   9.396   5.171  0.2514 -0.5657 -0.0108
32997ION     NA49071   6.289   0.435   5.895 -0.0297 -0.1284  0.5606
32998ION     NA49072   0.465  17.763  10.116  0.1134  0.2146  0.2133
32999ION     NA49073  14.096   8.801  10.395 -0.3759 -0.0276 -0.0203
33000ION     NA49074   9.024   8.013  15.845  0.0341  0.1338  0.0482
33001ION     NA49075  12.033  12.766  10.495 -0.2121  0.1809  0.0620
33002ION     NA49076  13.298  12.965  10.414  0.3189  0.1383 -0.2218
33003ION     NA49077  16.687  11.701  10.785  0.1387  0.1619  0.0630
33004ION     NA49078  16.376  13.442   0.080 -0.1766 -0.0557 -0.0032
33005ION     NA49079   7.269   1.831  11.020 -0.1926  0.2413  0.0592
33006ION     NA49080   4.930  18.124  15.270 -0.3593 -0.0502 -0.1867
33007ION     NA49081  12.489  15.710  15.630 -0.0942  0.1824  0.5065
33008ION     NA49082  11.330  15.205  10.834 -0.1537  0.2229 -0.0806
33009ION     NA49083  15.067   6.108  10.825 -0.2092  0.1585  0.0268
33010ION     NA49084   5.346  10.460  10.019  0.0424 -0.0199  0.2264
33011ION     NA49085  12.872   4.846  10.784  0.1985 -0.2047 -0.1186
33012ION     NA49086  18.193  14.726  10.412  0.2041 -0.0059 -0.1266
33013ION     NA49087   8.490   9.908   3.314  0.0333  0.2025  0.0909
33014ION     NA49088   9.759   8.747  10.516 -0.1885  0.2803  0.3243
33015ION     NA49089   8.112  10.143   5.753  0.0701 -0.2291  0.0553
33016ION     NA49090  16.869   2.655  13.459 -0.2487 -0.0811 -0.1168
33017ION     NA49091  15.185   0.594   2.669  0.1017 -0.1060  0.0182
33018ION     NA49092  18.107  15.661  10.231  0.0855  0.0968 -0.0808
33019ION     NA49093   8.168  12.749  10.811  0.1008  0.0931 -0.1768
33020ION     NA49094  14.797  16.641  10.648  0.0523  0.2758 -0.0932
33021ION     NA49095   2.797  12.640  13.694  0.0527 -0.1613 -0.2627
33022ION     NA49096  12.848   9.558   2.789  0.0425  0.1394  0.2214
33023ION     NA49097  15.425   1.041   6.203  0.0685  0.1412 -0.1744
33024ION     NA49098   4.691   9.788  10.068  0.1824 -0.0437 -0.0926
33025ION     NA49099  11.863  10.303   5.277  0.1244 -0.2915  0.1669
33026ION     NA49100  10.737   8.833  12.667  0.0798 -0.0287  0.4198
33027ION     NA49101   0.645   5.914  14.791  0.0490 -0.1566  0.2853
33028ION     NA49102   1.137  17.167  10.315 -0.1385 -0.0731  0.2110
33029ION     NA49103  17.539  17.547  16.177 -0.0383 -0.2781  0.1042
33030ION     NA49104   3.662  12.260   1.405 -0.0570 -0.0421  0.0004
33031ION     NA49105   0.033   1.355   4.898 -0.1384  0.0392 -0.0978
33032ION     NA49106   0.405  13.497  10.290 -0.1403 -0.0308  0.0040
33033ION     NA49107   3.921   2.943  10.579 -0.0088  0.0654 -0.4570
33034ION     NA49108   7.113  12.825  10.704 -0.3311 -0.3493 -0.0842
33035ION     NA49109  13.284  16.815   0.991 -0.3945  0.0402 -0.0129
33036ION     NA49110   6.220  17.946   6.327 -0.1463 -0.1383 -0.2139
33037ION     NA49111   2.527   2.870   3.968 -0.1697  0.1624  0.3027
33038ION     NA49112  16.972  17.276   3.739 -0.1085 -0.1218  0.1564
33039ION     NA49113   5.591   2.513  10.793 -0.0937  0.1386  0.2092
33040ION     NA49114   5.106   1.047  10.963 -0.1843 -0.0858  0.0485
33041ION     NA49115  11.405  16.028  10.828 -0.0701 -0.0897 -0.0647
33042ION     NA49116  12.840  17.778  10.692  0.2797  0.1903 -0.2192
33043ION     NA49117   3.883   1.226   4.042 -0.0378 -0.3233  0.3000
33044ION     NA49118   2.097  13.484  10.423  0.1015  0.1502  0.1107
33045ION     NA49119   5.118  17.286   5.823  0.1562 -0.0784 -0.0025
33046ION     NA49120   1.373   8.110   9.658 -0.3192  0.0930  0.1175
33047ION     NA49121  12.887   2.407  10.956  0.0637  0.0167 -0.1038
33048ION     NA49122   8.728   1.036  10.837  0.1887 -0.2755 -0.1171
33049ION     NA49123  12.231  15.005  10.892  0.1327 -0.1600 -0.1900
33050ION     NA49124   4.377  10.930   5.727 -0.1381  0.0074 -0.3180
33051ION     NA49125   8.912  16.422  11.058  0.1300 -0.2681 -0.0534
33052ION     NA49126  10.330   8.761  14.935 -0.0263  0.2996  0.0685
33053ION     NA49127  12.004   7.035  10.809 -0.1582  0.0634  0.1878
33054ION     NA49128  17.896  16.344   5.967 -0.0774  0.0957  0.1219
33055ION     NA49129   7.839  15.623   6.376 -0.0169 -0.0685  0.0226
33056ION     NA49130   7.464   7.996  13.570 -0.0682 -0.1179  0.0543
33057ION     NA49131  10.634  12.671   5.050  0.0749 -0.3223 -0.0886
33058ION     NA49132  16.580  16.515  10.468  0.0893 -0.0390  0.1306
33059ION     NA49133   2.728   6.605  10.214 -0.1005 -0.2511  0.3132
33060ION     NA49134   3.989   3.607  13.443 -0.2892 -0.0040  0.1152
33061ION     NA49135   4.529   2.256  10.660  0.0622  0.0488 -0.2287
33062ION     NA49136   2.049   6.099  10.597 -0.2515 -0.0643  0.1807
33063ION     NA49137   1.171  16.564   9.809 -0.2039  0.0918  0.0339
33064ION     NA49138   2.729  17.406  10.575 -0.2191  0.0362  0.0613
33065ION     NA49139   0.030   5.419   1.025 -0.1923 -0.0725 -0.0475
33066ION     NA49140  10.370   1.560  16.210 -0.4056 -0.5187  0.0847
33067ION     NA49141  12.926  16.246  10.990 -0.0991 -0.3414  0.2293
33068ION     NA49142   2.921   7.949   5.911 -0.1684  0.0747  0.1203
33069ION     NA49143  16.756   7.251  10.597 -0.4082 -0.2881 -0.0539
33070ION     NA49144  17.940   5.840  10.655 -0.2676  0.0050  0.2758
33071ION     NA49145   3.402  10.895  10.236 -0.2444 -0.0171 -0.1225
33072ION     NA49146   2.473   4.636   5.788 -0.0080  0.0659  0.0225
33073ION     NA49147   7.586  11.975   4.543 -0.1211 -0.2109 -0.0722
33074ION     NA49148   1.221   1.946  10.286  0.1855  0.1359  0.0768
33075ION     NA49149   5.902   1.848  11.266 -0.2383 -0.0708  0.3898
33076ION     NA49150   5.105  15.754  10.798 -0.1449  0.0542  0.1578
33077ION     NA49151   0.874   4.151   5.756  0.0109  0.2535 -0.1424
33078ION     NA49152   7.064  10.193  10.406  0.3314  0.0760  0.2180
33079ION     NA49153   4.106  15.112  13.733  0.1251  0.1603 -0.1048
33080ION     NA49154  14.098   7.751  10.841 -0.1438 -0.3985  0.0941
33081ION     NA49155  15.254  10.776  14.284  0.3753 -0.0195  0.1361
33082ION     NA49156  16.429   4.923   6.025  0.1347 -0.1651  0.1544
33083ION     NA49157  12.715  13.688   5.805  0.0680 -0.0123 -0.3945
33084ION     NA49158  14.050   4.195  10.614  0.0848  0.1278 -0.4583
33085ION     NA49159  15.727  10.336  10.595  0.1847  0.1427 -0.1673
33086ION     NA49160   8.803  12.192  14.902 -0.3002  0.2962 -0.2753
33087ION     NA49161   1.496  10.026  10.070 -0.0138  0.5936 -0.0325
33088ION     NA49162   2.055   9.137   5.800  0.1517 -0.0082  0.1739
33089ION     NA49163   5.264  12.894  10.532  0.0803 -0.0203 -0.0743
33090ION     NA49164   9.937   8.532   6.043 -0.3488 -0.0675 -0.2372
33091ION     NA49165  13.429   0.949   1.150 -0.1446 -0.1470  0.0726
33092ION     NA49166  10.343  12.395  10.610 -0.2452  0.1831  0.0948
33093ION     NA49167   2.733  14.858  14.579  0.1984 -0.0994 -0.4615
33094ION     NA49168   1.640  12.121   2.386 -0.0374  0.2809  0.0225
33095ION     NA49169  10.820   4.556  10.879  0.1754  0.0318  0.1876
33096ION     NA49170   1.676   8.165   0.459 -0.1488  0.4867  0.0687
33097ION     NA49171   0.528  11.180  10.239 -0.1773  0.0662 -0.3130
33098ION     NA49172  15.245   8.858   3.958 -0.2102 -0.1085 -0.2265
33099ION     NA49173   7.660  14.686  10.778  0.0116  0.0988  0.1708
33100ION     NA49174  14.435   7.320   5.814  0.0622  0.0051  0.1205
33101ION     NA49175  18.025  13.627   4.033  0.1479  0.3652  0.0599
33102ION     NA49176   9.551   1.352   1.435 -0.0281  0.1122 -0.0229
33103ION     NA49177   9.283   0.420  10.972  0.2674  0.0700 -0.0647
33104ION     NA49178  10.399   2.367  10.820  0.2576  0.2592  0.7206
33105ION     NA49179  15.545  14.900  10.491 -0.0840  0.1678 -0.1386
33106ION     NA49180   2.749  16.064  10.302 -0.0357  0.1126  0.0260
33107ION     NA49181  16.794   1.243   5.847  0.1791  0.0963  0.1939
33108ION     NA49182   4.767   9.608  13.065  0.2338 -0.1386  0.4803
33109ION     NA49183  14.815   5.303   1.923 -0.1545 -0.0535 -0.0874
33110ION     NA49184   9.933   4.116  10.865  0.2107 -0.1195 -0.0583
33111ION     NA49185  12.543  17.235   6.122 -0.1330 -0.0778 -0.0288
33112ION     NA49186   7.312  15.079   5.803 -0.1070  0.1605 -0.0136
33113ION     NA49187   8.540   1.829  10.890  0.0857  0.1196  0.3950
33114ION     NA49188   6.874   3.057   2.542 -0.1545  0.1833  0.0584
33115ION     NA49189  17.683  12.908   3.552  0.2862 -0.0878 -0.0120
33116ION     NA49190  11.927   8.791   6.080 -0.0035 -0.1959 -0.2350
33117ION     NA49191  13.402   5.720  10.691 -0.0565  0.1657 -0.0933
33118ION     NA49192   2.773   7.349   9.974 -0.0956 -0.0350  0.0706
33119ION     NA49193   9.555   1.092  10.763 -0.2688 -0.0775 -0.4540
33120ION     NA49194   1.196   7.516  10.537  0.0322 -0.1652  0.0743
33121ION     NA49195   2.203  12.547  10.490  0.0547  0.3488  0.1337
33122ION     NA49196  12.066  12.074   5.760  0.0642 -0.3431 -0.3162
33123ION     NA49197  12.494   4.630   2.487  0.1095  0.0161  0.1927
33124ION     NA49198  16.507   3.854  10.517  0.1711 -0.3722  0.1982
33125ION     NA49199  13.970   0.395   1.828  0.2907  0.2132 -0.5371
33126ION     NA49200   0.384   1.041   5.689 -0.1782  0.1209 -0.3023
33127ION     NA49201   5.607   5.540  11.396  0.1102 -0.0611 -0.1501
33128ION     NA49202  11.700  18.142  10.858 -0.1679 -0.0269 -0.0676
33129ION     NA49203   8.933  11.422  16.375 -0.0927 -0.3486 -0.0582
33130ION     NA49204   0.320   6.449  10.204  0.2704 -0.2187  0.1861
33131ION     NA49205  13.280  17.481  13.518  0.0592 -0.0494 -0.0560
33132ION     NA49206   5.624   3.690  10.601  0.0362  0.4915  0.2180
33133ION     NA49207   6.172  15.902  13.858 -0.0293  0.3411 -0.2609
33134ION     NA49208  13.732   0.616  11.006 -0.2059 -0.1770  0.1306
33135ION     NA49209  15.195  14.358   1.760  0.1056 -0.0237 -0.2091
33136ION     NA49210  13.695   1.311  10.667  0.2583  0.0081 -0.1666
33137ION     NA49211  13.192   1.382  10.711 -0.2122 -0.3003 -0.0291
33138ION     NA49212   4.635  11.426   2.880 -0.1194  0.1407 -0.0957
33139ION     NA49213  15.331  10.888   2.966 -0.1494  0.4184  0.1633
33140ION     NA49214   5.311   4.164   2.547 -0.5282 -0.2192 -0.1698
33141ION     NA49215  15.791  11.790  10.743 -0.0009 -0.1237 -0.0148
33142ION     NA49216   5.768  11.176   0.281  0.2150  0.2659 -0.1399
33143ION     NA49217  11.193   5.100  14.304 -0.0518 -0.1383  0.0584
33144ION     NA49218  18.195   9.045  10.569  0.0003  0.0881  0.3407
33145ION     NA49219   6.380  13.485  15.048  0.2535  0.0818 -0.1542
33146ION     NA49220   4.445  13.939  10.780  0.3698  0.2489  0.2027
33147ION     NA49221   7.257   7.013   6.026 -0.1438 -0.1848  0.0535
33148ION     NA49222  15.961   1.128   3.838 -0.0426 -0.1742  0.1062
33149ION     NA49223   6.737   2.343  11.251  0.0665  0.0221 -0.0895
33150ION     NA49224  13.557  15.759  10.695  0.4146 -0.2263 -0.2325
33151ION     NA49225  14.230   2.304  10.806 -0.1515 -0.3691 -0.0475
33152ION     NA49226   5.490   4.730  10.499 -0.0969 -0.1214  0.0988
33153ION     NA49227  11.197  17.041   1.051  0.0939  0.1432 -0.2681
33154ION     NA49228  17.757   8.705   1.946 -0.0316 -0.2560  0.0060
33155ION     NA49229   7.647   7.663  10.610 -0.1296 -0.3069 -0.0134
33156ION     NA49230  11.292  17.962  13.966 -0.0013  0.0413  0.0840
33157ION     NA49231   0.260   8.029   5.543  0.1541 -0.0568  0.0998
33158ION     NA49232  17.462   8.456  10.515  0.1432 -0.3108 -0.2216
33159ION     NA49233   5.702   5.538  10.516 -0.0124  0.3967  0.1630
33160ION     NA49234  10.065   5.004  10.677 -0.1553 -0.0725  0.4229
33161ION     NA49235  11.744   3.503  11.026 -0.0249 -0.5266  0.0933
33162ION     NA49236   7.273   0.210   3.174 -0.0349 -0.2695  0.0944
33163ION     NA49237  12.815  12.101   2.213 -0.2611  0.0577 -0.3648
33164ION     NA49238   8.522  18.157  11.062  0.1915  0.4034 -0.0133
33165ION     NA49239   0.266   1.946  10.407  0.2675 -0.2229 -0.3279
33166ION     NA49240   8.153   6.893  10.487  0.2832 -0.2233  0.2076
33167ION     NA49241   9.215   5.545  10.756 -0.3099  0.1306  0.0218
33168ION     NA49242   5.739   4.443   5.826 -0.2410 -0.0298  0.0001
33169ION     NA49243   5.622   3.272  10.962 -0.0229 -0.1850 -0.0786
33170ION     NA49244  12.372   0.577   6.022 -0.1182  0.1204 -0.0722
33171ION     NA49245   9.262  14.260   1.868 -0.1752 -0.0214  0.2841
33172ION     NA49246  11.907   1.851  10.812 -0.0715 -0.1571 -0.1403
33173ION     NA49247   8.072   2.538  10.652 -0.1685 -0.0845 -0.3633
33174ION     NA49248   7.284   7.790   5.431 -0.0001  0.3596  0.1606
33175ION     NA49249   7.035   9.303  10.228 -0.0309 -0.2816  0.1372
33176ION     NA49250   7.435   3.972  10.704  0.2789  0.0117  0.1124
33177ION     NA49251   7.813  12.071   5.725 -0.0288 -0.1914  0.0288
33178ION     NA49252  12.215  16.660  10.778 -0.3192  0.1027 -0.2716
33179ION     NA49253   8.439   5.925  10.630 -0.2345  0.0006  0.0624
33180ION     NA49254   2.766  10.508   9.920 -0.0062  0.0643 -0.3222
33181ION     NA49255   4.151  12.205  10.334  0.0945  0.1323 -0.2988
33182ION     NA49256  14.644   9.428  10.687  0.1103  0.1214 -0.0821
33183ION     NA49257  15.968  16.375  11.175  0.1392 -0.1614  0.0803
33184ION     NA49258   5.380  13.825  10.857 -0.3929 -0.2640 -0.1103
33185ION     NA49259   9.923  13.500   2.250 -0.3762  0.1464 -0.0552
33186ION     NA49260  16.340   6.326  10.541  0.1407 -0.1032 -0.2359
33187ION     NA49261   6.779  16.920  10.833  0.0462  0.2518 -0.2727
  18.25320  18.25320  16.49954
